/*--------------------------------*- C++ -*----------------------------------*\
  =========                 |
  \\      /  F ield         | OpenFOAM: The Open Source CFD Toolbox
   \\    /   O peration     | Website:  https://openfoam.org
    \\  /    A nd           | Version:  6.0
     \\/     M anipulation  |
\*---------------------------------------------------------------------------*/
FoamFile
{
    version     2.0;
    format      ascii;
    class       volScalarField;
    location    "9";
    object      p;
}
// * * * * * * * * * * * * * * * * * * * * * * * * * * * * * * * * * * * * * //

dimensions      [0 2 -2 0 0 0 0];

internalField   nonuniform List<scalar> 
2000
(
-0.365439
-0.371283
-0.372898
-0.372118
-0.370127
-0.367309
-0.363943
-0.360321
-0.356719
-0.352876
-0.368197
-0.373616
-0.374886
-0.373802
-0.371522
-0.368426
-0.364796
-0.360913
-0.357057
-0.353089
-0.37373
-0.378281
-0.37885
-0.377152
-0.374287
-0.370633
-0.366464
-0.362042
-0.357659
-0.353438
-0.382075
-0.385274
-0.384767
-0.382136
-0.378386
-0.373881
-0.368883
-0.363613
-0.358387
-0.35376
-0.393287
-0.394589
-0.392605
-0.388714
-0.383774
-0.378121
-0.371983
-0.36551
-0.359039
-0.353794
-0.407422
-0.406208
-0.402319
-0.396843
-0.390419
-0.383328
-0.375732
-0.367647
-0.359404
-0.353205
-0.424507
-0.420085
-0.413848
-0.406478
-0.398311
-0.38954
-0.38022
-0.370141
-0.359478
-0.351726
-0.444483
-0.436116
-0.427097
-0.417558
-0.407436
-0.396799
-0.385557
-0.373116
-0.359012
-0.348165
-0.467131
-0.454126
-0.441947
-0.430038
-0.41783
-0.405194
-0.391729
-0.37596
-0.355714
-0.337758
-0.492015
-0.473845
-0.458298
-0.444064
-0.430112
-0.416214
-0.401619
-0.383742
-0.358479
-0.333636
-0.518445
-0.494844
-0.475874
-0.459542
-0.444639
-0.431511
-0.420502
-0.41223
-0.411791
-0.430425
-0.545594
-0.51654
-0.494055
-0.475362
-0.458846
-0.444939
-0.434121
-0.427412
-0.429795
-0.446573
-0.572731
-0.538468
-0.51256
-0.491394
-0.472846
-0.457246
-0.444967
-0.436694
-0.435433
-0.442812
-0.599197
-0.560144
-0.531061
-0.507448
-0.486615
-0.468711
-0.453899
-0.442415
-0.435669
-0.433866
-0.624229
-0.580887
-0.548921
-0.522865
-0.499433
-0.478574
-0.460255
-0.444348
-0.431246
-0.42112
-0.646823
-0.59975
-0.565183
-0.536623
-0.510231
-0.485825
-0.463296
-0.442345
-0.422813
-0.4055
-0.665682
-0.61551
-0.578602
-0.547427
-0.517712
-0.489287
-0.462137
-0.435985
-0.410453
-0.387258
-0.679239
-0.626704
-0.587709
-0.553789
-0.520444
-0.487705
-0.455818
-0.424674
-0.393888
-0.36616
-0.685723
-0.631686
-0.590877
-0.55411
-0.516952
-0.479827
-0.443382
-0.407756
-0.372661
-0.341711
-0.683266
-0.628712
-0.586406
-0.54678
-0.505806
-0.464488
-0.423952
-0.384599
-0.346265
-0.313325
-0.670015
-0.616041
-0.572629
-0.530274
-0.485723
-0.440693
-0.396809
-0.354688
-0.314257
-0.280469
-0.644238
-0.592034
-0.548013
-0.503261
-0.455654
-0.407694
-0.361456
-0.317695
-0.276356
-0.242778
-0.604472
-0.555291
-0.51129
-0.464713
-0.414873
-0.365053
-0.317679
-0.273533
-0.232504
-0.200122
-0.549632
-0.504763
-0.461561
-0.413993
-0.363039
-0.312683
-0.265566
-0.222392
-0.18291
-0.15265
-0.479128
-0.439865
-0.398391
-0.350918
-0.300221
-0.250848
-0.205504
-0.164728
-0.128057
-0.100801
-0.392975
-0.360579
-0.321889
-0.275795
-0.226893
-0.180118
-0.138103
-0.101168
-0.0685883
-0.0452105
-0.291879
-0.267526
-0.232752
-0.189435
-0.143924
-0.101346
-0.0641438
-0.0324199
-0.00523442
0.0132827
-0.177297
-0.16201
-0.13228
-0.0931406
-0.0525569
-0.0156771
0.0153136
0.0403993
0.06048
0.0726365
-0.051456
-0.0460192
-0.0223375
0.0114058
0.0458172
0.0758345
0.09942
0.116118
0.12611
0.129135
0.0826747
0.0777881
0.0946513
0.122165
0.149869
0.17301
0.189616
0.198084
0.197153
0.190797
0.221507
0.206134
0.215572
0.236231
0.25713
0.274359
0.286691
0.292399
0.291346
0.303936
0.361137
0.335364
0.336803
0.349741
0.362879
0.372944
0.379119
0.380571
0.379434
0.391332
0.497618
0.461802
0.454931
0.45957
0.46431
0.466454
0.465486
0.461018
0.455236
0.459543
0.627107
0.581839
0.566667
0.562822
0.558982
0.553033
0.544762
0.534037
0.522688
0.519219
0.745949
0.692038
0.668921
0.656842
0.64471
0.630977
0.615703
0.598937
0.582189
0.571768
0.850764
0.789237
0.758878
0.739242
0.719547
0.698766
0.677191
0.655018
0.633449
0.616969
0.938546
0.870633
0.834058
0.807913
0.781748
0.754979
0.728092
0.701394
0.675794
0.654248
1.00675
0.933863
0.892372
0.861075
0.829815
0.798359
0.767338
0.737145
0.708427
0.68294
1.05337
0.97708
0.932187
0.897325
0.862556
0.827883
0.79404
0.761471
0.730629
0.702441
1.07703
0.999012
0.952381
0.915697
0.879139
0.842831
0.807557
0.773787
0.74187
0.712307
1.07703
0.999012
0.952381
0.915697
0.879139
0.842831
0.807557
0.773787
0.74187
0.712307
1.05337
0.97708
0.932187
0.897325
0.862556
0.827883
0.79404
0.761471
0.730629
0.70244
1.00675
0.933863
0.892371
0.861074
0.829815
0.798358
0.767338
0.737145
0.708426
0.68294
0.938545
0.870632
0.834057
0.807913
0.781748
0.754978
0.728091
0.701394
0.675793
0.654248
0.850764
0.789236
0.758878
0.739241
0.719546
0.698765
0.677191
0.655017
0.633449
0.616968
0.745948
0.692037
0.66892
0.656841
0.644709
0.630976
0.615702
0.598936
0.582189
0.571768
0.627106
0.581838
0.566666
0.562821
0.558981
0.553032
0.544761
0.534036
0.522687
0.519218
0.497617
0.461801
0.45493
0.459569
0.464309
0.466453
0.465485
0.461017
0.455235
0.459543
0.361135
0.335363
0.336801
0.34974
0.362878
0.372943
0.379118
0.38057
0.379432
0.391331
0.221505
0.206133
0.21557
0.23623
0.257129
0.274358
0.286689
0.292397
0.291344
0.303935
0.0826731
0.0777865
0.0946497
0.122163
0.149867
0.173008
0.189615
0.198082
0.197152
0.190795
-0.0514577
-0.0460209
-0.0223392
0.0114041
0.0458156
0.0758328
0.0994184
0.116117
0.126109
0.129134
-0.177299
-0.162011
-0.132282
-0.0931424
-0.0525586
-0.0156789
0.0153119
0.0403977
0.0604784
0.072635
-0.291881
-0.267528
-0.232754
-0.189437
-0.143926
-0.101348
-0.0641456
-0.0324217
-0.00523608
0.0132811
-0.392977
-0.360581
-0.321891
-0.275797
-0.226895
-0.18012
-0.138105
-0.101169
-0.06859
-0.0452121
-0.47913
-0.439868
-0.398393
-0.350921
-0.300223
-0.25085
-0.205506
-0.16473
-0.128059
-0.100802
-0.549634
-0.504765
-0.461563
-0.413995
-0.363042
-0.312685
-0.265568
-0.222394
-0.182912
-0.152652
-0.604475
-0.555293
-0.511293
-0.464715
-0.414876
-0.365055
-0.317681
-0.273535
-0.232506
-0.200124
-0.644241
-0.592036
-0.548016
-0.503263
-0.455656
-0.407696
-0.361458
-0.317697
-0.276358
-0.24278
-0.670018
-0.616044
-0.572631
-0.530277
-0.485726
-0.440696
-0.396811
-0.35469
-0.314259
-0.280471
-0.683269
-0.628715
-0.586408
-0.546783
-0.505809
-0.46449
-0.423954
-0.384601
-0.346267
-0.313326
-0.685726
-0.631689
-0.590879
-0.554113
-0.516954
-0.479829
-0.443384
-0.407758
-0.372663
-0.341713
-0.679242
-0.626707
-0.587712
-0.553792
-0.520447
-0.487707
-0.45582
-0.424677
-0.39389
-0.366162
-0.665685
-0.615513
-0.578605
-0.54743
-0.517715
-0.48929
-0.46214
-0.435988
-0.410455
-0.38726
-0.646826
-0.599752
-0.565185
-0.536625
-0.510234
-0.485827
-0.463298
-0.442347
-0.422815
-0.405502
-0.624232
-0.58089
-0.548924
-0.522867
-0.499436
-0.478577
-0.460258
-0.44435
-0.431249
-0.421122
-0.5992
-0.560147
-0.531064
-0.507451
-0.486618
-0.468713
-0.453901
-0.442417
-0.435671
-0.433868
-0.572734
-0.538471
-0.512562
-0.491396
-0.472848
-0.457249
-0.444969
-0.436696
-0.435435
-0.442814
-0.545597
-0.516543
-0.494058
-0.475364
-0.458849
-0.444942
-0.434123
-0.427414
-0.429797
-0.446575
-0.518448
-0.494846
-0.475876
-0.459544
-0.444642
-0.431513
-0.420504
-0.412232
-0.411793
-0.430426
-0.492017
-0.473847
-0.4583
-0.444066
-0.430114
-0.416216
-0.401621
-0.383744
-0.358481
-0.333638
-0.467133
-0.454128
-0.44195
-0.43004
-0.417832
-0.405196
-0.391731
-0.375962
-0.355716
-0.337759
-0.444484
-0.436118
-0.427098
-0.41756
-0.407438
-0.3968
-0.385559
-0.373117
-0.359014
-0.348167
-0.424509
-0.420086
-0.413849
-0.40648
-0.398313
-0.389541
-0.380221
-0.370143
-0.359479
-0.351727
-0.407423
-0.40621
-0.40232
-0.396844
-0.39042
-0.383329
-0.375733
-0.367649
-0.359405
-0.353206
-0.393288
-0.39459
-0.392606
-0.388715
-0.383775
-0.378122
-0.371984
-0.365511
-0.35904
-0.353795
-0.382076
-0.385275
-0.384768
-0.382137
-0.378387
-0.373882
-0.368884
-0.363614
-0.358387
-0.353761
-0.373731
-0.378282
-0.378851
-0.377153
-0.374288
-0.370634
-0.366465
-0.362042
-0.35766
-0.353439
-0.368197
-0.373617
-0.374887
-0.373802
-0.371522
-0.368427
-0.364797
-0.360913
-0.357057
-0.35309
-0.365439
-0.371283
-0.372899
-0.372118
-0.370128
-0.367309
-0.363943
-0.360322
-0.356719
-0.352876
-0.305683
-0.133333
-0.0838506
-0.026865
-0.0118731
0.000708153
0.00396384
0.00573484
0.00386918
0.00381992
-0.306981
-0.133967
-0.0842214
-0.0271619
-0.0120177
0.000590683
0.00389486
0.00569046
0.00384642
0.00379919
-0.309504
-0.135216
-0.0849508
-0.0277516
-0.0123031
0.000358475
0.00375841
0.00560252
0.00380137
0.00375802
-0.313102
-0.137045
-0.0860147
-0.0286261
-0.0127219
1.68388e-05
0.00355743
0.00547266
0.00373494
0.00369691
-0.317522
-0.1394
-0.08737
-0.0297695
-0.0132623
-0.00042614
0.00329621
0.00530314
0.00364844
0.00361655
-0.322406
-0.142193
-0.0889469
-0.0311504
-0.0139061
-0.000958505
0.00298075
0.00509706
0.00354346
0.00351789
-0.327602
-0.145472
-0.0907276
-0.0327445
-0.0146399
-0.00156779
0.00261769
0.00485877
0.00342175
0.00340272
-0.333507
-0.149845
-0.092951
-0.034641
-0.0154987
-0.00226023
0.00220723
0.00459232
0.00328484
0.00327409
-0.338347
-0.155707
-0.0957979
-0.0370132
-0.0165455
-0.00306718
0.00173792
0.00429291
0.00313475
0.00313108
-0.331464
-0.158808
-0.0973987
-0.0392122
-0.0174871
-0.00389625
0.00123712
0.0039453
0.00297719
0.00295462
-0.26351
-0.151131
-0.0941884
-0.0435387
-0.0191216
-0.00626267
-0.000384062
0.00259559
0.00241771
0.00218374
-0.2034
-0.141872
-0.0876533
-0.0451219
-0.0217285
-0.00981932
-0.0033522
0.000332666
0.00116521
0.00112382
-0.160172
-0.122941
-0.0772712
-0.043372
-0.0236656
-0.0128682
-0.00613709
-0.00186434
-0.000121565
0.000247588
-0.118943
-0.10095
-0.0672913
-0.0414073
-0.0252452
-0.0153774
-0.00853481
-0.00383423
-0.00130487
-0.000399797
-0.0885938
-0.082949
-0.0603672
-0.0403919
-0.0265308
-0.0172851
-0.010467
-0.00550068
-0.00234243
-0.000848401
-0.0677582
-0.0696486
-0.0554098
-0.0396198
-0.0272746
-0.0185526
-0.011909
-0.00682775
-0.00320214
-0.0011499
-0.0542421
-0.0600718
-0.0515491
-0.0388396
-0.0276306
-0.0193597
-0.0129403
-0.0078327
-0.00387586
-0.00135251
-0.0456597
-0.0533849
-0.0485954
-0.0381596
-0.0278048
-0.0198639
-0.0136396
-0.00854709
-0.00436856
-0.00148648
-0.0406207
-0.0491408
-0.0466139
-0.037696
-0.0278972
-0.0201504
-0.0140652
-0.00900236
-0.00469009
-0.00156717
-0.0382755
-0.0470671
-0.0456234
-0.0374792
-0.0279473
-0.0202753
-0.0142622
-0.00922267
-0.00485058
-0.00160205
-0.232638
-0.260795
-0.286923
-0.311299
-0.334296
-0.356396
-0.378183
-0.400266
-0.423075
-0.447193
-0.0792433
-0.0893345
-0.0984286
-0.106768
-0.114662
-0.122499
-0.130749
-0.13997
-0.150765
-0.164888
-0.0563317
-0.0654563
-0.0741972
-0.0825282
-0.0904114
-0.0978004
-0.104649
-0.110927
-0.116626
-0.121852
-0.0288138
-0.0344537
-0.0398884
-0.0451374
-0.050223
-0.0551693
-0.0600004
-0.0647389
-0.0693817
-0.0738004
-0.022853
-0.0271371
-0.0312954
-0.0353247
-0.0392214
-0.0429818
-0.0466028
-0.0500817
-0.0533958
-0.056509
-0.0173494
-0.0204932
-0.0235771
-0.0266004
-0.0295627
-0.0324639
-0.0353038
-0.0380814
-0.0407822
-0.0434064
-0.0160025
-0.0184705
-0.0209006
-0.0232889
-0.025632
-0.0279269
-0.0301714
-0.0323632
-0.0344943
-0.0365771
-0.0149887
-0.016979
-0.0189511
-0.0209008
-0.0228246
-0.0247193
-0.0265819
-0.0284095
-0.0301973
-0.0319529
-0.0147821
-0.0164911
-0.0181899
-0.0198742
-0.0215396
-0.0231825
-0.0247995
-0.0263873
-0.0279425
-0.0294678
-0.0146591
-0.0162204
-0.0177767
-0.0193242
-0.0208594
-0.022379
-0.0238799
-0.0253591
-0.026814
-0.0282443
0.153771
0.112669
0.0677387
0.0248128
-0.0169202
-0.0577806
-0.0971516
-0.134488
-0.169547
-0.202257
0.105597
0.0797387
0.0532864
0.0305769
0.0104603
-0.00821472
-0.0255089
-0.0412242
-0.0553391
-0.0679641
0.0616387
0.0459612
0.0311718
0.0183472
0.00653052
-0.00490125
-0.0160051
-0.0266995
-0.0369671
-0.0468365
0.0422003
0.0332144
0.0247329
0.0171269
0.00993814
0.00292152
-0.00391445
-0.0105137
-0.0168573
-0.0229529
0.0271291
0.0212381
0.0155946
0.0103775
0.00534658
0.0003852
-0.00449626
-0.00926766
-0.0139176
-0.0184459
0.0173176
0.0134867
0.00972323
0.006155
0.00267495
-0.000776712
-0.00419664
-0.00756899
-0.0108862
-0.0141466
0.00992673
0.0072472
0.00455643
0.00193766
-0.000653913
-0.00324616
-0.00583607
-0.00841297
-0.0109694
-0.0135006
0.00498943
0.00304093
0.00105154
-0.000928945
-0.00291468
-0.00491621
-0.00693053
-0.00895047
-0.01097
-0.0129842
0.0018115
0.000260799
-0.00133359
-0.00294943
-0.00458935
-0.00625445
-0.00794056
-0.00964177
-0.0113525
-0.0130676
0.000294257
-0.00108205
-0.00249853
-0.0039453
-0.00542079
-0.0069224
-0.00844564
-0.00998556
-0.0115374
-0.0130967
0.322881
0.322189
0.320537
0.317524
0.312382
0.30387
0.290214
0.269037
0.237704
0.19299
0.233449
0.232425
0.229762
0.225151
0.218278
0.208704
0.195851
0.179071
0.157617
0.130974
0.163113
0.162075
0.159376
0.154821
0.148329
0.139774
0.128953
0.115648
0.0994438
0.0804391
0.111957
0.111143
0.109016
0.105434
0.100402
0.0939308
0.0860058
0.0766368
0.0657469
0.0536841
0.0760426
0.0754525
0.0738994
0.0712786
0.0676126
0.0629441
0.0572999
0.0507176
0.0431771
0.0348912
0.0512272
0.0508044
0.0496892
0.0478075
0.0451836
0.0418619
0.037879
0.0332787
0.0280794
0.0224307
0.0343725
0.0340648
0.0332529
0.0318833
0.0299754
0.0275647
0.024681
0.0213567
0.0176117
0.0135316
0.0233121
0.0230797
0.0224665
0.0214323
0.0199925
0.0181746
0.0160026
0.0135014
0.010692
0.00762731
0.0166279
0.01644
0.0159444
0.0151087
0.013945
0.0124753
0.0107185
0.00869326
0.00641768
0.00392397
0.013481
0.0133136
0.0128726
0.0121293
0.0110941
0.00978629
0.00822244
0.00641862
0.00439196
0.00216606
0.473211
0.47489
0.481267
0.492415
0.508251
0.529094
0.55541
0.587722
0.626562
0.672172
0.47097
0.472626
0.478922
0.489914
0.505502
0.525968
0.55172
0.583194
0.620784
0.664609
0.466542
0.468154
0.474297
0.484986
0.500089
0.519816
0.544457
0.57428
0.609394
0.64969
0.460025
0.461584
0.467517
0.477776
0.492179
0.510832
0.533853
0.561253
0.592714
0.627819
0.451557
0.453071
0.458755
0.468479
0.482
0.499285
0.52023
0.544505
0.57121
0.599579
0.441307
0.442799
0.448217
0.457325
0.469809
0.485476
0.50395
0.524485
0.545456
0.565701
0.429468
0.431007
0.43618
0.444627
0.455965
0.46981
0.485478
0.501727
0.516125
0.527038
0.416244
0.418013
0.423071
0.430929
0.441143
0.453112
0.465775
0.47725
0.484201
0.484351
0.401713
0.40396
0.409096
0.416494
0.425699
0.435888
0.445552
0.451979
0.45068
0.43717
0.385552
0.388002
0.392759
0.399094
0.406564
0.41422
0.420266
0.421459
0.412941
0.385438
0.385551
0.388001
0.392759
0.399093
0.406563
0.41422
0.420265
0.421458
0.41294
0.385437
0.401712
0.403959
0.409095
0.416494
0.425699
0.435887
0.445551
0.451978
0.450679
0.437169
0.416244
0.418012
0.423071
0.430928
0.441143
0.453112
0.465774
0.477249
0.4842
0.48435
0.429468
0.431006
0.436179
0.444627
0.455965
0.469809
0.485477
0.501727
0.516124
0.527037
0.441306
0.442798
0.448217
0.457324
0.469809
0.485475
0.50395
0.524484
0.545455
0.5657
0.451557
0.45307
0.458755
0.468478
0.481999
0.499285
0.520229
0.544504
0.571209
0.599578
0.460024
0.461584
0.467517
0.477776
0.492179
0.510832
0.533852
0.561253
0.592713
0.627819
0.466542
0.468153
0.474297
0.484986
0.500089
0.519816
0.544457
0.57428
0.609393
0.64969
0.47097
0.472626
0.478922
0.489914
0.505501
0.525968
0.551719
0.583194
0.620784
0.664609
0.473211
0.47489
0.481267
0.492415
0.508251
0.529094
0.55541
0.587722
0.626562
0.672172
0.0134804
0.0133129
0.012872
0.0121287
0.0110935
0.0097857
0.00822186
0.00641805
0.0043914
0.00216552
0.0166273
0.0164394
0.0159438
0.0151081
0.0139444
0.0124747
0.0107179
0.00869265
0.00641708
0.00392338
0.0233114
0.023079
0.0224659
0.0214317
0.0199919
0.018174
0.016002
0.0135008
0.0106913
0.00762667
0.0343718
0.0340641
0.0332522
0.0318825
0.0299747
0.027564
0.0246803
0.021356
0.0176111
0.0135309
0.0512264
0.0508036
0.0496885
0.0478068
0.0451828
0.0418611
0.0378782
0.0332779
0.0280786
0.0224299
0.0760418
0.0754517
0.0738985
0.0712778
0.0676117
0.0629432
0.0572991
0.0507168
0.0431762
0.0348904
0.111956
0.111142
0.109015
0.105433
0.100401
0.0939299
0.0860049
0.0766359
0.065746
0.0536832
0.163112
0.162074
0.159375
0.15482
0.148328
0.139773
0.128952
0.115647
0.0994429
0.0804381
0.233448
0.232424
0.229761
0.22515
0.218277
0.208703
0.19585
0.17907
0.157616
0.130973
0.32288
0.322188
0.320536
0.317523
0.312381
0.303869
0.290213
0.269036
0.237703
0.192989
0.000293706
-0.00108262
-0.0024991
-0.00394587
-0.00542135
-0.00692295
-0.0084462
-0.00998611
-0.011538
-0.0130972
0.00181092
0.000260229
-0.00133415
-0.00295
-0.00458991
-0.00625501
-0.00794112
-0.00964234
-0.0113531
-0.0130682
0.00498881
0.00304032
0.00105092
-0.000929567
-0.00291531
-0.00491684
-0.00693116
-0.0089511
-0.0109706
-0.0129848
0.00992603
0.00724649
0.00455572
0.00193696
-0.000654611
-0.00324685
-0.00583676
-0.00841366
-0.0109701
-0.0135013
0.0173169
0.013486
0.0097225
0.00615427
0.00267421
-0.000777444
-0.00419737
-0.00756972
-0.010887
-0.0141474
0.0271282
0.0212372
0.0155938
0.0103767
0.00534573
0.000384355
-0.0044971
-0.00926849
-0.0139184
-0.0184467
0.0421994
0.0332135
0.024732
0.017126
0.00993723
0.00292062
-0.00391535
-0.0105146
-0.0168582
-0.0229537
0.0616377
0.0459602
0.0311707
0.0183461
0.00652949
-0.00490227
-0.0160062
-0.0267005
-0.0369681
-0.0468375
0.105596
0.0797375
0.0532852
0.0305757
0.0104591
-0.00821592
-0.0255101
-0.0412254
-0.0553403
-0.0679653
0.15377
0.112668
0.0677374
0.0248114
-0.0169216
-0.057782
-0.097153
-0.13449
-0.169549
-0.202258
-0.0146596
-0.016221
-0.0177773
-0.0193248
-0.02086
-0.0223796
-0.0238804
-0.0253596
-0.0268145
-0.0282448
-0.0147827
-0.0164917
-0.0181905
-0.0198747
-0.0215402
-0.0231831
-0.0248
-0.0263878
-0.0279431
-0.0294684
-0.0149893
-0.0169797
-0.0189517
-0.0209014
-0.0228252
-0.0247199
-0.0265825
-0.0284101
-0.0301979
-0.0319535
-0.0160031
-0.0184712
-0.0209013
-0.0232896
-0.0256326
-0.0279275
-0.030172
-0.0323638
-0.0344949
-0.0365776
-0.0173501
-0.0204939
-0.0235778
-0.0266011
-0.0295634
-0.0324646
-0.0353045
-0.038082
-0.0407828
-0.0434069
-0.0228538
-0.0271379
-0.0312962
-0.0353254
-0.0392221
-0.0429825
-0.0466034
-0.0500823
-0.0533965
-0.0565096
-0.0288147
-0.0344546
-0.0398893
-0.0451382
-0.0502238
-0.0551701
-0.0600011
-0.0647397
-0.0693824
-0.073801
-0.0563326
-0.0654572
-0.0741981
-0.0825291
-0.0904123
-0.0978013
-0.10465
-0.110928
-0.116627
-0.121853
-0.0792445
-0.0893357
-0.0984298
-0.106769
-0.114663
-0.1225
-0.13075
-0.139971
-0.150766
-0.164889
-0.232639
-0.260797
-0.286924
-0.3113
-0.334297
-0.356397
-0.378184
-0.400267
-0.423076
-0.447194
-0.038276
-0.0470675
-0.0456237
-0.0374796
-0.0279477
-0.0202756
-0.0142624
-0.00922281
-0.00485066
-0.00160211
-0.0406212
-0.0491412
-0.0466143
-0.0376964
-0.0278976
-0.0201508
-0.0140654
-0.0090025
-0.00469016
-0.00156724
-0.0456602
-0.0533852
-0.0485957
-0.03816
-0.0278052
-0.0198642
-0.0136398
-0.00854722
-0.00436863
-0.00148654
-0.0542426
-0.0600721
-0.0515493
-0.03884
-0.0276311
-0.01936
-0.0129405
-0.00783282
-0.00387591
-0.00135255
-0.0677587
-0.0696489
-0.05541
-0.0396202
-0.0272751
-0.018553
-0.0119093
-0.00682787
-0.00320217
-0.00114993
-0.0885943
-0.0829492
-0.0603673
-0.0403922
-0.0265313
-0.0172855
-0.0104672
-0.00550079
-0.00234246
-0.000848414
-0.118943
-0.10095
-0.0672912
-0.0414076
-0.0252459
-0.0153779
-0.00853514
-0.00383437
-0.00130489
-0.000399788
-0.160172
-0.122941
-0.0772709
-0.0433724
-0.0236665
-0.0128689
-0.00613753
-0.00186454
-0.000121591
0.000247621
-0.203401
-0.141872
-0.0876525
-0.0451221
-0.0217296
-0.00982036
-0.0033528
0.000332387
0.00116518
0.00112388
-0.26351
-0.15113
-0.0941871
-0.0435386
-0.0191228
-0.00626386
-0.000384775
0.00259525
0.00241766
0.0021838
-0.331465
-0.158807
-0.0973975
-0.0392121
-0.0174881
-0.00389723
0.00123652
0.003945
0.00297714
0.00295466
-0.338348
-0.155706
-0.0957966
-0.0370132
-0.0165464
-0.0030681
0.00173736
0.00429262
0.00313469
0.00313111
-0.333508
-0.149844
-0.0929498
-0.034641
-0.0154996
-0.00226107
0.00220672
0.00459205
0.0032848
0.00327412
-0.327603
-0.145471
-0.0907265
-0.0327445
-0.0146407
-0.00156856
0.00261724
0.00485853
0.00342172
0.00340274
-0.322407
-0.142192
-0.0889459
-0.0311503
-0.0139068
-0.000959174
0.00298036
0.00509684
0.00354343
0.00351792
-0.317523
-0.139399
-0.0873691
-0.0297695
-0.0132629
-0.000426701
0.00329589
0.00530295
0.00364841
0.00361657
-0.313103
-0.137045
-0.086014
-0.0286261
-0.0127224
1.63971e-05
0.00355718
0.0054725
0.00373493
0.00369693
-0.309504
-0.135216
-0.0849503
-0.0277516
-0.0123035
0.000358159
0.00375823
0.0056024
0.00380137
0.00375804
-0.306981
-0.133967
-0.0842211
-0.0271619
-0.0120179
0.000590497
0.00389476
0.00569038
0.00384642
0.00379921
-0.305683
-0.133333
-0.0838505
-0.026865
-0.0118732
0.000708092
0.00396381
0.00573481
0.00386919
0.00381993
)
;

boundaryField
{
    inlet
    {
        type            zeroGradient;
    }
    outlet
    {
        type            fixedValue;
        value           uniform 0;
    }
    cylinder
    {
        type            zeroGradient;
    }
    top
    {
        type            symmetryPlane;
    }
    bottom
    {
        type            symmetryPlane;
    }
    defaultFaces
    {
        type            empty;
    }
}


// ************************************************************************* //
