/*--------------------------------*- C++ -*----------------------------------*\
  =========                 |
  \\      /  F ield         | OpenFOAM: The Open Source CFD Toolbox
   \\    /   O peration     | Website:  https://openfoam.org
    \\  /    A nd           | Version:  6.0
     \\/     M anipulation  |
\*---------------------------------------------------------------------------*/
FoamFile
{
    version     2.0;
    format      ascii;
    class       volScalarField;
    location    "100";
    object      nut;
}
// * * * * * * * * * * * * * * * * * * * * * * * * * * * * * * * * * * * * * //

dimensions      [0 2 -1 0 0 0 0];

internalField   nonuniform List<scalar> 
9800
(
0.140014
0.140007
0.140007
0.140006
0.140006
0.140006
0.140007
0.140007
0.140008
0.140008
0.140009
0.140009
0.140009
0.140009
0.140009
0.140009
0.140009
0.140009
0.140008
0.140008
0.140007
0.140004
0.139991
0.139988
0.140003
0.140007
0.140008
0.140008
0.140008
0.140008
0.140009
0.140009
0.140008
0.140008
0.140008
0.140008
0.140008
0.140008
0.140008
0.140007
0.140007
0.140006
0.140005
0.140004
0.140004
0.140003
0.140002
0.140002
0.140002
0.140001
0.140001
0.14
0.14
0.139999
0.139999
0.139998
0.139997
0.139996
0.139995
0.139993
0.13999
0.139985
0.139978
0.139973
0.13997
0.139967
0.139966
0.139965
0.139969
0.139976
0.139982
0.139989
0.139994
0.139999
0.140004
0.140009
0.140014
0.14002
0.140027
0.140035
0.140045
0.140058
0.140073
0.140093
0.140119
0.140154
0.140202
0.140274
0.140356
0.140512
0.140812
0.141297
0.141397
0.141485
0.14154
0.141537
0.141571
0.141387
0.142635
0.135234
0.140019
0.140019
0.140015
0.140012
0.140008
0.140004
0.139998
0.139991
0.139984
0.139983
0.139983
0.139983
0.139983
0.139983
0.139982
0.139982
0.139982
0.139983
0.139983
0.139982
0.139981
0.139975
0.139958
0.139956
0.13998
0.139983
0.139983
0.139983
0.139983
0.139983
0.139982
0.139982
0.139981
0.139981
0.139981
0.139981
0.139981
0.139981
0.139981
0.139981
0.139982
0.139985
0.139992
0.139997
0.140001
0.140003
0.140005
0.140006
0.140007
0.140008
0.140009
0.140009
0.14001
0.140011
0.140011
0.140012
0.140012
0.140012
0.140012
0.140012
0.140011
0.140009
0.140004
0.139999
0.139995
0.139991
0.139988
0.139986
0.139986
0.139989
0.139994
0.140001
0.14001
0.140018
0.140028
0.140038
0.140048
0.14006
0.140072
0.140085
0.140099
0.140116
0.140134
0.140154
0.140177
0.140204
0.140235
0.140271
0.140308
0.140346
0.140393
0.140432
0.140465
0.140499
0.14053
0.140555
0.140576
0.140587
0.140597
0.140706
0.139984
0.139982
0.139977
0.139973
0.139969
0.139964
0.139957
0.139949
0.139944
0.139943
0.139943
0.139943
0.139943
0.139943
0.139943
0.139943
0.139942
0.139942
0.139942
0.139942
0.13994
0.139933
0.139918
0.139918
0.139942
0.139947
0.139945
0.139944
0.139944
0.139943
0.139943
0.139942
0.139942
0.139941
0.139941
0.139941
0.139941
0.139941
0.139941
0.13994
0.139941
0.139943
0.139949
0.139955
0.13996
0.139963
0.139966
0.139968
0.13997
0.139971
0.139971
0.139972
0.139973
0.139973
0.139974
0.139974
0.139974
0.139975
0.139976
0.139977
0.13998
0.139983
0.139986
0.139989
0.13999
0.139992
0.139993
0.139993
0.139994
0.139996
0.139998
0.140002
0.140007
0.140013
0.140021
0.140029
0.140039
0.140049
0.140061
0.140073
0.140087
0.140101
0.140117
0.140135
0.140153
0.140174
0.140196
0.14022
0.140246
0.140274
0.140304
0.140333
0.140365
0.1404
0.140438
0.140476
0.140514
0.140552
0.140582
0.14065
0.139942
0.139927
0.139924
0.139921
0.139917
0.139913
0.139909
0.139907
0.139905
0.139903
0.139902
0.139904
0.139905
0.139907
0.139908
0.13991
0.139911
0.139913
0.139916
0.139917
0.139915
0.139902
0.139875
0.139875
0.139904
0.139918
0.139918
0.139915
0.139911
0.139908
0.139904
0.139901
0.1399
0.139899
0.139899
0.139898
0.139898
0.139897
0.139896
0.139895
0.139895
0.139895
0.139898
0.139902
0.139906
0.13991
0.139913
0.139916
0.139918
0.139919
0.13992
0.139921
0.139921
0.139921
0.139921
0.139921
0.139921
0.139921
0.139921
0.139921
0.139921
0.139923
0.139925
0.139927
0.13993
0.139932
0.139934
0.139935
0.139936
0.139936
0.139937
0.139937
0.139937
0.139937
0.139938
0.139939
0.13994
0.139942
0.139944
0.139947
0.13995
0.139953
0.139957
0.13996
0.139964
0.139968
0.139972
0.139975
0.139979
0.139982
0.139988
0.139999
0.140012
0.140025
0.140037
0.14005
0.14006
0.140068
0.140077
0.140089
0.139874
0.139862
0.13986
0.139857
0.139854
0.139851
0.139849
0.139848
0.139847
0.139847
0.139848
0.13985
0.139852
0.139855
0.139858
0.139862
0.139867
0.139873
0.13988
0.139885
0.139882
0.139864
0.139828
0.139827
0.139859
0.139879
0.13988
0.139874
0.139866
0.139859
0.139853
0.139849
0.139847
0.139845
0.139845
0.139844
0.139843
0.139842
0.13984
0.139839
0.139838
0.139838
0.139838
0.139839
0.139841
0.139844
0.139847
0.139849
0.139851
0.139853
0.139854
0.139855
0.139855
0.139855
0.139855
0.139855
0.139854
0.139853
0.139852
0.139851
0.13985
0.13985
0.139849
0.139849
0.139849
0.13985
0.13985
0.139851
0.139851
0.13985
0.139849
0.139848
0.139846
0.139843
0.13984
0.139837
0.139834
0.139831
0.139827
0.139824
0.13982
0.139816
0.139812
0.139808
0.139803
0.139798
0.139793
0.139787
0.139781
0.139774
0.139766
0.139758
0.13975
0.139741
0.139732
0.139729
0.139729
0.139728
0.139734
0.139742
0.139811
0.13979
0.139789
0.139787
0.139785
0.139784
0.139784
0.139783
0.139784
0.139784
0.139786
0.139788
0.139791
0.139795
0.139799
0.139805
0.139813
0.139823
0.139834
0.139841
0.139838
0.139814
0.139773
0.139772
0.139807
0.139831
0.139834
0.139826
0.139814
0.139803
0.139796
0.139789
0.139786
0.139784
0.139783
0.139782
0.13978
0.139779
0.139778
0.139776
0.139775
0.139774
0.139773
0.139773
0.139773
0.139773
0.139774
0.139775
0.139777
0.139778
0.139779
0.13978
0.139781
0.139781
0.139781
0.139781
0.13978
0.139779
0.139777
0.139776
0.139774
0.139772
0.13977
0.139768
0.139766
0.139764
0.139763
0.139761
0.139759
0.139757
0.139755
0.139752
0.139749
0.139745
0.139741
0.139737
0.139732
0.139726
0.139721
0.139714
0.139708
0.1397
0.139693
0.139685
0.139676
0.139668
0.139659
0.139649
0.13964
0.139629
0.13962
0.139615
0.139612
0.13961
0.139608
0.139607
0.139607
0.139607
0.139611
0.139616
0.139741
0.139714
0.139719
0.139721
0.139723
0.139724
0.139724
0.139725
0.139726
0.139729
0.139735
0.139738
0.139742
0.139746
0.139751
0.139759
0.139768
0.139778
0.139789
0.139794
0.139787
0.139758
0.139711
0.139709
0.13975
0.139779
0.139786
0.13978
0.139768
0.139756
0.139748
0.13974
0.139733
0.139728
0.139724
0.139721
0.139718
0.139715
0.139713
0.139711
0.139709
0.139707
0.139705
0.139703
0.139702
0.1397
0.139699
0.139699
0.139698
0.139698
0.139698
0.139698
0.139698
0.139698
0.139698
0.139697
0.139696
0.139695
0.139693
0.139691
0.139688
0.139686
0.139683
0.13968
0.139677
0.139673
0.13967
0.139666
0.139662
0.139658
0.139654
0.139649
0.139644
0.13964
0.139634
0.139629
0.139623
0.139616
0.139609
0.139602
0.139594
0.139585
0.139577
0.139567
0.139558
0.139548
0.139538
0.139527
0.139516
0.139505
0.139498
0.139493
0.13949
0.139487
0.139485
0.139484
0.139484
0.139483
0.139487
0.139494
0.139676
0.139656
0.139664
0.139667
0.13967
0.139671
0.139672
0.139674
0.139677
0.139682
0.139688
0.139692
0.139695
0.1397
0.139706
0.139715
0.139724
0.139734
0.139742
0.139744
0.13973
0.139693
0.139638
0.139635
0.139683
0.13972
0.139733
0.139731
0.139721
0.13971
0.1397
0.139691
0.139683
0.139675
0.139668
0.139662
0.139657
0.139653
0.13965
0.139647
0.139644
0.139641
0.139637
0.139634
0.13963
0.139626
0.139623
0.139619
0.139616
0.139614
0.139611
0.139609
0.139607
0.139605
0.139603
0.139601
0.139599
0.139597
0.139594
0.139592
0.139589
0.139585
0.139582
0.139578
0.139574
0.13957
0.139565
0.13956
0.139555
0.13955
0.139544
0.139538
0.139532
0.139525
0.139519
0.139512
0.139504
0.139497
0.139488
0.13948
0.13947
0.139461
0.139451
0.13944
0.13943
0.139419
0.139407
0.139395
0.139383
0.13937
0.139359
0.139352
0.139347
0.139343
0.13934
0.139338
0.139337
0.139336
0.139339
0.139345
0.139625
0.139609
0.139616
0.139619
0.139622
0.139624
0.139626
0.13963
0.139634
0.139639
0.139645
0.139648
0.139652
0.139657
0.139663
0.139671
0.139679
0.139687
0.13969
0.139684
0.139661
0.139614
0.139553
0.139549
0.139599
0.139647
0.13967
0.139674
0.139669
0.139659
0.139649
0.139639
0.139629
0.139619
0.13961
0.139602
0.139595
0.13959
0.139585
0.139581
0.139577
0.139573
0.139569
0.139564
0.139559
0.139554
0.139548
0.139542
0.139537
0.139531
0.139525
0.13952
0.139514
0.139509
0.139504
0.139499
0.139495
0.13949
0.139486
0.139481
0.139476
0.139472
0.139467
0.139462
0.139457
0.139451
0.139446
0.13944
0.139434
0.139427
0.13942
0.139413
0.139406
0.139398
0.139389
0.139381
0.139372
0.139363
0.139353
0.139343
0.139332
0.139321
0.139309
0.139297
0.139285
0.139273
0.13926
0.139246
0.139233
0.139219
0.139207
0.1392
0.139194
0.13919
0.139187
0.139185
0.139184
0.139183
0.139186
0.139192
0.139593
0.13958
0.139585
0.139589
0.139592
0.139596
0.139599
0.139604
0.139608
0.139613
0.139617
0.13962
0.139623
0.139627
0.139632
0.139637
0.139641
0.139641
0.139635
0.139616
0.139579
0.139517
0.139451
0.139444
0.139489
0.139553
0.13959
0.139607
0.13961
0.139605
0.139599
0.139589
0.139579
0.139568
0.139558
0.139547
0.139538
0.139532
0.139526
0.139521
0.139516
0.13951
0.139505
0.1395
0.139494
0.139487
0.13948
0.139472
0.139463
0.139454
0.139445
0.139436
0.139426
0.139417
0.139407
0.139398
0.139389
0.139381
0.139373
0.139365
0.139357
0.139349
0.139341
0.139334
0.139326
0.139318
0.13931
0.139303
0.139295
0.139287
0.139278
0.13927
0.13926
0.139251
0.139241
0.139231
0.13922
0.139209
0.139197
0.139185
0.139173
0.13916
0.139146
0.139132
0.139118
0.139104
0.139089
0.139074
0.139058
0.139043
0.139027
0.139012
0.139
0.138991
0.138984
0.138979
0.138976
0.138971
0.138973
0.138978
0.139552
0.139538
0.139544
0.139551
0.139558
0.139564
0.139571
0.139577
0.139583
0.139588
0.139594
0.139598
0.139601
0.139604
0.139605
0.139605
0.139601
0.139589
0.139568
0.139531
0.139474
0.139394
0.139328
0.139319
0.13936
0.139442
0.139499
0.139533
0.13955
0.139556
0.139556
0.139551
0.139542
0.139532
0.139522
0.139512
0.139501
0.139492
0.139483
0.139475
0.139467
0.13946
0.139453
0.139446
0.139439
0.139431
0.139422
0.139412
0.139401
0.139389
0.139377
0.139364
0.13935
0.139335
0.13932
0.139306
0.139292
0.139278
0.139264
0.139251
0.139238
0.139226
0.139214
0.139201
0.139189
0.139178
0.139166
0.139154
0.139143
0.139131
0.13912
0.139108
0.139097
0.139085
0.139072
0.139059
0.139046
0.139032
0.139018
0.139004
0.138989
0.138973
0.138958
0.138942
0.138925
0.138909
0.138892
0.138875
0.138857
0.138839
0.138823
0.13881
0.1388
0.138793
0.138789
0.138785
0.138783
0.138781
0.138783
0.138786
0.139534
0.139524
0.139529
0.139536
0.139544
0.139551
0.139559
0.139566
0.139572
0.139578
0.139585
0.13959
0.139592
0.139593
0.139589
0.139581
0.139565
0.139539
0.139498
0.139439
0.139358
0.139259
0.139185
0.13917
0.139207
0.139293
0.139369
0.139424
0.13946
0.139482
0.139494
0.139497
0.139494
0.139486
0.139476
0.139465
0.139453
0.13944
0.139427
0.139414
0.139402
0.13939
0.139377
0.139365
0.139354
0.139343
0.139331
0.139317
0.139303
0.139287
0.139271
0.139254
0.139236
0.139219
0.139202
0.139185
0.139168
0.139152
0.139135
0.139119
0.139103
0.139087
0.139071
0.139055
0.139039
0.139023
0.139007
0.138992
0.138976
0.13896
0.138945
0.138929
0.138914
0.138898
0.138882
0.138865
0.138848
0.138831
0.138813
0.138795
0.138777
0.138758
0.138738
0.138719
0.138699
0.138679
0.138659
0.138638
0.138618
0.138597
0.138575
0.138554
0.138533
0.138513
0.138497
0.138484
0.138473
0.138463
0.13846
0.13846
0.139423
0.139398
0.139406
0.13942
0.139434
0.139447
0.139459
0.139469
0.13948
0.139491
0.139506
0.139513
0.139516
0.139514
0.139505
0.139486
0.139456
0.139409
0.139345
0.13926
0.139158
0.139055
0.138998
0.138989
0.13903
0.139126
0.139224
0.139303
0.139362
0.139404
0.139433
0.139447
0.139452
0.139449
0.139441
0.13943
0.139418
0.139404
0.139389
0.139373
0.139357
0.13934
0.139322
0.139304
0.139287
0.139269
0.139251
0.139234
0.139216
0.139196
0.139175
0.139153
0.139129
0.139105
0.139081
0.139057
0.139035
0.139013
0.138991
0.13897
0.138948
0.138927
0.138906
0.138886
0.138866
0.138845
0.138825
0.138804
0.138784
0.138763
0.138743
0.138722
0.138701
0.138681
0.138659
0.138638
0.138616
0.138593
0.138571
0.138548
0.138525
0.138502
0.138479
0.138456
0.138433
0.138409
0.138386
0.138362
0.138338
0.138315
0.138294
0.138277
0.138265
0.138256
0.138249
0.138244
0.138241
0.138238
0.138242
0.138216
0.13945
0.139438
0.139443
0.139453
0.139463
0.139473
0.139483
0.139492
0.1395
0.13951
0.139518
0.13952
0.139515
0.139501
0.139477
0.139439
0.139385
0.139313
0.139222
0.139113
0.138992
0.138869
0.138782
0.138752
0.138773
0.138829
0.138902
0.138981
0.139055
0.13912
0.139176
0.13921
0.139226
0.139229
0.139222
0.13921
0.139194
0.139175
0.139155
0.139136
0.139114
0.139092
0.139071
0.139051
0.139032
0.139013
0.138995
0.138977
0.13896
0.138943
0.138927
0.138909
0.138891
0.138872
0.138852
0.138831
0.13881
0.138788
0.138766
0.138743
0.138719
0.138694
0.13867
0.138646
0.138621
0.138597
0.138572
0.138547
0.138522
0.138497
0.138471
0.138445
0.138419
0.138393
0.138367
0.13834
0.138313
0.138286
0.138258
0.138231
0.138204
0.138176
0.138148
0.138121
0.138093
0.138065
0.138036
0.138008
0.137979
0.13795
0.137921
0.137891
0.137861
0.13783
0.1378
0.13777
0.137743
0.137717
0.137702
0.137663
0.139089
0.139041
0.13904
0.139048
0.139056
0.139063
0.139069
0.139073
0.139076
0.139077
0.139073
0.139065
0.139049
0.139023
0.138986
0.138936
0.138872
0.138795
0.138708
0.138616
0.138527
0.138453
0.138408
0.138407
0.138448
0.138535
0.13865
0.138757
0.138853
0.138937
0.139011
0.139065
0.139101
0.139122
0.139131
0.139129
0.139121
0.139107
0.139088
0.139066
0.139042
0.139015
0.138987
0.138957
0.138925
0.138892
0.138857
0.138822
0.138785
0.138748
0.138711
0.138674
0.138639
0.138604
0.138571
0.13854
0.13851
0.13848
0.138451
0.138422
0.138394
0.138365
0.138336
0.138306
0.138277
0.138247
0.138217
0.138186
0.138156
0.138125
0.138094
0.138062
0.13803
0.137998
0.137965
0.137933
0.1379
0.137866
0.137834
0.137801
0.137769
0.137736
0.137704
0.137671
0.137639
0.137606
0.137573
0.13754
0.137507
0.137475
0.137449
0.13743
0.137416
0.137405
0.137398
0.137393
0.137389
0.137387
0.137386
0.137352
0.13914
0.13912
0.139114
0.139114
0.139114
0.139112
0.139109
0.139103
0.139094
0.139081
0.139064
0.13904
0.139006
0.138961
0.138907
0.138841
0.138763
0.138674
0.138576
0.138469
0.138354
0.138232
0.138106
0.137996
0.137955
0.137962
0.138003
0.138064
0.138131
0.138197
0.138259
0.138313
0.138356
0.138388
0.13841
0.138424
0.13843
0.138429
0.138423
0.138411
0.138396
0.138378
0.138356
0.138333
0.138307
0.138279
0.13825
0.13822
0.138189
0.138156
0.138123
0.138089
0.138055
0.138021
0.137987
0.137953
0.137918
0.137884
0.137851
0.137818
0.137785
0.137752
0.13772
0.137687
0.137654
0.13762
0.137586
0.137552
0.137517
0.137482
0.137447
0.137412
0.137377
0.137342
0.137306
0.13727
0.137235
0.137198
0.137162
0.137125
0.137089
0.137052
0.137014
0.136976
0.136937
0.136898
0.136859
0.136818
0.136777
0.136736
0.136694
0.136652
0.136609
0.136565
0.136519
0.136474
0.136427
0.136379
0.136328
0.136286
0.138023
0.138026
0.138024
0.138018
0.138008
0.137997
0.137981
0.137962
0.137936
0.137903
0.137865
0.137822
0.137773
0.137719
0.137658
0.137592
0.137521
0.137447
0.137372
0.137298
0.137231
0.137178
0.137152
0.137174
0.137267
0.137404
0.137536
0.137657
0.137767
0.137866
0.137951
0.138021
0.138077
0.138121
0.138155
0.138179
0.138193
0.138198
0.138196
0.138185
0.138168
0.138144
0.138114
0.138078
0.138036
0.137987
0.137932
0.137872
0.137805
0.137731
0.13765
0.137565
0.137479
0.137396
0.137316
0.137242
0.137171
0.137106
0.137044
0.136985
0.136929
0.136877
0.136827
0.136778
0.13673
0.136682
0.136635
0.136588
0.136541
0.136495
0.136448
0.136401
0.136354
0.136307
0.13626
0.136212
0.136165
0.136118
0.136072
0.136025
0.13598
0.135934
0.135888
0.135842
0.135796
0.135748
0.135701
0.135653
0.135604
0.135557
0.135516
0.135486
0.135466
0.135454
0.135446
0.135441
0.135439
0.135437
0.135438
0.135454
0.138222
0.138194
0.13817
0.138148
0.138126
0.138103
0.138079
0.138051
0.13802
0.137987
0.137955
0.13792
0.137879
0.137831
0.137779
0.137723
0.137665
0.137605
0.137545
0.137487
0.13743
0.137378
0.13733
0.137285
0.137238
0.137177
0.137092
0.136974
0.136825
0.136677
0.136581
0.136531
0.136507
0.136496
0.136493
0.136494
0.136495
0.136492
0.136486
0.136477
0.136465
0.136446
0.136422
0.136392
0.136355
0.136313
0.136266
0.136215
0.136158
0.136096
0.136029
0.135957
0.135883
0.135806
0.135728
0.13565
0.135573
0.135496
0.135421
0.135347
0.135275
0.135206
0.135142
0.135079
0.135017
0.134955
0.134893
0.134831
0.13477
0.13471
0.134649
0.134588
0.134528
0.134468
0.134407
0.134345
0.134282
0.13422
0.134157
0.134093
0.134028
0.133963
0.133896
0.133827
0.133757
0.133686
0.133613
0.133539
0.133462
0.133384
0.133304
0.133222
0.133139
0.133055
0.13297
0.132884
0.132794
0.132704
0.132625
0.132632
0.135474
0.135686
0.135767
0.135765
0.135712
0.135629
0.135521
0.135393
0.135242
0.135067
0.134887
0.134714
0.134545
0.13438
0.134219
0.134061
0.133907
0.133759
0.13362
0.133491
0.133374
0.133272
0.133189
0.133126
0.133085
0.133065
0.133063
0.133069
0.133069
0.133057
0.133024
0.132966
0.132872
0.13276
0.132632
0.132491
0.132339
0.13218
0.13202
0.131855
0.131698
0.131555
0.13143
0.131323
0.131231
0.131148
0.131071
0.130999
0.130931
0.130862
0.130793
0.130722
0.130649
0.130575
0.130499
0.130421
0.130342
0.130263
0.130183
0.130104
0.130023
0.129945
0.12988
0.129805
0.129728
0.12965
0.129571
0.129492
0.129413
0.129335
0.129259
0.129185
0.129113
0.129041
0.128971
0.128901
0.128833
0.128764
0.128695
0.128625
0.128554
0.128484
0.128412
0.128339
0.128265
0.128191
0.128118
0.12805
0.127994
0.127961
0.127957
0.127981
0.128029
0.128091
0.128168
0.128257
0.128356
0.128471
0.128625
0.128884
0.137643
0.136843
0.136483
0.136372
0.136294
0.136155
0.135929
0.135611
0.135209
0.134762
0.134646
0.13388
0.133161
0.132541
0.131983
0.131462
0.130963
0.130475
0.12999
0.129503
0.129011
0.128512
0.128004
0.127487
0.12696
0.126423
0.125877
0.125323
0.124761
0.124202
0.123782
0.12411
0.123922
0.12371
0.123469
0.123196
0.122892
0.122559
0.1222
0.121817
0.121412
0.12099
0.120561
0.120136
0.119721
0.11932
0.118934
0.118564
0.11821
0.117871
0.117545
0.117234
0.116934
0.116647
0.116372
0.116108
0.115857
0.115617
0.115386
0.115151
0.114866
0.114686
0.114879
0.114777
0.114659
0.11454
0.114422
0.114304
0.114189
0.114075
0.113963
0.113855
0.11375
0.11365
0.113555
0.113466
0.113384
0.11331
0.113245
0.113189
0.113144
0.11311
0.113088
0.113079
0.113083
0.1131
0.11313
0.113173
0.113229
0.113298
0.113379
0.113473
0.113578
0.113693
0.113818
0.113955
0.114117
0.114356
0.114864
0.116105
0.169107
0.180736
0.19289
0.204816
0.216444
0.227773
0.238806
0.249546
0.259996
0.270159
0.280037
0.289632
0.298945
0.307977
0.316729
0.325202
0.333419
0.341329
0.348957
0.356314
0.363404
0.370228
0.376788
0.383087
0.389129
0.394918
0.400458
0.405754
0.41081
0.415632
0.420225
0.424595
0.428651
0.432367
0.436072
0.439584
0.442901
0.446025
0.448963
0.451721
0.454303
0.456717
0.458969
0.461067
0.463019
0.464834
0.466522
0.46782
0.468864
0.470209
0.47148
0.472675
0.473807
0.474896
0.475963
0.477037
0.47815
0.479341
0.48066
0.481541
0.482668
0.484844
0.487478
0.490662
0.494534
0.499252
0.504996
0.510188
0.519549
0.529329
0.140141
0.139914
0.139657
0.139392
0.139123
0.138855
0.13859
0.138332
0.138084
0.13785
0.137631
0.13743
0.13725
0.137094
0.13696
0.136851
0.136769
0.136709
0.136671
0.136658
0.13667
0.136706
0.136767
0.136852
0.13696
0.137091
0.137244
0.137417
0.137609
0.137817
0.138042
0.138282
0.138513
0.138722
0.138974
0.139234
0.139495
0.139753
0.140006
0.14025
0.140483
0.140703
0.140908
0.141095
0.141264
0.141416
0.141553
0.141608
0.141599
0.141663
0.141715
0.141745
0.141753
0.141739
0.141704
0.14165
0.141581
0.141503
0.141431
0.1412
0.140948
0.140872
0.14082
0.14078
0.140765
0.1408
0.140941
0.140692
0.14149
0.142654
0.140627
0.140608
0.140586
0.140561
0.140535
0.140505
0.14047
0.140431
0.140386
0.140336
0.140281
0.140221
0.140156
0.140087
0.140013
0.139936
0.139854
0.139769
0.139679
0.139585
0.139487
0.139386
0.13928
0.139171
0.139058
0.138942
0.138823
0.138701
0.138577
0.13845
0.138321
0.138191
0.138057
0.13792
0.137781
0.137641
0.1375
0.137358
0.137214
0.13707
0.136925
0.136779
0.136632
0.136483
0.136332
0.136179
0.136023
0.135861
0.13569
0.135515
0.135336
0.135153
0.134966
0.134774
0.134578
0.134377
0.13417
0.133957
0.133735
0.1335
0.133249
0.132987
0.132719
0.132444
0.132163
0.131874
0.131577
0.131262
0.130947
0.130666
0.140092
0.140095
0.140099
0.140106
0.140114
0.140124
0.140136
0.140147
0.140159
0.14017
0.140182
0.140193
0.140204
0.140216
0.140228
0.14024
0.140253
0.140266
0.140279
0.140292
0.140306
0.14032
0.140333
0.140347
0.140361
0.140374
0.140388
0.140402
0.140416
0.140431
0.140445
0.140461
0.140478
0.140495
0.140515
0.140535
0.140558
0.140582
0.14061
0.140639
0.140672
0.140708
0.140747
0.140789
0.140835
0.140884
0.140935
0.140989
0.141047
0.141107
0.141169
0.141234
0.141301
0.14137
0.14144
0.141511
0.141582
0.141652
0.141718
0.141784
0.141847
0.141903
0.141955
0.142002
0.142043
0.142076
0.142097
0.14212
0.142106
0.142078
0.13976
0.13977
0.139782
0.139796
0.139812
0.139829
0.139847
0.139865
0.139884
0.139904
0.139924
0.139944
0.139965
0.139986
0.140008
0.140031
0.140054
0.140077
0.140101
0.140125
0.14015
0.140175
0.1402
0.140225
0.140251
0.140276
0.140302
0.140329
0.140356
0.140383
0.14041
0.140439
0.140468
0.140498
0.140529
0.140562
0.140597
0.140633
0.140671
0.140712
0.140755
0.1408
0.140849
0.1409
0.140954
0.141011
0.14107
0.141131
0.141197
0.141266
0.141338
0.141413
0.141491
0.141572
0.141655
0.14174
0.141825
0.141911
0.141995
0.142078
0.142162
0.142246
0.142329
0.142409
0.142484
0.142552
0.142612
0.142665
0.142705
0.142726
0.139638
0.139649
0.139662
0.139676
0.139691
0.139707
0.139723
0.13974
0.139758
0.139776
0.139794
0.139812
0.139831
0.139851
0.139871
0.139892
0.139913
0.139934
0.139956
0.139978
0.140001
0.140024
0.140047
0.14007
0.140094
0.140118
0.140143
0.140168
0.140193
0.140219
0.140246
0.140273
0.140302
0.140331
0.140361
0.140393
0.140427
0.140462
0.140499
0.140538
0.14058
0.140623
0.140669
0.140718
0.140769
0.140821
0.140876
0.140932
0.140991
0.141053
0.141118
0.141185
0.141254
0.141326
0.141399
0.141473
0.141548
0.141622
0.141694
0.141764
0.141834
0.141906
0.141976
0.142043
0.142106
0.142163
0.142211
0.142252
0.142283
0.142298
0.139517
0.139529
0.139542
0.139556
0.139572
0.139588
0.139604
0.139621
0.139638
0.139656
0.139674
0.139692
0.13971
0.139729
0.139748
0.139768
0.139788
0.139808
0.139829
0.13985
0.139871
0.139893
0.139915
0.139937
0.13996
0.139983
0.140007
0.140031
0.140055
0.14008
0.140106
0.140133
0.14016
0.140188
0.140218
0.140249
0.140282
0.140316
0.140353
0.140391
0.140432
0.140474
0.14052
0.140567
0.140617
0.140669
0.140722
0.140776
0.140834
0.140894
0.140957
0.141022
0.14109
0.14116
0.141231
0.141303
0.141376
0.141448
0.141517
0.141584
0.141653
0.141722
0.14179
0.141856
0.141917
0.141973
0.14202
0.14206
0.142089
0.142102
0.139367
0.139379
0.139392
0.139406
0.139421
0.139436
0.139452
0.139468
0.139485
0.139501
0.139518
0.139535
0.139553
0.139571
0.139589
0.139608
0.139627
0.139647
0.139667
0.139688
0.139708
0.13973
0.139752
0.139774
0.139797
0.13982
0.139844
0.139869
0.139895
0.139921
0.139949
0.139977
0.140006
0.140037
0.140069
0.140103
0.140139
0.140176
0.140216
0.140257
0.140301
0.140347
0.140395
0.140445
0.140497
0.140551
0.140606
0.140662
0.140719
0.14078
0.140843
0.140908
0.140975
0.141043
0.141113
0.141184
0.141255
0.141324
0.141391
0.141454
0.14152
0.141587
0.141652
0.141716
0.141775
0.141829
0.141874
0.141913
0.141942
0.141954
0.139213
0.139224
0.139236
0.13925
0.139264
0.139278
0.139293
0.139309
0.139324
0.13934
0.139356
0.139372
0.139388
0.139405
0.139422
0.13944
0.139458
0.139477
0.139496
0.139516
0.139536
0.139557
0.139578
0.1396
0.139623
0.139647
0.139671
0.139697
0.139723
0.139751
0.13978
0.13981
0.139841
0.139873
0.139907
0.139943
0.139981
0.140021
0.140063
0.140107
0.140153
0.140201
0.140252
0.140305
0.140359
0.140415
0.140472
0.140529
0.140588
0.140651
0.140715
0.140782
0.14085
0.14092
0.140992
0.141064
0.141137
0.141208
0.141276
0.141341
0.141408
0.141476
0.141544
0.14161
0.141672
0.141728
0.141775
0.141816
0.141847
0.141858
0.138997
0.139008
0.13902
0.139034
0.139047
0.139062
0.139076
0.139091
0.139107
0.139122
0.139138
0.139154
0.139171
0.139188
0.139206
0.139224
0.139243
0.139263
0.139283
0.139304
0.139326
0.139349
0.139373
0.139398
0.139424
0.139451
0.139479
0.139509
0.139541
0.139574
0.139609
0.139645
0.139682
0.139721
0.139763
0.139806
0.139852
0.139899
0.139949
0.14
0.140054
0.14011
0.140167
0.140227
0.140287
0.140348
0.140409
0.140469
0.14053
0.140595
0.14066
0.140727
0.140795
0.140863
0.140933
0.141002
0.141072
0.141139
0.141202
0.141262
0.141324
0.141388
0.141451
0.141512
0.14157
0.141622
0.141665
0.141703
0.141731
0.141741
0.138801
0.138811
0.138823
0.138835
0.138848
0.138861
0.138875
0.138889
0.138904
0.138918
0.138933
0.138949
0.138965
0.138982
0.138999
0.139017
0.139036
0.139056
0.139077
0.139099
0.139121
0.139145
0.139171
0.139197
0.139226
0.139255
0.139287
0.13932
0.139356
0.139393
0.139432
0.139472
0.139513
0.139556
0.139602
0.13965
0.139699
0.139751
0.139804
0.139858
0.139915
0.139973
0.140033
0.140094
0.140156
0.140218
0.140279
0.140339
0.140401
0.140465
0.140531
0.140598
0.140666
0.140736
0.140807
0.14088
0.140952
0.141022
0.141089
0.141153
0.141219
0.141289
0.141359
0.141428
0.141494
0.141554
0.141604
0.141649
0.141685
0.1417
0.138472
0.138482
0.138493
0.138506
0.13852
0.138535
0.13855
0.138566
0.138582
0.138598
0.138615
0.138633
0.138652
0.138671
0.138692
0.138713
0.138736
0.13876
0.138785
0.138811
0.138839
0.138869
0.138901
0.138934
0.13897
0.139007
0.139047
0.13909
0.139135
0.139182
0.139231
0.139282
0.139334
0.139388
0.139445
0.139504
0.139565
0.139628
0.139693
0.139759
0.139827
0.139896
0.139967
0.140038
0.14011
0.140181
0.14025
0.140317
0.140385
0.140454
0.140524
0.140595
0.140666
0.140737
0.140808
0.140879
0.140949
0.141015
0.141077
0.141134
0.141193
0.141255
0.141316
0.141376
0.141432
0.141482
0.141522
0.141559
0.141587
0.141598
0.138216
0.138226
0.138237
0.138249
0.138263
0.138277
0.138292
0.138307
0.138322
0.138338
0.138354
0.138371
0.138389
0.138408
0.138428
0.138449
0.138472
0.138497
0.138523
0.138551
0.138582
0.138615
0.13865
0.138688
0.138729
0.138772
0.138818
0.138867
0.138918
0.138973
0.139029
0.139086
0.139145
0.139205
0.139268
0.139333
0.139399
0.139466
0.139535
0.139605
0.139677
0.139749
0.139821
0.139894
0.139967
0.140039
0.140108
0.140174
0.140242
0.140311
0.140381
0.140451
0.140522
0.140594
0.140666
0.140739
0.14081
0.14088
0.140944
0.141005
0.141068
0.141136
0.141205
0.141273
0.141338
0.141398
0.141448
0.141494
0.141532
0.141547
0.137662
0.137673
0.137687
0.137703
0.137719
0.137737
0.137755
0.137773
0.137792
0.137812
0.137834
0.137856
0.13788
0.137905
0.137933
0.137963
0.137994
0.138029
0.138066
0.138105
0.138148
0.138194
0.138243
0.138295
0.138351
0.138411
0.138474
0.138541
0.13861
0.138683
0.138758
0.138833
0.138909
0.138986
0.139066
0.139147
0.139229
0.139311
0.139394
0.139478
0.139561
0.139644
0.139727
0.13981
0.139892
0.139971
0.140047
0.140118
0.14019
0.140264
0.140338
0.140413
0.140488
0.140564
0.140639
0.140715
0.14079
0.140862
0.140927
0.140988
0.141052
0.14112
0.141189
0.141256
0.14132
0.141378
0.141424
0.141466
0.1415
0.141513
0.137342
0.137348
0.137354
0.137361
0.137368
0.137377
0.137388
0.1374
0.137413
0.137428
0.137446
0.137465
0.137487
0.137511
0.137539
0.137569
0.137603
0.137641
0.137682
0.137727
0.137775
0.137827
0.137884
0.137944
0.138007
0.138075
0.138145
0.138219
0.138296
0.138374
0.138454
0.138534
0.138613
0.138692
0.138772
0.138853
0.138934
0.139014
0.139093
0.139173
0.139251
0.139329
0.139407
0.139483
0.139559
0.139633
0.139704
0.139772
0.139841
0.139913
0.139987
0.140064
0.140143
0.140225
0.14031
0.140398
0.140488
0.140577
0.140661
0.14074
0.140826
0.140921
0.14102
0.14112
0.14122
0.141313
0.14139
0.141461
0.141526
0.141553
0.136271
0.13628
0.136287
0.136289
0.136286
0.136284
0.136284
0.136288
0.136297
0.136311
0.136332
0.136358
0.136393
0.136435
0.136486
0.136545
0.136608
0.136676
0.136747
0.136822
0.1369
0.136983
0.137069
0.13716
0.137253
0.137351
0.137451
0.137554
0.137658
0.137764
0.137871
0.137976
0.138077
0.138178
0.138281
0.138382
0.138483
0.138583
0.138682
0.138781
0.138878
0.138976
0.139073
0.13917
0.139267
0.139361
0.139451
0.139538
0.139625
0.139717
0.139811
0.139908
0.140006
0.140108
0.140211
0.140316
0.140421
0.140523
0.140616
0.140703
0.140794
0.140893
0.140994
0.141096
0.141193
0.141282
0.141352
0.141416
0.141469
0.141485
0.135433
0.135451
0.135471
0.135491
0.135511
0.13553
0.135549
0.13557
0.135591
0.135614
0.135637
0.135662
0.135688
0.135714
0.135741
0.135768
0.135796
0.135824
0.135853
0.135884
0.135921
0.135968
0.136024
0.136089
0.136163
0.136246
0.136337
0.136437
0.136544
0.136659
0.136779
0.136901
0.137023
0.137144
0.137269
0.13739
0.137507
0.137619
0.137728
0.137832
0.137934
0.138032
0.138129
0.138224
0.138318
0.138409
0.138495
0.138577
0.13866
0.13875
0.138846
0.138947
0.139055
0.139172
0.139298
0.139432
0.139574
0.139718
0.139856
0.139985
0.140128
0.14029
0.140464
0.140645
0.140827
0.140998
0.141137
0.141263
0.14138
0.141416
0.132585
0.132633
0.132693
0.132757
0.132822
0.132888
0.132955
0.133023
0.13309
0.133157
0.133221
0.133281
0.133337
0.133386
0.133429
0.133463
0.133488
0.133503
0.13351
0.133507
0.133499
0.133489
0.133483
0.133484
0.133492
0.133506
0.133527
0.133554
0.133586
0.133623
0.133665
0.133712
0.133761
0.133813
0.133872
0.133938
0.13401
0.134089
0.134177
0.134273
0.134379
0.134495
0.134623
0.134763
0.134916
0.135077
0.135241
0.135403
0.135574
0.135766
0.135975
0.136204
0.136455
0.136729
0.137029
0.137352
0.137693
0.13803
0.138334
0.138605
0.138892
0.13921
0.139534
0.139857
0.140169
0.140453
0.140677
0.140873
0.141067
0.14114
0.128731
0.128937
0.129187
0.129447
0.129712
0.129983
0.130259
0.130541
0.130828
0.131121
0.131418
0.13172
0.132025
0.132332
0.132641
0.132951
0.133261
0.133568
0.133872
0.134172
0.134468
0.13476
0.135048
0.13533
0.135606
0.135876
0.13614
0.136397
0.136646
0.136887
0.137119
0.137337
0.137537
0.137724
0.137911
0.138092
0.138266