1.45 	0 	0 	-0.0080925 	-0.00257115 	3.78633e-21
2.35 	0 	0 	0.0613893 	-0.0066333 	2.29098e-21
