1.45 	0 	0 	-0.299723
2.35 	0 	0 	-0.133202
