/*--------------------------------*- C++ -*----------------------------------*\
  =========                 |
  \\      /  F ield         | OpenFOAM: The Open Source CFD Toolbox
   \\    /   O peration     | Website:  https://openfoam.org
    \\  /    A nd           | Version:  6.0
     \\/     M anipulation  |
\*---------------------------------------------------------------------------*/
FoamFile
{
    version     2.0;
    format      ascii;
    class       volScalarField;
    location    "25";
    object      p;
}
// * * * * * * * * * * * * * * * * * * * * * * * * * * * * * * * * * * * * * //

dimensions      [0 2 -2 0 0 0 0];

internalField   nonuniform List<scalar> 
8000
(
-0.315962
-0.320227
-0.322723
-0.32419
-0.325066
-0.325427
-0.325351
-0.324919
-0.324198
-0.323241
-0.322096
-0.320801
-0.319391
-0.317893
-0.316335
-0.314739
-0.313123
-0.311474
-0.309792
-0.308399
-0.316624
-0.320841
-0.323297
-0.324725
-0.325563
-0.325886
-0.325773
-0.325305
-0.324549
-0.323558
-0.32238
-0.321052
-0.31961
-0.318081
-0.316493
-0.31487
-0.313228
-0.311554
-0.309846
-0.308444
-0.317949
-0.322072
-0.324446
-0.325797
-0.326558
-0.326805
-0.326617
-0.326077
-0.32525
-0.324191
-0.322944
-0.321551
-0.320045
-0.318455
-0.316807
-0.315128
-0.313434
-0.311708
-0.309949
-0.308527
-0.319941
-0.32392
-0.326171
-0.327404
-0.328049
-0.328181
-0.327882
-0.327233
-0.3263
-0.325136
-0.323788
-0.322295
-0.320692
-0.319007
-0.317269
-0.315504
-0.31373
-0.311926
-0.310089
-0.30864
-0.322608
-0.326391
-0.328474
-0.329549
-0.330036
-0.330015
-0.329566
-0.32877
-0.327694
-0.326391
-0.324906
-0.323278
-0.321544
-0.319732
-0.31787
-0.315987
-0.314103
-0.312191
-0.310248
-0.308766
-0.325958
-0.32949
-0.331357
-0.332232
-0.33252
-0.332304
-0.331666
-0.330687
-0.329431
-0.327952
-0.326293
-0.324496
-0.322594
-0.320618
-0.318598
-0.316564
-0.314536
-0.312484
-0.310404
-0.308882
-0.330001
-0.333221
-0.334825
-0.335453
-0.335498
-0.335047
-0.334181
-0.33298
-0.331507
-0.329815
-0.327946
-0.325941
-0.323834
-0.321656
-0.319439
-0.317215
-0.315009
-0.312779
-0.310526
-0.308962
-0.334752
-0.337592
-0.338878
-0.339212
-0.33897
-0.338241
-0.337108
-0.335647
-0.33392
-0.331977
-0.329862
-0.32761
-0.325258
-0.322838
-0.320381
-0.317925
-0.315496
-0.313045
-0.31058
-0.308967
-0.340224
-0.34261
-0.343519
-0.34351
-0.342934
-0.341884
-0.340443
-0.338685
-0.336667
-0.334438
-0.332038
-0.329501
-0.326863
-0.324155
-0.321412
-0.318675
-0.315974
-0.313249
-0.310521
-0.308853
-0.346432
-0.348279
-0.348748
-0.348342
-0.347384
-0.345971
-0.344184
-0.342091
-0.339749
-0.337198
-0.334476
-0.331616
-0.328648
-0.325605
-0.322523
-0.319449
-0.316416
-0.313352
-0.310297
-0.308561
-0.35339
-0.354603
-0.354563
-0.353705
-0.352317
-0.350497
-0.348325
-0.345865
-0.343164
-0.34026
-0.337183
-0.33396
-0.33062
-0.327192
-0.323712
-0.320235
-0.316796
-0.31331
-0.309844
-0.308014
-0.361105
-0.361579
-0.360956
-0.359589
-0.357721
-0.355454
-0.352862
-0.350003
-0.346916
-0.34363
-0.340168
-0.336549
-0.332794
-0.328928
-0.324987
-0.321028
-0.317092
-0.313077
-0.309083
-0.30711
-0.369579
-0.369199
-0.367916
-0.365981
-0.363586
-0.360831
-0.357787
-0.354502
-0.351006
-0.347318
-0.343447
-0.339404
-0.335197
-0.330842
-0.326369
-0.321838
-0.317291
-0.312606
-0.30792
-0.305715
-0.378801
-0.377447
-0.375424
-0.372863
-0.369892
-0.366612
-0.363088
-0.359357
-0.355438
-0.351334
-0.347044
-0.342559
-0.337872
-0.332983
-0.327908
-0.322702
-0.317405
-0.311859
-0.306241
-0.303646
-0.388748
-0.386297
-0.383453
-0.380209
-0.376617
-0.37278
-0.368753
-0.364563
-0.360213
-0.355695
-0.350987
-0.34606
-0.340884
-0.335431
-0.329691
-0.323701
-0.317482
-0.31082
-0.303909
-0.300643
-0.399378
-0.395708
-0.391967
-0.387986
-0.383733
-0.379309
-0.374763
-0.370108
-0.365335
-0.360418
-0.355316
-0.349974
-0.34433
-0.338316
-0.331874
-0.325
-0.317667
-0.309546
-0.300804
-0.296398
-0.41063
-0.405629
-0.400921
-0.396155
-0.391205
-0.386171
-0.381096
-0.37598
-0.370803
-0.365522
-0.360077
-0.354387
-0.348349
-0.341841
-0.334737
-0.326952
-0.318369
-0.308447
-0.297155
-0.290805
-0.422425
-0.415998
-0.410261
-0.40467
-0.398994
-0.393332
-0.387724
-0.38216
-0.37661
-0.371022
-0.365319
-0.359396
-0.35311
-0.346277
-0.338673
-0.330099
-0.32029
-0.308281
-0.293194
-0.282785
-0.434667
-0.426738
-0.419928
-0.41348
-0.407055
-0.400754
-0.394615
-0.388622
-0.382744
-0.376925
-0.371083
-0.365101
-0.358805
-0.35194
-0.344148
-0.335026
-0.323945
-0.308797
-0.286239
-0.266073
-0.447245
-0.43777
-0.429855
-0.422529
-0.41534
-0.408395
-0.40173
-0.395332
-0.389175
-0.383219
-0.377403
-0.371634
-0.365767
-0.359558
-0.352621
-0.3444
-0.333726
-0.316776
-0.287082
-0.256729
-0.460046
-0.449007
-0.439975
-0.431761
-0.423802
-0.416207
-0.40902
-0.402232
-0.395834
-0.389815
-0.38417
-0.378898
-0.374009
-0.369543
-0.365623
-0.362533
-0.360576
-0.359948
-0.36452
-0.389336
-0.472953
-0.460361
-0.450218
-0.441119
-0.432388
-0.424144
-0.416433
-0.40925
-0.402602
-0.396505
-0.390994
-0.38613
-0.382013
-0.378814
-0.37682
-0.376469
-0.378198
-0.382871
-0.395183
-0.422489
-0.485855
-0.47175
-0.460518
-0.450547
-0.441055
-0.432164
-0.423922
-0.416329
-0.409398
-0.40316
-0.397672
-0.39302
-0.389336
-0.386811
-0.385732
-0.386457
-0.389278
-0.394829
-0.406388
-0.426657
-0.498654
-0.483092
-0.470809
-0.459992
-0.449756
-0.440227
-0.431453
-0.42343
-0.416174
-0.409722
-0.404133
-0.399498
-0.395941
-0.393636
-0.39281
-0.393709
-0.396473
-0.401503
-0.411075
-0.425574
-0.511257
-0.494312
-0.481027
-0.469401
-0.458447
-0.448295
-0.438989
-0.43052
-0.422897
-0.416153
-0.410339
-0.405532
-0.40183
-0.399361
-0.398277
-0.398708
-0.400658
-0.40437
-0.411565
-0.421474
-0.523584
-0.505334
-0.491105
-0.478714
-0.467077
-0.456322
-0.446489
-0.437557
-0.429525
-0.422415
-0.41626
-0.411113
-0.407037
-0.404107
-0.402404
-0.401964
-0.402701
-0.404769
-0.409561
-0.415634
-0.535552
-0.516082
-0.500973
-0.487867
-0.475585
-0.464252
-0.453897
-0.444486
-0.436005
-0.428457
-0.421855
-0.416223
-0.411587
-0.407976
-0.405412
-0.403865
-0.4032
-0.403534
-0.406032
-0.408837
-0.547081
-0.526472
-0.510549
-0.496781
-0.483896
-0.472009
-0.461139
-0.451235
-0.442264
-0.434211
-0.427067
-0.420826
-0.415484
-0.41103
-0.407444
-0.404656
-0.40251
-0.401113
-0.401449
-0.401432
-0.55808
-0.536413
-0.519744
-0.505369
-0.491922
-0.479506
-0.468125
-0.457709
-0.448209
-0.439588
-0.431816
-0.424865
-0.418702
-0.41329
-0.40858
-0.404482
-0.400841
-0.397763
-0.396073
-0.393601
-0.568446
-0.545801
-0.528453
-0.513527
-0.499558
-0.486636
-0.474745
-0.463799
-0.45373
-0.444483
-0.436011
-0.428265
-0.421195
-0.414746
-0.408855
-0.403424
-0.398312
-0.393627
-0.390054
-0.385448
-0.578061
-0.554518
-0.53656
-0.521136
-0.506685
-0.493275
-0.480876
-0.46938
-0.458703
-0.448778
-0.439543
-0.430935
-0.422896
-0.415361
-0.408264
-0.401509
-0.394977
-0.388776
-0.383464
-0.377013
-0.586789
-0.562432
-0.543933
-0.528065
-0.513167
-0.499288
-0.486377
-0.474311
-0.462992
-0.452343
-0.442292
-0.432774
-0.423724
-0.415079
-0.406775
-0.39873
-0.390846
-0.383231
-0.376326
-0.368296
-0.594479
-0.569398
-0.550429
-0.534169
-0.51886
-0.504526
-0.4911
-0.478443
-0.46645
-0.455038
-0.444132
-0.433668
-0.423585
-0.413826
-0.404337
-0.39505
-0.385895
-0.376975
-0.368628
-0.35926
-0.600962
-0.575255
-0.555891
-0.539292
-0.523605
-0.508829
-0.494884
-0.48162
-0.468925
-0.456718
-0.444929
-0.433499
-0.422377
-0.411518
-0.40088
-0.390417
-0.380081
-0.369967
-0.360327
-0.349843
-0.606061
-0.579835
-0.560153
-0.543269
-0.527236
-0.512033
-0.497565
-0.483677
-0.47026
-0.457236
-0.444547
-0.432145
-0.419993
-0.408062
-0.396327
-0.38476
-0.37334
-0.362149
-0.351361
-0.339963
-0.609586
-0.582959
-0.563042
-0.545927
-0.529581
-0.513965
-0.498973
-0.484451
-0.470296
-0.456443
-0.442848
-0.429481
-0.416323
-0.403361
-0.390591
-0.378005
-0.3656
-0.353447
-0.341654
-0.329527
-0.611342
-0.584445
-0.56438
-0.547088
-0.530465
-0.51445
-0.498936
-0.483774
-0.468874
-0.45419
-0.439696
-0.425384
-0.411255
-0.397318
-0.383585
-0.370068
-0.356784
-0.343785
-0.331124
-0.318435
-0.611134
-0.584108
-0.563986
-0.546576
-0.52971
-0.513315
-0.497284
-0.481483
-0.46584
-0.450333
-0.43496
-0.419736
-0.404686
-0.389838
-0.375223
-0.360871
-0.346814
-0.333084
-0.319686
-0.306586
-0.608767
-0.581762
-0.561679
-0.544211
-0.527141
-0.510386
-0.493851
-0.477419
-0.461046
-0.444735
-0.428514
-0.412424
-0.396513
-0.380829
-0.365421
-0.350335
-0.335614
-0.321266
-0.307259
-0.293883
-0.604053
-0.577229
-0.557285
-0.539821
-0.522587
-0.5055
-0.488478
-0.471434
-0.454352
-0.43727
-0.420246
-0.403347
-0.386647
-0.370212
-0.354106
-0.33839
-0.323114
-0.308262
-0.293766
-0.28024
-0.596814
-0.570339
-0.550637
-0.533241
-0.515888
-0.498498
-0.481017
-0.463386
-0.445631
-0.427822
-0.410051
-0.392415
-0.375008
-0.357915
-0.341214
-0.324975
-0.309256
-0.294011
-0.279141
-0.265577
-0.58688
-0.560927
-0.541573
-0.524311
-0.506888
-0.489235
-0.471327
-0.45315
-0.434767
-0.41629
-0.397843
-0.37955
-0.361529
-0.343881
-0.326692
-0.310042
-0.29399
-0.278462
-0.263331
-0.249832
-0.574101
-0.548848
-0.52995
-0.512892
-0.495451
-0.477579
-0.459291
-0.440616
-0.421666
-0.402591
-0.38355
-0.364695
-0.346162
-0.328067
-0.310503
-0.293555
-0.277284
-0.261581
-0.246294
-0.232953
-0.558348
-0.533974
-0.51564
-0.498858
-0.481458
-0.46342
-0.444805
-0.425695
-0.406249
-0.38666
-0.367121
-0.347807
-0.328874
-0.310447
-0.292624
-0.275495
-0.259115
-0.243346
-0.228005
-0.214906
-0.539514
-0.516198
-0.498536
-0.482104
-0.464808
-0.446666
-0.42779
-0.408318
-0.388462
-0.368456
-0.348523
-0.328866
-0.309652
-0.291013
-0.273052
-0.255858
-0.239482
-0.22375
-0.208452
-0.195673
-0.517516
-0.495434
-0.478552
-0.462546
-0.445424
-0.427247
-0.408186
-0.38844
-0.368272
-0.347956
-0.327749
-0.30787
-0.2885
-0.269776
-0.251799
-0.234658
-0.218396
-0.202806
-0.187643
-0.17525
-0.4923
-0.471625
-0.455628
-0.440127
-0.423253
-0.405121
-0.385963
-0.366041
-0.345671
-0.325166
-0.30481
-0.284841
-0.265446
-0.246766
-0.228898
-0.211926
-0.195887
-0.180539
-0.1656
-0.153652
-0.46384
-0.444738
-0.429733
-0.414816
-0.398272
-0.380272
-0.361115
-0.341128
-0.320677
-0.300113
-0.279744
-0.259821
-0.240538
-0.222032
-0.204398
-0.187713
-0.172006
-0.156998
-0.142364
-0.13091
-0.432143
-0.414775
-0.400861
-0.386612
-0.370485
-0.352713
-0.333665
-0.313734
-0.293333
-0.272848
-0.252609
-0.232875
-0.213843
-0.195647
-0.178372
-0.162089
-0.146818
-0.132247
-0.117997
-0.107076
-0.397249
-0.381764
-0.369041
-0.355544
-0.339925
-0.322486
-0.303665
-0.283919
-0.263709
-0.24345
-0.223489
-0.204091
-0.185453
-0.1677
-0.15091
-0.135144
-0.120413
-0.106372
-0.0925785
-0.0822176
-0.359229
-0.34577
-0.334332
-0.321671
-0.306657
-0.289662
-0.271194
-0.251772
-0.231899
-0.212019
-0.192487
-0.173576
-0.155475
-0.138301
-0.122121
-0.106987
-0.0928997
-0.0794799
-0.066214
-0.0564302
-0.31819
-0.306889
-0.296824
-0.285086
-0.270777
-0.254342
-0.236359
-0.217405
-0.198023
-0.178676
-0.159731
-0.141457
-0.124038
-0.10758
-0.0921373
-0.0777493
-0.0644091
-0.0517044
-0.039035
-0.0298349
-0.274274
-0.265249
-0.256644
-0.245914
-0.232412
-0.216658
-0.199296
-0.180957
-0.16222
-0.143564
-0.125361
-0.107877
-0.0912854
-0.075682
-0.0611045
-0.047581
-0.0350957
-0.0232047
-0.0112051
-0.00258677
-0.227656
-0.221013
-0.213946
-0.204308
-0.191718
-0.176767
-0.160162
-0.142588
-0.12465
-0.106841
-0.0895354
-0.0729918
-0.0573742
-0.042764
-0.0291844
-0.0166499
-0.00513638
0.00583004
0.0170727
0.0251156
-0.178546
-0.174378
-0.16892
-0.160455
-0.148879
-0.134852
-0.119142
-0.102478
-0.0854902
-0.0686811
-0.0524221
-0.036966
-0.0224656
-0.00898941
0.0034539
0.0148634
0.0252702
0.0351743
0.0455416
0.0530099
-0.127185
-0.125569
-0.121785
-0.114571
-0.104107
-0.0911233
-0.07644
-0.0608257
-0.0449311
-0.0292642
-0.014193
3.68549e-05
0.0132823
0.0254848
0.0366473
0.04678
0.0559167
0.0645744
0.0738858
0.080748
-0.0738467
-0.0748447
-0.0727892
-0.0668967
-0.0576403
-0.0458119
-0.0322792
-0.017845
-0.00317462
0.0112216
0.0249795
0.0378601
0.0497266
0.0605255
0.0702645
0.0789592
0.0866388
0.0938138
0.101782
0.107902
-0.0188333
-0.0224892
-0.0222073
-0.0177017
-0.00974023
0.000828751
0.0130972
0.026235
0.039567
0.0525837
0.0649254
0.0763577
0.0867453
0.0960309
0.104214
0.111307
0.117323
0.122691
0.128738
0.133639
0.0375262
0.0311867
0.0296608
0.0327225
0.03931
0.0485256
0.059429
0.0711701
0.08307
0.0946236
0.105477
0.115399
0.124248
0.131948
0.138466
0.143781
0.147836
0.15071
0.153285
0.155459
0.0948779
0.0858489
0.0824926
0.0840626
0.0892069
0.0969864
0.106438
0.116699
0.127096
0.137132
0.146467
0.154876
0.162217
0.168391
0.173323
0.17695
0.179044
0.178829
0.175939
0.173533
0.152846
0.141142
0.135946
0.135986
0.139629
0.145901
0.153826
0.16254
0.171378
0.179866
0.187683
0.194631
0.200592
0.205499
0.209334
0.212166
0.213894
0.213213
0.209191
0.214668
0.211061
0.196711
0.189674
0.188156
0.190246
0.194949
0.201284
0.208389
0.215619
0.222524
0.228812
0.23431
0.238935
0.242661
0.245531
0.247702
0.2492
0.249131
0.247525
0.255317
0.269125
0.252177
0.243311
0.240215
0.240715
0.243799
0.248488
0.253933
0.25951
0.264794
0.269519
0.273539
0.276794
0.279283
0.281071
0.282322
0.283066
0.282592
0.281163
0.288013
0.326638
0.307158
0.296488
0.291807
0.290689
0.292116
0.295118
0.29886
0.302744
0.306372
0.309501
0.312006
0.313845
0.315032
0.31564
0.31582
0.315594
0.314332
0.312312
0.317549
0.383206
0.361275
0.348835
0.342573
0.339824
0.339571
0.340856
0.342867
0.34503
0.346974
0.348479
0.349438
0.34982
0.349647
0.348991
0.34799
0.346652
0.344414
0.341569
0.345172
0.438436
0.414149
0.399987
0.39216
0.387781
0.385837
0.385394
0.38566
0.38609
0.386338
0.386206
0.3856
0.3845
0.382932
0.380964
0.378719
0.376193
0.372887
0.36912
0.371108
0.491947
0.465411
0.449584
0.440221
0.434226
0.430601
0.428434
0.42696
0.425663
0.424221
0.422456
0.420288
0.417705
0.414734
0.41144
0.407932
0.4042
0.399807
0.395089
0.395491
0.543369
0.5147
0.497277
0.486419
0.478841
0.47356
0.469693
0.466503
0.463503
0.460397
0.457025
0.453319
0.449274
0.444918
0.440314
0.435558
0.430637
0.425177
0.419516
0.418377
0.592344
0.56167
0.542729
0.530431
0.521316
0.514423
0.508899
0.504039
0.499381
0.494657
0.489723
0.484524
0.479059
0.473359
0.467484
0.461518
0.455451
0.448964
0.442389
0.439769
0.638535
0.605991
0.585619
0.571948
0.561359
0.552916
0.545799
0.539331
0.533082
0.526804
0.520373
0.513744
0.506921
0.499937
0.492849
0.485731
0.478575
0.471119
0.463671
0.459642
0.681621
0.64735
0.625645
0.610681
0.598697
0.588783
0.580153
0.57216
0.564402
0.556655
0.54881
0.540831
0.532728
0.524536
0.516306
0.508108
0.499935
0.491575
0.483307
0.477953
0.721303
0.685456
0.662523
0.646357
0.633071
0.621783
0.611738
0.602321
0.593156
0.58404
0.574878
0.565645
0.556355
0.547042
0.537757
0.52856
0.519451
0.510261
0.501232
0.49465
0.757306
0.720039
0.695993
0.678728
0.664248
0.651696
0.640352
0.629627
0.619171
0.608801
0.598436
0.588057
0.577683
0.567349
0.557103
0.547
0.537042
0.527102
0.517381
0.509676
0.789379
0.750856
0.725817
0.707568
0.692012
0.678323
0.665809
0.653907
0.642292
0.630796
0.619351
0.607946
0.596603
0.585357
0.574254
0.563343
0.55263
0.542024
0.531685
0.522974
0.817299
0.777689
0.751785
0.732673
0.716174
0.701486
0.687944
0.67501
0.662377
0.649896
0.637506
0.625205
0.613015
0.600975
0.589125
0.57751
0.566142
0.554959
0.544079
0.534488
0.840871
0.800347
0.773713
0.753869
0.736568
0.72103
0.706614
0.692803
0.679306
0.665989
0.652799
0.639738
0.626833
0.61412
0.60164
0.589432
0.577511
0.565842
0.554506
0.544168
0.85993
0.818669
0.791445
0.771007
0.753054
0.736825
0.721698
0.707174
0.692976
0.67898
0.665141
0.651465
0.63798
0.624723
0.611733
0.599046
0.58668
0.574618
0.562912
0.551968
0.874343
0.832526
0.804856
0.783967
0.765519
0.748764
0.733098
0.718032
0.703303
0.688792
0.674461
0.66032
0.646396
0.632727
0.619351
0.606301
0.593599
0.581242
0.569256
0.557853
0.884008
0.841819
0.813849
0.792657
0.773877
0.756769
0.740739
0.72531
0.710222
0.695366
0.680705
0.666251
0.652033
0.638088
0.624454
0.611161
0.598233
0.585678
0.573504
0.561792
0.888857
0.846482
0.818362
0.797018
0.77807
0.760784
0.744573
0.72896
0.713693
0.698663
0.683836
0.669225
0.654859
0.640776
0.627012
0.613597
0.600556
0.587902
0.575634
0.563766
0.888857
0.846482
0.818362
0.797018
0.77807
0.760784
0.744573
0.72896
0.713693
0.698663
0.683836
0.669225
0.654859
0.640776
0.627012
0.613597
0.600556
0.587902
0.575634
0.563766
0.884008
0.841819
0.813849
0.792657
0.773876
0.756768
0.740739
0.725309
0.710222
0.695366
0.680705
0.666251
0.652033
0.638088
0.624454
0.611161
0.598233
0.585678
0.573504
0.561792
0.874343
0.832526
0.804856
0.783966
0.765519
0.748764
0.733098
0.718032
0.703302
0.688791
0.674461
0.66032
0.646396
0.632727
0.619351
0.606302
0.593599
0.581242
0.569256
0.557853
0.85993
0.818669
0.791445
0.771007
0.753054
0.736824
0.721698
0.707173
0.692976
0.678979
0.665141
0.651465
0.63798
0.624723
0.611733
0.599046
0.58668
0.574618
0.562913
0.551968
0.840871
0.800346
0.773713
0.753869
0.736568
0.721029
0.706614
0.692802
0.679306
0.665988
0.652799
0.639738
0.626833
0.61412
0.60164
0.589432
0.577512
0.565842
0.554506
0.544168
0.817299
0.777688
0.751785
0.732672
0.716174
0.701485
0.687943
0.67501
0.662377
0.649895
0.637506
0.625205
0.613015
0.600975
0.589125
0.57751
0.566143
0.554959
0.544079
0.534488
0.789378
0.750856
0.725816
0.707567
0.692012
0.678322
0.665808
0.653907
0.642291
0.630796
0.619351
0.607946
0.596603
0.585357
0.574254
0.563343
0.552631
0.542024
0.531685
0.522974
0.757305
0.720039
0.695992
0.678728
0.664247
0.651695
0.640351
0.629627
0.619171
0.608801
0.598436
0.588057
0.577683
0.567349
0.557103
0.547
0.537042
0.527102
0.517381
0.509676
0.721302
0.685455
0.662522
0.646357
0.633071
0.621782
0.611738
0.602321
0.593156
0.58404
0.574878
0.565645
0.556355
0.547042
0.537757
0.52856
0.519451
0.510261
0.501233
0.49465
0.68162
0.647349
0.625644
0.61068
0.598696
0.588782
0.580152
0.572159
0.564402
0.556655
0.54881
0.540831
0.532728
0.524536
0.516306
0.508108
0.499935
0.491575
0.483307
0.477953
0.638534
0.60599
0.585619
0.571947
0.561359
0.552916
0.545798
0.53933
0.533081
0.526804
0.520373
0.513744
0.506921
0.499937
0.492849
0.485731
0.478575
0.471119
0.463671
0.459642
0.592343
0.561669
0.542728
0.53043
0.521315
0.514422
0.508899
0.504038
0.499381
0.494657
0.489723
0.484524
0.479059
0.473359
0.467484
0.461518
0.455451
0.448965
0.44239
0.439769
0.543368
0.514699
0.497276
0.486418
0.47884
0.473559
0.469692
0.466503
0.463503
0.460397
0.457025
0.453319
0.449274
0.444918
0.440314
0.435558
0.430637
0.425177
0.419516
0.418377
0.491946
0.46541
0.449583
0.44022
0.434226
0.4306
0.428433
0.42696
0.425662
0.424221
0.422456
0.420288
0.417705
0.414734
0.41144
0.407932
0.4042
0.399807
0.395089
0.395491
0.438435
0.414148
0.399986
0.392159
0.38778
0.385836
0.385393
0.385659
0.38609
0.386338
0.386205
0.3856
0.3845
0.382932
0.380964
0.378719
0.376193
0.372888
0.36912
0.371108
0.383205
0.361274
0.348834
0.342572
0.339823
0.33957
0.340855
0.342866
0.34503
0.346974
0.348479
0.349438
0.34982
0.349647
0.348991
0.34799
0.346652
0.344414
0.341569
0.345172
0.326637
0.307157
0.296487
0.291806
0.290688
0.292116
0.295117
0.29886
0.302744
0.306371
0.3095
0.312006
0.313845
0.315032
0.31564
0.31582
0.315594
0.314333
0.312312
0.31755
0.269124
0.252176
0.24331
0.240214
0.240714
0.243798
0.248488
0.253932
0.259509
0.264794
0.269519
0.273539
0.276794
0.279283
0.281071
0.282322
0.283066
0.282593
0.281163
0.288013
0.21106
0.19671
0.189673
0.188155
0.190245
0.194949
0.201283
0.208388
0.215619
0.222524
0.228811
0.23431
0.238935
0.242661
0.245531
0.247702
0.2492
0.249131
0.247525
0.255318
0.152845
0.141141
0.135945
0.135986
0.139628
0.1459
0.153826
0.162539
0.171377
0.179865
0.187683
0.194631
0.200592
0.2055
0.209334
0.212166
0.213895
0.213213
0.209191
0.214669
0.0948769
0.0858479
0.0824916
0.0840618
0.0892062
0.0969858
0.106437
0.116699
0.127095
0.137132
0.146467
0.154876
0.162217
0.168391
0.173323
0.17695
0.179044
0.17883
0.175939
0.173534
0.0375252
0.0311857
0.0296598
0.0327216
0.0393093
0.0485249
0.0594285
0.0711697
0.0830697
0.0946234
0.105477
0.115399
0.124248
0.131948
0.138466
0.143781
0.147836
0.15071
0.153285
0.155459
-0.0188342
-0.0224901
-0.0222082
-0.0177025
-0.00974096
0.000828112
0.0130967
0.0262345
0.0395666
0.0525834
0.0649252
0.0763576
0.0867453
0.0960309
0.104214
0.111307
0.117324
0.122691
0.128738
0.133639
-0.0738476
-0.0748456
-0.0727901
-0.0668975
-0.057641
-0.0458125
-0.0322797
-0.0178454
-0.00317496
0.0112214
0.0249794
0.03786
0.0497266
0.0605255
0.0702646
0.0789593
0.086639
0.0938141
0.101783
0.107903
-0.127186
-0.12557
-0.121786
-0.114571
-0.104108
-0.0911239
-0.0764405
-0.0608261
-0.0449315
-0.0292644
-0.0141932
3.67716e-05
0.0132823
0.0254849
0.0366474
0.0467801
0.0559169
0.0645746
0.0738861
0.0807483
-0.178547
-0.174379
-0.168921
-0.160456
-0.148879
-0.134853
-0.119143
-0.102479
-0.0854905
-0.0686813
-0.0524222
-0.0369661
-0.0224656
-0.00898936
0.00345401
0.0148636
0.0252704
0.0351746
0.0455419
0.0530102
-0.227657
-0.221014
-0.213947
-0.204309
-0.191718
-0.176767
-0.160163
-0.142588
-0.12465
-0.106842
-0.0895355
-0.0729919
-0.0573742
-0.042764
-0.0291843
-0.0166497
-0.00513619
0.00583027
0.017073
0.0251159
-0.274275
-0.265249
-0.256644
-0.245914
-0.232413
-0.216659
-0.199296
-0.180958
-0.16222
-0.143564
-0.125361
-0.107877
-0.0912854
-0.075682
-0.0611044
-0.0475809
-0.0350956
-0.0232044
-0.0112049
-0.00258651
-0.318191
-0.306889
-0.296825
-0.285087
-0.270778
-0.254343
-0.23636
-0.217406
-0.198023
-0.178676
-0.159731
-0.141457
-0.124038
-0.10758
-0.0921372
-0.0777492
-0.064409
-0.0517042
-0.0390348
-0.0298346
-0.359229
-0.345771
-0.334332
-0.321672
-0.306657
-0.289662
-0.271194
-0.251772
-0.2319
-0.212019
-0.192488
-0.173576
-0.155475
-0.138301
-0.122121
-0.106987
-0.0928996
-0.0794797
-0.0662138
-0.05643
-0.397249
-0.381765
-0.369042
-0.355544
-0.339925
-0.322486
-0.303665
-0.283919
-0.263709
-0.243451
-0.223489
-0.204091
-0.185453
-0.1677
-0.15091
-0.135144
-0.120413
-0.106371
-0.0925783
-0.0822173
-0.432144
-0.414775
-0.400862
-0.386612
-0.370485
-0.352713
-0.333666
-0.313734
-0.293333
-0.272849
-0.252609
-0.232875
-0.213844
-0.195647
-0.178372
-0.162089
-0.146818
-0.132247
-0.117997
-0.107075
-0.463841
-0.444739
-0.429733
-0.414816
-0.398273
-0.380273
-0.361115
-0.341128
-0.320677
-0.300113
-0.279744
-0.259821
-0.240538
-0.222032
-0.204398
-0.187713
-0.172006
-0.156998
-0.142364
-0.13091
-0.4923
-0.471625
-0.455629
-0.440127
-0.423254
-0.405122
-0.385963
-0.366042
-0.345671
-0.325166
-0.30481
-0.284841
-0.265446
-0.246766
-0.228898
-0.211926
-0.195887
-0.180539
-0.1656
-0.153652
-0.517516
-0.495435
-0.478552
-0.462546
-0.445424
-0.427247
-0.408186
-0.38844
-0.368272
-0.347956
-0.327749
-0.30787
-0.2885
-0.269776
-0.251799
-0.234658
-0.218396
-0.202805
-0.187643
-0.17525
-0.539514
-0.516198
-0.498536
-0.482104
-0.464808
-0.446666
-0.42779
-0.408318
-0.388462
-0.368456
-0.348524
-0.328866
-0.309652
-0.291013
-0.273052
-0.255858
-0.239482
-0.22375
-0.208452
-0.195673
-0.558348
-0.533975
-0.51564
-0.498858
-0.481458
-0.463421
-0.444805
-0.425695
-0.406249
-0.38666
-0.367121
-0.347807
-0.328874
-0.310447
-0.292624
-0.275495
-0.259115
-0.243346
-0.228005
-0.214906
-0.574101
-0.548848
-0.52995
-0.512892
-0.495451
-0.47758
-0.459291
-0.440616
-0.421666
-0.402591
-0.38355
-0.364695
-0.346162
-0.328067
-0.310503
-0.293555
-0.277284
-0.261581
-0.246294
-0.232953
-0.58688
-0.560927
-0.541573
-0.524312
-0.506888
-0.489235
-0.471327
-0.45315
-0.434767
-0.41629
-0.397843
-0.37955
-0.361529
-0.343881
-0.326692
-0.310042
-0.29399
-0.278462
-0.263331
-0.249831
-0.596815
-0.570339
-0.550637
-0.533241
-0.515888
-0.498498
-0.481017
-0.463386
-0.445631
-0.427822
-0.410051
-0.392415
-0.375008
-0.357915
-0.341214
-0.324975
-0.309256
-0.29401
-0.279141
-0.265577
-0.604053
-0.577229
-0.557285
-0.539821
-0.522587
-0.5055
-0.488478
-0.471434
-0.454352
-0.43727
-0.420246
-0.403347
-0.386647
-0.370212
-0.354106
-0.338389
-0.323114
-0.308262
-0.293766
-0.280239
-0.608767
-0.581762
-0.561679
-0.544211
-0.527141
-0.510386
-0.493851
-0.477419
-0.461046
-0.444735
-0.428514
-0.412424
-0.396513
-0.380829
-0.365421
-0.350334
-0.335613
-0.321266
-0.307258
-0.293883
-0.611134
-0.584108
-0.563986
-0.546576
-0.52971
-0.513315
-0.497284
-0.481483
-0.46584
-0.450333
-0.43496
-0.419736
-0.404686
-0.389838
-0.375223
-0.360871
-0.346814
-0.333084
-0.319686
-0.306585
-0.611342
-0.584445
-0.56438
-0.547088
-0.530465
-0.51445
-0.498936
-0.483774
-0.468874
-0.45419
-0.439696
-0.425384
-0.411255
-0.397318
-0.383585
-0.370068
-0.356784
-0.343785
-0.331124
-0.318435
-0.609586
-0.582959
-0.563042
-0.545926
-0.529581
-0.513965
-0.498973
-0.48445
-0.470295
-0.456443
-0.442848
-0.429481
-0.416323
-0.403361
-0.390591
-0.378004
-0.3656
-0.353447
-0.341654
-0.329527
-0.606061
-0.579835
-0.560153
-0.543269
-0.527236
-0.512033
-0.497565
-0.483677
-0.47026
-0.457236
-0.444547
-0.432145
-0.419993
-0.408062
-0.396327
-0.38476
-0.37334
-0.362148
-0.35136
-0.339963
-0.600962
-0.575255
-0.555891
-0.539292
-0.523604
-0.508829
-0.494884
-0.481619
-0.468925
-0.456718
-0.444929
-0.433499
-0.422377
-0.411518
-0.40088
-0.390417
-0.380081
-0.369967
-0.360327
-0.349843
-0.594478
-0.569397
-0.550429
-0.534169
-0.518859
-0.504525
-0.491099
-0.478443
-0.46645
-0.455037
-0.444132
-0.433668
-0.423585
-0.413826
-0.404337
-0.39505
-0.385895
-0.376975
-0.368628
-0.35926
-0.586789
-0.562432
-0.543933
-0.528065
-0.513167
-0.499288
-0.486377
-0.474311
-0.462992
-0.452342
-0.442292
-0.432774
-0.423724
-0.415079
-0.406775
-0.39873
-0.390846
-0.383231
-0.376326
-0.368295
-0.578061
-0.554518
-0.53656
-0.521136
-0.506684
-0.493275
-0.480875
-0.46938
-0.458703
-0.448778
-0.439542
-0.430935
-0.422896
-0.415361
-0.408263
-0.401509
-0.394977
-0.388776
-0.383463
-0.377013
-0.568446
-0.545801
-0.528453
-0.513527
-0.499558
-0.486635
-0.474745
-0.463799
-0.45373
-0.444483
-0.436011
-0.428265
-0.421194
-0.414745
-0.408855
-0.403424
-0.398312
-0.393627
-0.390053
-0.385447
-0.55808
-0.536413
-0.519744
-0.505369
-0.491922
-0.479506
-0.468125
-0.457709
-0.448208
-0.439588
-0.431816
-0.424865
-0.418702
-0.413289
-0.40858
-0.404482
-0.400841
-0.397762
-0.396073
-0.393601
-0.547081
-0.526472
-0.510549
-0.496781
-0.483896
-0.472009
-0.461139
-0.451234
-0.442264
-0.434211
-0.427066
-0.420826
-0.415483
-0.41103
-0.407444
-0.404655
-0.402509
-0.401112
-0.401448
-0.401431
-0.535552
-0.516082
-0.500973
-0.487866
-0.475585
-0.464251
-0.453896
-0.444486
-0.436005
-0.428457
-0.421855
-0.416223
-0.411587
-0.407976
-0.405412
-0.403865
-0.403199
-0.403534
-0.406031
-0.408837
-0.523583
-0.505334
-0.491105
-0.478714
-0.467077
-0.456322
-0.446489
-0.437557
-0.429525
-0.422415
-0.41626
-0.411113
-0.407036
-0.404107
-0.402404
-0.401964
-0.4027
-0.404769
-0.40956
-0.415633
-0.511257
-0.494312
-0.481027
-0.469401
-0.458447
-0.448295
-0.438989
-0.430519
-0.422897
-0.416153
-0.410339
-0.405532
-0.40183
-0.399361
-0.398277
-0.398707
-0.400658
-0.40437
-0.411564
-0.421474
-0.498654
-0.483092
-0.470809
-0.459992
-0.449756
-0.440226
-0.431452
-0.42343
-0.416174
-0.409722
-0.404133
-0.399497
-0.395941
-0.393635
-0.392809
-0.393709
-0.396473
-0.401503
-0.411074
-0.425574
-0.485855
-0.47175
-0.460518
-0.450547
-0.441054
-0.432163
-0.423922
-0.416329
-0.409397
-0.40316
-0.397672
-0.39302
-0.389335
-0.38681
-0.385731
-0.386457
-0.389278
-0.394829
-0.406387
-0.426657
-0.472953
-0.460361
-0.450218
-0.441119
-0.432388
-0.424144
-0.416433
-0.40925
-0.402602
-0.396505
-0.390994
-0.38613
-0.382013
-0.378813
-0.37682
-0.376468
-0.378198
-0.382871
-0.395183
-0.422488
-0.460046
-0.449007
-0.439975
-0.431761
-0.423801
-0.416207
-0.40902
-0.402232
-0.395833
-0.389815
-0.38417
-0.378897
-0.374008
-0.369543
-0.365622
-0.362532
-0.360576
-0.359947
-0.364519
-0.389335
-0.447245
-0.43777
-0.429855
-0.422529
-0.41534
-0.408394
-0.401729
-0.395331
-0.389174
-0.383218
-0.377402
-0.371634
-0.365766
-0.359557
-0.352621
-0.3444
-0.333725
-0.316775
-0.287082
-0.256728
-0.434667
-0.426738
-0.419928
-0.41348
-0.407054
-0.400754
-0.394615
-0.388622
-0.382743
-0.376924
-0.371083
-0.365101
-0.358805
-0.351939
-0.344148
-0.335025
-0.323945
-0.308796
-0.286239
-0.266072
-0.422425
-0.415998
-0.410261
-0.40467
-0.398994
-0.393332
-0.387724
-0.38216
-0.37661
-0.371022
-0.365319
-0.359395
-0.35311
-0.346276
-0.338673
-0.330098
-0.32029
-0.308281
-0.293193
-0.282785
-0.41063
-0.405629
-0.400921
-0.396155
-0.391205
-0.386171
-0.381096
-0.37598
-0.370802
-0.365522
-0.360077
-0.354387
-0.348349
-0.341841
-0.334737
-0.326952
-0.318369
-0.308447
-0.297154
-0.290804
-0.399378
-0.395708
-0.391967
-0.387986
-0.383733
-0.379309
-0.374763
-0.370108
-0.365335
-0.360418
-0.355316
-0.349974
-0.34433
-0.338315
-0.331874
-0.325
-0.317667
-0.309545
-0.300803
-0.296397
-0.388748
-0.386297
-0.383453
-0.380209
-0.376617
-0.37278
-0.368753
-0.364563
-0.360213
-0.355695
-0.350987
-0.34606
-0.340884
-0.335431
-0.329691
-0.323701
-0.317482
-0.310819
-0.303909
-0.300642
-0.378801
-0.377448
-0.375424
-0.372863
-0.369892
-0.366612
-0.363088
-0.359357
-0.355438
-0.351334
-0.347043
-0.342558
-0.337872
-0.332983
-0.327908
-0.322702
-0.317404
-0.311859
-0.306241
-0.303646
-0.369579
-0.369199
-0.367916
-0.365981
-0.363586
-0.360831
-0.357787
-0.354502
-0.351006
-0.347317
-0.343447
-0.339404
-0.335197
-0.330842
-0.326369
-0.321838
-0.317291
-0.312605
-0.307919
-0.305715
-0.361105
-0.361579
-0.360956
-0.359589
-0.357721
-0.355454
-0.352862
-0.350003
-0.346916
-0.34363
-0.340168
-0.336549
-0.332794
-0.328928
-0.324987
-0.321028
-0.317091
-0.313077
-0.309083
-0.30711
-0.35339
-0.354603
-0.354563
-0.353705
-0.352317
-0.350498
-0.348325
-0.345865
-0.343164
-0.34026
-0.337183
-0.33396
-0.33062
-0.327191
-0.323712
-0.320235
-0.316795
-0.31331
-0.309844
-0.308014
-0.346432
-0.348279
-0.348748
-0.348342
-0.347385
-0.345972
-0.344184
-0.342091
-0.339749
-0.337198
-0.334476
-0.331616
-0.328648
-0.325605
-0.322523
-0.319449
-0.316416
-0.313352
-0.310297
-0.308561
-0.340224
-0.34261
-0.343519
-0.34351
-0.342934
-0.341884
-0.340443
-0.338685
-0.336667
-0.334438
-0.332038
-0.329501
-0.326863
-0.324155
-0.321412
-0.318675
-0.315974
-0.313249
-0.310521
-0.308853
-0.334752
-0.337592
-0.338878