1.45 	0 	0 	-0.303241
2.35 	0 	0 	-0.134167
