/*--------------------------------*- C++ -*----------------------------------*\
  =========                 |
  \\      /  F ield         | OpenFOAM: The Open Source CFD Toolbox
   \\    /   O peration     | Website:  https://openfoam.org
    \\  /    A nd           | Version:  6.0
     \\/     M anipulation  |
\*---------------------------------------------------------------------------*/
FoamFile
{
    version     2.0;
    format      ascii;
    class       volScalarField;
    location    "1.4";
    object      p;
}
// * * * * * * * * * * * * * * * * * * * * * * * * * * * * * * * * * * * * * //

dimensions      [0 2 -2 0 0 0 0];

internalField   nonuniform List<scalar> 
24000
(
1.00669
1.00636
1.00576
1.00495
1.00399
1.00302
1.00216
1.00141
1.0008
1.00033
0.999961
0.999726
1.00669
1.00642
1.00591
1.00519
1.0043
1.00336
1.00247
1.00166
1.00095
1.00038
0.999883
0.999561
1.00669
1.0064
1.00587
1.00512
1.00421
1.00323
1.00233
1.00152
1.00082
1.00028
0.999791
0.999506
1.0067
1.00639
1.00583
1.00507
1.00415
1.00317
1.00228
1.00147
1.00078
1.00027
0.999766
0.999481
1.0067
1.0064
1.00585
1.0051
1.0042
1.00324
1.00236
1.00155
1.00085
1.00031
0.999765
0.999439
1.00671
1.00641
1.00587
1.00513
1.00425
1.0033
1.00241
1.0016
1.00089
1.00031
0.999728
0.999369
1.00672
1.00642
1.00588
1.00513
1.00424
1.00329
1.0024
1.00158
1.00085
1.00026
0.99966
0.99929
1.00672
1.00644
1.00589
1.00513
1.00423
1.00328
1.00238
1.00154
1.0008
1.00021
0.999598
0.999221
1.00673
1.00645
1.0059
1.00514
1.00424
1.00329
1.00238
1.00153
1.00079
1.00018
0.999555
0.999165
1.00674
1.00647
1.00593
1.00517
1.00427
1.00332
1.0024
1.00155
1.00079
1.00017
0.999527
0.999117
1.00676
1.00649
1.00596
1.0052
1.0043
1.00335
1.00243
1.00158
1.00081
1.00017
0.999502
0.999069
1.00677
1.00652
1.00599
1.00523
1.00433
1.00338
1.00246
1.00159
1.00081
1.00016
0.999474
0.999021
1.00678
1.00654
1.00602
1.00526
1.00436
1.0034
1.00248
1.00161
1.00081
1.00015
0.999443
0.998972
1.0068
1.00657
1.00605
1.0053
1.0044
1.00344
1.0025
1.00162
1.00081
1.00013
0.999413
0.998926
1.00681
1.00659
1.00608
1.00534
1.00444
1.00347
1.00253
1.00163
1.00081
1.00012
0.999384
0.998882
1.00683
1.00661
1.0061
1.00537
1.00448
1.00351
1.00256
1.00165
1.00082
1.00011
0.999356
0.998839
1.00684
1.00663
1.00613
1.00541
1.00451
1.00354
1.00258
1.00167
1.00082
1.00009
0.999328
0.998796
1.00686
1.00665
1.00615
1.00544
1.00455
1.00357
1.00261
1.00168
1.00082
1.00008
0.9993
0.998755
1.00688
1.00667
1.00617
1.00546
1.00457
1.0036
1.00262
1.00169
1.00082
1.00006
0.99927
0.998713
1.0069
1.0067
1.00619
1.00548
1.0046
1.00362
1.00264
1.0017
1.00081
1.00004
0.999241
0.998673
1.00692
1.00672
1.00622
1.00551
1.00462
1.00364
1.00266
1.0017
1.00081
1.00002
0.999212
0.998634
1.00694
1.00674
1.00624
1.00554
1.00465
1.00366
1.00267
1.00171
1.0008
1
0.999185
0.998596
1.00696
1.00677
1.00627
1.00556
1.00468
1.00369
1.00269
1.00172
1.0008
0.999987
0.999156
0.998558
1.00699
1.0068
1.0063
1.00559
1.00471
1.00371
1.00271
1.00173
1.0008
0.999969
0.999128
0.998521
1.00701
1.00683
1.00633
1.00562
1.00474
1.00374
1.00273
1.00173
1.00079
0.99995
0.999099
0.998483
1.00704
1.00686
1.00636
1.00566
1.00477
1.00377
1.00275
1.00174
1.00078
0.999931
0.999069
0.998445
1.00707
1.00689
1.00639
1.00569
1.0048
1.00379
1.00277
1.00175
1.00078
0.99991
0.999039
0.998408
1.0071
1.00692
1.00643
1.00572
1.00483
1.00382
1.00278
1.00175
1.00077
0.99989
0.99901
0.998372
1.00713
1.00696
1.00646
1.00576
1.00486
1.00384
1.0028
1.00176
1.00077
0.99987
0.99898
0.998335
1.00716
1.007
1.0065
1.0058
1.00489
1.00387
1.00282
1.00177
1.00076
0.999851
0.998952
0.9983
1.0072
1.00704
1.00654
1.00583
1.00493
1.0039
1.00284
1.00178
1.00076
0.999833
0.998924
0.998264
1.00723
1.00708
1.00658
1.00587
1.00496
1.00393
1.00286
1.00179
1.00075
0.999815
0.998896
0.998229
1.00727
1.00712
1.00662
1.00592
1.005
1.00396
1.00288
1.0018
1.00075
0.999798
0.998869
0.998193
1.0073
1.00716
1.00667
1.00596
1.00504
1.004
1.00291
1.00181
1.00075
0.999782
0.998841
0.998157
1.00734
1.0072
1.00672
1.00601
1.00509
1.00403
1.00293
1.00182
1.00075
0.999765
0.998813
0.998121
1.00738
1.00725
1.00676
1.00606
1.00513
1.00407
1.00296
1.00183
1.00074
0.999748
0.998785
0.998085
1.00742
1.00729
1.00681
1.00611
1.00518
1.00411
1.00298
1.00185
1.00074
0.999729
0.998755
0.998047
1.00746
1.00734
1.00686
1.00615
1.00522
1.00414
1.00301
1.00186
1.00074
0.999711
0.998726
0.99801
1.00751
1.00738
1.0069
1.0062
1.00526
1.00418
1.00303
1.00187
1.00073
0.999691
0.998695
0.997973
1.00755
1.00743
1.00695
1.00625
1.00531
1.00421
1.00306
1.00188
1.00073
0.999672
0.998664
0.997935
1.00759
1.00748
1.007
1.00629
1.00535
1.00425
1.00308
1.00189
1.00072
0.999651
0.998632
0.997897
1.00764
1.00753
1.00704
1.00634
1.00539
1.00428
1.0031
1.0019
1.00072
0.999631
0.998601
0.997859
1.00769
1.00758
1.00709
1.00639
1.00543
1.00432
1.00313
1.00191
1.00071
0.999609
0.998569
0.99782
1.00774
1.00763
1.00714
1.00643
1.00547
1.00435
1.00315
1.00191
1.00071
0.999589
0.998537
0.997782
1.00779
1.00768
1.0072
1.00648
1.00552
1.00439
1.00317
1.00192
1.0007
0.999567
0.998504
0.997743
1.00784
1.00773
1.00725
1.00654
1.00556
1.00442
1.0032
1.00193
1.00069
0.999546
0.998471
0.997705
1.00789
1.00779
1.0073
1.00659
1.00561
1.00446
1.00322
1.00194
1.00069
0.999524
0.998437
0.997665
1.00794
1.00785
1.00736
1.00664
1.00566
1.0045
1.00325
1.00195
1.00068
0.999503
0.998405
0.997626
1.008
1.00791
1.00742
1.0067
1.00571
1.00454
1.00327
1.00196
1.00067
0.999481
0.998371
0.997586
1.00806
1.00797
1.00748
1.00676
1.00576
1.00458
1.0033
1.00197
1.00067
0.99946
0.998338
0.997546
1.00811
1.00803
1.00754
1.00681
1.00581
1.00462
1.00332
1.00198
1.00066
0.999438
0.998304
0.997505
1.00817
1.00809
1.00761
1.00687
1.00586
1.00466
1.00335
1.00199
1.00066
0.999417
0.998271
0.997464
1.00823
1.00816
1.00767
1.00694
1.00591
1.0047
1.00338
1.00201
1.00065
0.999396
0.998237
0.997421
1.00829
1.00822
1.00774
1.007
1.00597
1.00475
1.00341
1.00202
1.00065
0.999375
0.998204
0.997378
1.00836
1.00829
1.0078
1.00706
1.00603
1.00479
1.00344
1.00203
1.00064
0.999354
0.99817
0.997333
1.00842
1.00836
1.00787
1.00713
1.00608
1.00484
1.00347
1.00205
1.00064
0.999333
0.998136
0.997288
1.00848
1.00843
1.00794
1.0072
1.00614
1.00488
1.0035
1.00206
1.00064
0.999311
0.9981
0.997242
1.00855
1.0085
1.00801
1.00727
1.0062
1.00493
1.00353
1.00207
1.00063
0.999289
0.998065
0.997194
1.00862
1.00858
1.00809
1.00734
1.00626
1.00498
1.00357
1.00209
1.00063
0.999266
0.998028
0.997146
1.00869
1.00865
1.00816
1.00741
1.00632
1.00503
1.0036
1.0021
1.00062
0.999243
0.997991
0.997097
1.00876
1.00873
1.00823
1.00747
1.00638
1.00508
1.00363
1.00211
1.00062
0.999219
0.997952
0.997046
1.00883
1.0088
1.00831
1.00755
1.00645
1.00513
1.00366
1.00213
1.00061
0.999195
0.997914
0.996996
1.0089
1.00888
1.00838
1.00762
1.00651
1.00518
1.00369
1.00214
1.0006
0.999171
0.997873
0.996944
1.00898
1.00896
1.00846
1.00769
1.00657
1.00523
1.00373
1.00215
1.0006
0.999147
0.997833
0.996892
1.00905
1.00904
1.00854
1.00776
1.00663
1.00527
1.00376
1.00217
1.00059
0.999121
0.997792
0.996839
1.00913
1.00912
1.00862
1.00784
1.0067
1.00533
1.00379
1.00218
1.00059
0.999097
0.997751
0.996786
1.00921
1.00921
1.0087
1.00792
1.00677
1.00538
1.00383
1.00219
1.00058
0.999071
0.997709
0.996731
1.00929
1.00929
1.00878
1.008
1.00683
1.00543
1.00386
1.00221
1.00057
0.999046
0.997667
0.996676
1.00937
1.00938
1.00887
1.00808
1.0069
1.00549
1.0039
1.00222
1.00057
0.999019
0.997624
0.996619
1.00946
1.00947
1.00895
1.00816
1.00697
1.00554
1.00393
1.00224
1.00056
0.998994
0.997581
0.996561
1.00955
1.00956
1.00904
1.00824
1.00704
1.0056
1.00397
1.00226
1.00056
0.998967
0.997536
0.996501
1.00963
1.00965
1.00913
1.00833
1.00712
1.00566
1.00401
1.00227
1.00055
0.998941
0.997492
0.99644
1.00972
1.00975
1.00923
1.00842
1.00719
1.00572
1.00405
1.00229
1.00055
0.998913
0.997446
0.996377
1.00982
1.00984
1.00932
1.00851
1.00727
1.00578
1.00409
1.00231
1.00054
0.998886
0.997401
0.996312
1.00991
1.00994
1.00942
1.0086
1.00735
1.00584
1.00413
1.00233
1.00054
0.998857
0.997352
0.996245
1.01
1.01004
1.00952
1.00869
1.00743
1.0059
1.00417
1.00234
1.00053
0.998829
0.997304
0.996178
1.0101
1.01014
1.00961
1.00878
1.00751
1.00596
1.00421
1.00236
1.00052
0.998798
0.997254
0.996107
1.0102
1.01025
1.00972
1.00888
1.00759
1.00603
1.00426
1.00238
1.00052
0.998768
0.997203
0.996036
1.0103
1.01035
1.00982
1.00897
1.00767
1.00609
1.0043
1.0024
1.00051
0.998736
0.99715
0.995962
1.0104
1.01046
1.00992
1.00907
1.00776
1.00616
1.00434
1.00242
1.0005
0.998704
0.997096
0.995887
1.0105
1.01057
1.01003
1.00917
1.00784
1.00623
1.00439
1.00244
1.00049
0.998669
0.99704
0.99581
1.01061
1.01068
1.01013
1.00927
1.00793
1.0063
1.00443
1.00245
1.00049
0.998635
0.996983
0.995732
1.01072
1.01079
1.01024
1.00937
1.00801
1.00636
1.00447
1.00247
1.00048
0.998598
0.996924
0.995652
1.01082
1.0109
1.01035
1.00948
1.0081
1.00643
1.00452
1.00249
1.00047
0.998562
0.996865
0.995571
1.01094
1.01102
1.01046
1.00958
1.00819
1.0065
1.00456
1.00251
1.00045
0.998523
0.996803
0.995487
1.01105
1.01114
1.01058
1.00969
1.00828
1.00657
1.00461
1.00252
1.00044
0.998485
0.996741
0.995404
1.01116
1.01126
1.01069
1.0098
1.00837
1.00664
1.00465
1.00254
1.00043
0.998444
0.996676
0.995317
1.01128
1.01138
1.01081
1.00991
1.00847
1.00672
1.0047
1.00256
1.00042
0.998404
0.996611
0.99523
1.0114
1.0115
1.01093
1.01002
1.00856
1.00679
1.00474
1.00257
1.0004
0.998361
0.996544
0.99514
1.01152
1.01163
1.01105
1.01013
1.00866
1.00686
1.00479
1.00259
1.00039
0.998318
0.996476
0.99505
1.01164
1.01176
1.01118
1.01025
1.00875
1.00694
1.00484
1.00261
1.00037
0.998273
0.996405
0.994956
1.01177
1.01189
1.01131
1.01037
1.00885
1.00702
1.00489
1.00262
1.00036
0.998228
0.996334
0.994863
1.01189
1.01202
1.01143
1.01049
1.00895
1.00709
1.00493
1.00264
1.00034
0.99818
0.99626
0.994766
1.01202
1.01216
1.01156
1.01061
1.00906
1.00717
1.00498
1.00265
1.00033
0.998133
0.996186
0.994669
1.01215
1.0123
1.0117
1.01073
1.00916
1.00725
1.00503
1.00267
1.00031
0.998083
0.996109
0.994568
1.01229
1.01244
1.01183
1.01085
1.00926
1.00733
1.00508
1.00269
1.00029
0.998033
0.996032
0.994467
1.01242
1.01258
1.01197
1.01098
1.00937
1.00741
1.00513
1.0027
1.00027
0.997981
0.995951
0.994362
1.01256
1.01272
1.0121
1.01111
1.00948
1.00749
1.00518
1.00272
1.00025
0.997928
0.99587
0.994257
1.0127
1.01287
1.01224
1.01124
1.00959
1.00758
1.00523
1.00273
1.00023
0.997873
0.995786
0.994149
1.01284
1.01302
1.01239
1.01137
1.0097
1.00766
1.00528
1.00274
1.00021
0.997817
0.995701
0.994039
1.01299
1.01317
1.01253
1.0115
1.00981
1.00774
1.00533
1.00276
1.00018
0.997759
0.995613
0.993926
1.01313
1.01332
1.01268
1.01164
1.00992
1.00783
1.00538
1.00277
1.00016
0.9977
0.995524
0.993813
1.01328
1.01348
1.01282
1.01177
1.01003
1.00791
1.00543
1.00278
1.00013
0.997638
0.995431
0.993695
1.01343
1.01364
1.01297
1.01191
1.01015
1.008
1.00548
1.0028
1.00011
0.997577
0.995339
0.993577
1.01359
1.0138
1.01313
1.01205
1.01026
1.00809
1.00553
1.00281
1.00008
0.997512
0.995242
0.993454
1.01375
1.01396
1.01328
1.01219
1.01038
1.00818
1.00559
1.00282
1.00005
0.997447
0.995145
0.993332
1.01391
1.01413
1.01344
1.01234
1.0105
1.00827
1.00564
1.00283
1.00002
0.997379
0.995044
0.993204
1.01407
1.01429
1.0136
1.01249
1.01062
1.00836
1.00569
1.00284
0.99999
0.99731
0.994943
0.993076
1.01424
1.01447
1.01376
1.01264
1.01075
1.00845
1.00574
1.00285
0.999958
0.997239
0.994837
0.992944
1.01441
1.01464
1.01393
1.01279
1.01087
1.00855
1.0058
1.00287
0.999925
0.997167
0.994731
0.992811
1.01458
1.01482
1.0141
1.01294
1.011
1.00864
1.00585
1.00288
0.99989
0.997092
0.994621
0.992673
1.01476
1.015
1.01427
1.0131
1.01113
1.00874
1.00591
1.00289
0.999856
0.997017
0.99451
0.992534
1.01493
1.01518
1.01444
1.01326
1.01127
1.00884
1.00596
1.0029
0.999818
0.996937
0.994395
0.992391
1.01512
1.01537
1.01462
1.01342
1.0114
1.00894
1.00602
1.00291
0.999781
0.996858
0.994279
0.992246
1.0153
1.01556
1.0148
1.01359
1.01154
1.00904
1.00608
1.00292
0.999741
0.996775
0.994158
0.992097
1.01549
1.01575
1.01499
1.01376
1.01168
1.00915
1.00614
1.00292
0.999701
0.996691
0.994037
0.991946
1.01568
1.01595
1.01518
1.01393
1.01182
1.00925
1.00619
1.00293
0.999658
0.996604
0.993911
0.99179
1.01588
1.01615
1.01537
1.01411
1.01197
1.00936
1.00625
1.00294
0.999614
0.996516
0.993783
0.991633
1.01608
1.01635
1.01556
1.01429
1.01211
1.00947
1.00631
1.00295
0.999568
0.996423
0.993651
0.99147
1.01628
1.01656
1.01576
1.01447
1.01227
1.00958
1.00637
1.00296
0.999522
0.99633
0.993518
0.991306
1.01649
1.01677
1.01596
1.01465
1.01242
1.00969
1.00643
1.00296
0.999472
0.996233
0.993379
0.991136
1.0167
1.01698
1.01617
1.01484
1.01257
1.0098
1.00649
1.00297
0.999423
0.996135
0.993239
0.990965
1.01691
1.0172
1.01638
1.01503
1.01273
1.00992
1.00655
1.00297
0.999369
0.996032
0.993094
0.990787
1.01713
1.01743
1.01659
1.01523
1.01289
1.01004
1.00662
1.00298
0.999316
0.995929
0.992947
0.990608
1.01735
1.01765
1.01681
1.01543
1.01306
1.01016
1.00668
1.00298
0.999259
0.99582
0.992795
0.990423
1.01758
1.01788
1.01703
1.01563
1.01323
1.01028
1.00674
1.00298
0.999202
0.995711
0.992641
0.990236
1.01781
1.01812
1.01726
1.01584
1.0134
1.0104
1.00681
1.00298
0.999141
0.995597
0.992481
0.990042
1.01804
1.01836
1.01749
1.01605
1.01357
1.01053
1.00687
1.00298
0.99908
0.995481
0.99232
0.989846
1.01828
1.0186
1.01773
1.01626
1.01375
1.01065
1.00694
1.00298
0.999014
0.99536
0.992152
0.989644
1.01852
1.01885
1.01797
1.01648
1.01393
1.01078
1.007
1.00298
0.998949
0.995239
0.991983
0.989439
1.01877
1.01911
1.01821
1.01671
1.01411
1.01092
1.00707
1.00298
0.998879
0.995111
0.991806
0.989227
1.01902
1.01937
1.01846
1.01694
1.0143
1.01105
1.00714
1.00298
0.998808
0.994982
0.991628
0.989012
1.01928
1.01963
1.01872
1.01717
1.01449
1.01119
1.0072
1.00298
0.998734
0.994847
0.991443
0.98879
1.01954
1.0199
1.01898
1.01741
1.01469
1.01133
1.00727
1.00297
0.998658
0.994711
0.991255
0.988565
1.01981
1.02018
1.01924
1.01765
1.01489
1.01147
1.00734
1.00297
0.998578
0.994568
0.991061
0.988332
1.02008
1.02046
1.01952
1.0179
1.01509
1.01161
1.00741
1.00296
0.998496
0.994423
0.990863
0.988097
1.02036
1.02075
1.01979
1.01815
1.0153
1.01176
1.00748
1.00295
0.99841
0.994272
0.990659
0.987853
1.02064
1.02104
1.02008
1.01841
1.01551
1.0119
1.00755
1.00294
0.998323
0.994119
0.990451
0.987606
1.02093
1.02134
1.02036
1.01868
1.01572
1.01205
1.00762
1.00293
0.99823
0.993958
0.990235
0.98735
1.02122
1.02164
1.02066
1.01894
1.01595
1.01221
1.00769
1.00292
0.998136
0.993796
0.990016
0.98709
1.02152
1.02195
1.02096
1.01922
1.01617
1.01236
1.00776
1.0029
0.998036
0.993626
0.989789
0.986822
1.02183
1.02227
1.02127
1.0195
1.0164
1.01252
1.00784
1.00288
0.997934
0.993453
0.989558
0.98655
1.02214
1.0226
1.02158
1.01979
1.01663
1.01268
1.00791
1.00286
0.997827
0.993272
0.989318
0.986268
1.02246
1.02293
1.0219
1.02008
1.01687
1.01285
1.00798
1.00284
0.997717
0.993088
0.989075
0.985982
1.02279
1.02327
1.02223
1.02038
1.01711
1.01301
1.00805
1.00282
0.997602
0.992897
0.988822
0.985686
1.02312
1.02361
1.02257
1.02068
1.01736
1.01318
1.00813
1.00279
0.997484
0.992701
0.988565
0.985386
1.02346
1.02397
1.02291
1.021
1.01761
1.01335
1.0082
1.00276
0.997359
0.992498
0.988298
0.985075
1.02381
1.02433
1.02326
1.02132
1.01787
1.01352
1.00827
1.00273
0.997231
0.99229
0.988027
0.984759
1.02416
1.02469
1.02362
1.02164
1.01813
1.0137
1.00834
1.0027
0.997097
0.992073
0.987746
0.984433
1.02452
1.02507
1.02398
1.02198
1.0184
1.01388
1.00841
1.00266
0.996959
0.991852
0.987459
0.984101
1.02489
1.02546
1.02436
1.02232
1.01867
1.01406
1.00848
1.00262
0.996814
0.991622
0.987162
0.983757
1.02527
1.02585
1.02474
1.02266
1.01895
1.01425
1.00856
1.00258
0.996665
0.991386
0.986859
0.983408
1.02566
1.02625
1.02513
1.02302
1.01924
1.01443
1.00863
1.00253
0.996509
0.991141
0.986545
0.983047
1.02605
1.02666
1.02553
1.02338
1.01953
1.01462
1.0087
1.00248
0.996348
0.99089
0.986225
0.98268
1.02646
1.02708
1.02594
1.02376
1.01983
1.01482
1.00876
1.00242
0.996178
0.990629
0.985893
0.9823
1.02687
1.02751
1.02636
1.02414
1.02013
1.01501
1.00883
1.00236
0.996004
0.990361
0.985554
0.981913
1.02729
1.02796
1.02679
1.02453
1.02044
1.01521
1.0089
1.0023
0.995821
0.990082
0.985203
0.981514
1.02772
1.02841
1.02723
1.02493
1.02076
1.01541
1.00897
1.00223
0.995632
0.989797
0.984844
0.981106
1.02816
1.02887
1.02768
1.02533
1.02108
1.01561
1.00903
1.00215
0.995433
0.9895
0.984473
0.980686
1.02862
1.02934
1.02814
1.02575
1.02141
1.01582
1.00909
1.00208
0.995228
0.989195
0.984093
0.980257
1.02908
1.02982
1.02861
1.02618
1.02174
1.01603
1.00915
1.00199
0.995013
0.988877
0.983699
0.979814
1.02955
1.03032
1.0291
1.02662
1.02209
1.01624
1.00921
1.0019
0.994791
0.988551
0.983297
0.979362
1.03003
1.03082
1.02959
1.02706
1.02244
1.01645
1.00926
1.0018
0.994558
0.988212
0.982881
0.978895
1.03053
1.03134
1.0301
1.02752
1.02279
1.01667
1.00932
1.0017
0.994316
0.987864
0.982454
0.978419
1.03104
1.03187
1.03062
1.02799
1.02316
1.01688
1.00937
1.00158
0.994063
0.987502
0.982013
0.977927
1.03155
1.03242
1.03115
1.02847
1.02353
1.0171
1.00941
1.00146
0.993801
0.987129
0.981561
0.977425
1.03208
1.03298
1.0317
1.02896
1.02391
1.01732
1.00946
1.00133
0.993526
0.986742
0.981093
0.976907
1.03263
1.03355
1.03226
1.02946
1.02429
1.01755
1.0095
1.0012
0.993241
0.986343
0.980614
0.976378
1.03318
1.03414
1.03284
1.02998
1.02469
1.01777
1.00953
1.00105
0.992942
0.985929
0.980118
0.975832
1.03376
1.03474
1.03343
1.03051
1.02509
1.018
1.00956
1.00089
0.992632
0.985502
0.97961
0.975274
1.03434
1.03535
1.03403
1.03105
1.0255
1.01822
1.00958
1.00073
0.992306
0.985058
0.979084
0.974698
1.03494
1.03599
1.03465
1.03161
1.02592
1.01845
1.0096
1.00055
0.991969
0.984601
0.978545
0.97411
1.03555
1.03664
1.03529
1.03218
1.02634
1.01868
1.00961
1.00036
0.991615
0.984126
0.977987
0.973503
1.03618
1.0373
1.03595
1.03276
1.02678
1.01891
1.00962
1.00016
0.991248
0.983637
0.977415
0.972882
1.03683
1.03799
1.03662
1.03336
1.02722
1.01913
1.00961
0.999944
0.990862
0.983128
0.976823
0.972242
1.03749
1.03869
1.03731
1.03397
1.02767
1.01936
1.0096
0.999716
0.990462
0.982603
0.976215
0.971587
1.03817
1.03942
1.03802
1.0346
1.02813
1.01959
1.00958
0.999472
0.990042
0.982057
0.975587
0.970912
1.03887
1.04016
1.03875
1.03524
1.0286
1.01981
1.00955
0.999214
0.989605
0.981494
0.974942
0.970221
1.03959
1.04092
1.0395
1.0359
1.02907
1.02004
1.00951
0.998937
0.989148
0.980909
0.974275
0.969508
1.04032
1.04171
1.04028
1.03658
1.02956
1.02026
1.00945
0.998644
0.988672
0.980306
0.97359
0.968779
1.04108
1.04251
1.04107
1.03728
1.03005
1.02048
1.00939
0.998332
0.988172
0.979678
0.972882
0.968028
1.04185
1.04334
1.04189
1.03799
1.03055
1.02069
1.00931
0.998
0.987653
0.97903
0.972154
0.967258
1.04265
1.0442
1.04273
1.03872
1.03106
1.0209
1.00921
0.997647
0.987108
0.978357
0.971402
0.966466
1.04347
1.04508
1.04359
1.03947
1.03157
1.0211
1.0091
0.997272
0.986541
0.977661
0.970629
0.965653
1.04432
1.04598
1.04448
1.04024
1.03209
1.0213
1.00897
0.996873
0.985946
0.976939
0.96983
0.964817
1.04519
1.04691
1.0454
1.04104
1.03262
1.02149
1.00882
0.99645
0.985326
0.976192
0.969009
0.96396
1.04608
1.04787
1.04635
1.04185
1.03316
1.02166
1.00865
0.995998
0.984677
0.975416
0.96816
0.963078
1.047
1.04886
1.04733
1.04268
1.0337
1.02183
1.00846
0.995521
0.984
0.974614
0.967288
0.962174
1.04795
1.04988
1.04833
1.04353
1.03425
1.02199
1.00825
0.995012
0.983291
0.973782
0.966387
0.961243
1.04892
1.05094
1.04937
1.04441
1.0348
1.02213
1.00801
0.994472
0.982552
0.972921
0.96546
0.960289
1.04993
1.05202
1.05044
1.04531
1.03536
1.02226
1.00774
0.993898
0.981777
0.972027
0.964503
0.959307
1.05096
1.05315
1.05154
1.04623
1.03592
1.02237
1.00744
0.99329
0.980969
0.971102
0.963519
0.9583
1.05203
1.0543
1.05268
1.04717
1.03648
1.02246
1.0071
0.992644
0.980123
0.970142
0.962503
0.957265
1.05313
1.0555
1.05386
1.04814
1.03704
1.02253
1.00674
0.991958
0.97924
0.969149
0.961457
0.956203
1.05427
1.05674
1.05508
1.04913
1.0376
1.02257
1.00633
0.99123
0.978316
0.968119
0.960378
0.955111
1.05544
1.05802
1.05634
1.05015
1.03815
1.02259
1.00588
0.990458
0.977352
0.967053
0.959268
0.953992
1.05666
1.05934
1.05764
1.05119
1.0387
1.02257
1.00539
0.989639
0.976342
0.965947
0.958123
0.95284
1.05791
1.06071
1.05898
1.05225
1.03925
1.02252
1.00485
0.98877
0.975289
0.964803
0.956945
0.95166
1.0592
1.06213
1.06037
1.05334
1.03978
1.02244
1.00426
0.987849
0.974187
0.963617
0.95573
0.950447
1.06054
1.0636
1.06181
1.05446
1.0403
1.02231
1.00361
0.986873
0.973038
0.96239
0.95448
0.949203
1.06193
1.06513
1.0633
1.05559
1.04081
1.02213
1.0029
0.985838
0.971836
0.961118
0.953192
0.947925
1.06336
1.06671
1.06484
1.05675
1.04129
1.0219
1.00213
0.984743
0.970582
0.959803
0.951867
0.946614
1.06484
1.06835
1.06644
1.05793
1.04175
1.02161
1.00129
0.983583
0.969271
0.95844
0.950501
0.945268
1.06638
1.07006
1.06809
1.05912
1.04219
1.02126
1.00038
0.982355
0.967904
0.95703
0.949097
0.943889
1.06797
1.07184
1.0698
1.06034
1.04258
1.02084
0.999387
0.981055
0.966477
0.955571
0.947651
0.942472
1.06962
1.07369
1.07157
1.06157
1.04294
1.02034
0.998312
0.979682
0.964989
0.954063
0.946164
0.94102
1.07134
1.07561
1.07341
1.06281
1.04324
1.01976
0.997146
0.978229
0.963437
0.952502
0.944633
0.93953
1.07312
1.07761
1.07531
1.06407
1.04349
1.01909
0.995885
0.976694
0.961819
0.95089
0.943061
0.938003
1.07497
1.07971
1.07728
1.06532
1.04367
1.01831
0.994521
0.975074
0.960133
0.949223
0.941443
0.936436
1.0769
1.08189
1.07932
1.06658
1.04378
1.01742
0.993049
0.973365
0.958379
0.947502
0.939781
0.934831
1.0789
1.08417
1.08143
1.06782
1.0438
1.0164
0.991461
0.971562
0.956551
0.945724
0.938073
0.933186
1.08099
1.08655
1.08362
1.06905
1.04372
1.01526
0.989751
0.969663
0.954651
0.94389
0.936319
0.931501
1.08317
1.08905
1.08587
1.07026
1.04353
1.01397
0.98791
0.967663
0.952675
0.941998
0.934518
0.929773
1.08544
1.09166
1.0882
1.07143
1.0432
1.01252
0.985934
0.965561
0.950622
0.940047
0.93267
0.928005
1.08781
1.0944
1.0906
1.07255
1.04273
1.0109
0.983813
0.963351
0.948491
0.938037
0.930774
0.926194
1.09029
1.09728
1.09308
1.0736
1.04209
1.00909
0.981541
0.961032
0.946281
0.935967
0.92883
0.92434
1.09289
1.1003
1.09561
1.07458
1.04127
1.00708
0.979111
0.958599
0.943989
0.933836
0.926837
0.922443
1.09562
1.10347
1.09821
1.07545
1.04023
1.00486
0.976517
0.956053
0.941617
0.931645
0.924796
0.920504
1.09848
1.1068
1.10087
1.0762
1.03896
1.00241
0.973752
0.953389
0.939162
0.929393
0.922706
0.91852
1.10148
1.11031
1.10357
1.07679
1.03742
0.99971
0.97081
0.950608
0.936626
0.927081
0.920567
0.916494
1.10465
1.114
1.1063
1.07719
1.03559
0.996748
0.967686
0.947707
0.934007
0.924708
0.918379
0.914423
1.10799
1.11789
1.10905
1.07738
1.03343
0.993507
0.964377
0.944687
0.931308
0.922277
0.916143
0.912309
1.11152
1.12198
1.1118
1.0773
1.03091
0.989973
0.960879
0.941549
0.928528
0.919785
0.913859
0.910151
1.11525
1.12628
1.11451
1.07691
1.028
0.986132
0.957191
0.938293
0.925669
0.917237
0.911527
0.907949
1.11921
1.13081
1.11715
1.07616
1.02465
0.981971
0.953312
0.934922
0.922733
0.914632
0.909147
0.905702
1.12342
1.13556
1.11969
1.07498
1.02083
0.97748
0.949245
0.931439
0.919723
0.911972
0.906722
0.903412
1.1279
1.14054
1.12208
1.07332
1.0165
0.97265
0.944993
0.927848
0.91664
0.909259
0.90425
0.901078
1.13269
1.14575
1.12424
1.07109
1.01162
0.967478
0.940562
0.924154
0.913489
0.906495
0.901734
0.8987
1.13782
1.15118
1.12612
1.06822
1.00616
0.961963
0.935962
0.920363
0.910274
0.903683
0.899174
0.896278
1.14332
1.15682
1.12762
1.06462
1.00007
0.95611
0.931204
0.916484
0.906998
0.900825
0.896572
0.893813
1.14924
1.16264
1.12863
1.0602
0.993329
0.94993
0.926302
0.912522
0.903667
0.897925
0.893929
0.891305
1.15562
1.16862
1.12905
1.05486
0.985918
0.943442
0.921272
0.908488
0.900287
0.894985
0.891245
0.888754
1.16252
1.17468
1.12873
1.04849
0.977822
0.936671
0.916134
0.904392
0.896863
0.892009
0.888523
0.886162
1.16999
1.18076
1.12749
1.041
0.969042
0.92965
0.91091
0.900244
0.893401
0.889
0.885765
0.883528
1.1781
1.18675
1.12517
1.03229
0.959592
0.922423
0.905624
0.896054
0.889908
0.885963
0.88297
0.880855
1.18691
1.19252
1.12156
1.02227
0.949508
0.915042
0.900301
0.891836
0.886391
0.882902
0.880142
0.878143
1.19649
1.19791
1.11641
1.01086
0.938848
0.907565
0.894967
0.8876
0.882858
0.879819
0.877282
0.875393
1.20691
1.20268
1.10948
0.998008
0.927698
0.900059
0.889649
0.883357
0.879315
0.87672
0.874393
0.872608
1.21823
1.20655
1.1005
0.983703
0.916169
0.892598
0.88437
0.879119
0.875769
0.873608
0.871477
0.869791
1.23051
1.20917
1.08918
0.967973
0.904407
0.885255
0.879156
0.874898
0.872228
0.870488
0.868537
0.866944
1.24377
1.21011
1.07523
0.95091
0.892584
0.878103
0.874024
0.870702
0.868698
0.867366
0.865584
0.864071
1.25799
1.20882
1.05839
0.932689
0.880899
0.871211
0.868993
0.866541
0.865186
0.864242
0.862613
0.861165
1.27311
1.20464
1.03841
0.91358
0.869559
0.864628
0.86407
0.86243
0.861717
0.861161
0.859682
0.858272
1.28895
1.19677
1.01516
0.893975
0.858798
0.858409
0.859253
0.858333
0.858221
0.858008
0.856665
0.855287
1.3052
1.18425
0.988623
0.874337
0.848753
0.852553
0.85463
0.854457
0.855007
0.855172
0.853925
0.852453
1.32134
1.16594
0.959136
0.855447
0.83971
0.846876
0.849695
0.85008
0.851212
0.851836
0.850781
0.849302
1.33638
1.14042
0.927137
0.837517
0.832079
0.842581
0.846246
0.847259
0.848858
0.849655
0.84844
0.846601
1.34918
1.10686
0.895713
0.820838
0.822865
0.835204
0.839681
0.841894
0.84476
0.846366
0.845346
0.843269
1.35611
1.0609
0.869126
0.814293
0.82264
0.834419
0.83761
0.839495
0.842623
0.844515
0.84351
0.841251
1.35866
0.988566
0.818714
0.789811
0.811636
0.82891
0.834523
0.837825
0.841825
0.844167
0.843381
0.841229
0.995737
0.995854
0.996546
0.997128
0.997285
0.997072
0.996753
0.996564
0.996579
0.996726
0.996896
0.997023
0.996207
0.996197
0.996694
0.997135
0.997243
0.997053
0.996774
0.996604
0.996613
0.996745
0.996904
0.997029
0.996715
0.996532
0.99678
0.997056
0.997136
0.997008
0.996802
0.996663
0.996661
0.996767
0.996909
0.997031
0.997064
0.996739
0.996793
0.996964
0.997055
0.997004
0.996866
0.996747
0.996723
0.996796
0.996916
0.997031
0.997249
0.996851
0.996805
0.996932
0.997043
0.997042
0.99694
0.996823
0.996774
0.996816
0.996916
0.997023
0.99735
0.996946
0.996863
0.996963
0.997069
0.997078
0.996987
0.996868
0.996804
0.996827
0.996912
0.997012
0.997441
0.997059
0.996955
0.997017
0.997094
0.997094
0.997008
0.996897
0.996831
0.996843
0.996914
0.997005
0.997542
0.997179
0.99705
0.997067
0.997109
0.997099
0.997023
0.996924
0.99686
0.996862
0.996919
0.996999
0.997639
0.997284
0.997128
0.997106
0.997122
0.997105
0.997038
0.996949
0.996886
0.996877
0.99692
0.99699
0.997714
0.997366
0.997191
0.997142
0.997137
0.997114
0.997052
0.996969
0.996904
0.996888
0.996921
0.996983
0.997768
0.99743
0.997244
0.997177
0.997155
0.997123
0.997061
0.996981
0.996918
0.996898
0.996922
0.996976
0.997807
0.997482
0.997292
0.997209
0.997171
0.997129
0.997066
0.99699
0.996929
0.996906
0.996923
0.996968
0.997837
0.997527
0.997333
0.997236
0.997183
0.997133
0.997069
0.996996
0.996938
0.996912
0.996921
0.996958
0.997862
0.997563
0.997366
0.997257
0.997192
0.997136
0.997071
0.997001
0.996943
0.996913
0.996916
0.996945
0.997879
0.99759
0.997391
0.997273
0.997199
0.997137
0.997072
0.997002
0.996944
0.996911
0.996908
0.996931
0.99789
0.997609
0.99741
0.997285
0.997204
0.997138
0.99707
0.997
0.996941
0.996906
0.996899
0.996918
0.997895
0.997622
0.997423
0.997295
0.997207
0.997135
0.997064
0.996994
0.996934
0.996898
0.996889
0.996906
0.997896
0.997631
0.997434
0.9973
0.997207
0.99713
0.997056
0.996985
0.996925
0.996889
0.996879
0.996894
0.997894
0.997636
0.997439
0.997302
0.997203
0.997121
0.997045
0.996974
0.996915
0.996879
0.996869
0.996882
0.997889
0.997638
0.997441
0.997299
0.997195
0.99711
0.997033
0.996962
0.996904
0.996869
0.996858
0.99687
0.997882
0.997635
0.997437
0.997292
0.997185
0.997098
0.997019
0.996949
0.996892
0.996857
0.996846
0.996857
0.997871
0.997628
0.99743
0.997283
0.997173
0.997084
0.997006
0.996935
0.99688
0.996845
0.996833
0.996842
0.997856
0.997617
0.99742
0.997272
0.99716
0.99707
0.996991
0.996921
0.996866
0.996831
0.996818
0.996825
0.997839
0.997604
0.997408
0.997259
0.997147
0.997056
0.996976
0.996906
0.996851
0.996815
0.996801
0.996806
0.99782
0.997589
0.997394
0.997245
0.997132
0.99704
0.99696
0.99689
0.996834
0.996797
0.996781
0.996785
0.997799
0.997573
0.99738
0.997231
0.997117
0.997024
0.996943
0.996872
0.996815
0.996777
0.99676
0.996763
0.997778
0.997555
0.997364
0.997215
0.9971
0.997006
0.996924
0.996852
0.996793
0.996755
0.996736
0.996738
0.997755
0.997537
0.997348
0.997198
0.997082
0.996987
0.996903
0.99683
0.99677
0.996731
0.996711
0.996712
0.997732
0.997518
0.99733
0.99718
0.997062
0.996965
0.99688
0.996806
0.996745
0.996705
0.996685
0.996685
0.997709
0.997498
0.997311
0.99716
0.99704
0.996942
0.996855
0.99678
0.996719
0.996678
0.996657
0.996658
0.997684
0.997477
0.99729
0.997137
0.997015
0.996916
0.996828
0.996752
0.996691
0.996649
0.996628
0.996629
0.997659
0.997454
0.997267
0.997113
0.996989
0.996888
0.9968
0.996723
0.996662
0.99662
0.996598
0.996599
0.997632
0.997429
0.997241
0.997085
0.99696
0.996858
0.996769
0.996693
0.996631
0.996589
0.996567
0.996568
0.997604
0.997402
0.997214
0.997056
0.996929
0.996826
0.996737
0.996661
0.996599
0.996557
0.996536
0.996536
0.997574
0.997373
0.997184
0.997024
0.996895
0.996792
0.996703
0.996627
0.996566
0.996524
0.996503
0.996504
0.997544
0.997343
0.997153
0.996991
0.996861
0.996757
0.996668
0.996593
0.996531
0.99649
0.996469
0.996471
0.997512
0.997311
0.997119
0.996955
0.996824
0.996719
0.996631
0.996556
0.996495
0.996454
0.996434
0.996437
0.997479
0.997278
0.997084
0.996918
0.996785
0.996681
0.996593
0.996518
0.996458
0.996418
0.996398
0.996402
0.997446
0.997243
0.997047
0.996879
0.996745
0.99664
0.996553
0.996478
0.996419
0.99638
0.996362
0.996367
0.997412
0.997208
0.997009
0.996838
0.996703
0.996598
0.996511
0.996438
0.996379
0.996341
0.996324
0.99633
0.997377
0.99717
0.996969
0.996796
0.99666
0.996554
0.996468
0.996395
0.996338
0.996301
0.996285
0.996292
0.997342
0.997132
0.996928
0.996753
0.996616
0.99651
0.996424
0.996352
0.996296
0.99626
0.996245
0.996253
0.997306
0.997093
0.996886
0.996708
0.99657
0.996463
0.996378
0.996307
0.996252
0.996217
0.996204
0.996213
0.997268
0.997053