/*--------------------------------*- C++ -*----------------------------------*\
  =========                 |
  \\      /  F ield         | OpenFOAM: The Open Source CFD Toolbox
   \\    /   O peration     | Website:  https://openfoam.org
    \\  /    A nd           | Version:  6.0
     \\/     M anipulation  |
\*---------------------------------------------------------------------------*/
FoamFile
{
    version     2.0;
    format      ascii;
    class       volScalarField;
    location    "1.4";
    object      p;
}
// * * * * * * * * * * * * * * * * * * * * * * * * * * * * * * * * * * * * * //

dimensions      [0 2 -2 0 0 0 0];

internalField   nonuniform List<scalar> 
34500
(
1.00574
1.00573
1.00554
1.00522
1.00479
1.00428
1.00372
1.00312
1.00253
1.00196
1.00145
1.001
1.00062
1.00035
1.00019
1.00575
1.00576
1.00562
1.00537
1.00501
1.00458
1.00407
1.00351
1.00292
1.00233
1.00176
1.00125
1.00078
1.00046
1.00022
1.00575
1.00575
1.00558
1.00529
1.0049
1.00442
1.00388
1.0033
1.0027
1.00211
1.00156
1.00107
1.00064
1.00036
1.00014
1.00575
1.00574
1.00556
1.00524
1.00481
1.0043
1.00373
1.00313
1.00253
1.00195
1.00141
1.00095
1.00055
1.0003
1.00011
1.00576
1.00575
1.00557
1.00525
1.00482
1.00431
1.00374
1.00315
1.00255
1.00197
1.00143
1.00096
1.00056
1.00031
1.00012
1.00576
1.00576
1.00559
1.00528
1.00486
1.00436
1.0038
1.00321
1.0026
1.00202
1.00147
1.001
1.00059
1.00032
1.00012
1.00577
1.00577
1.0056
1.0053
1.00489
1.00439
1.00383
1.00324
1.00263
1.00204
1.00149
1.00101
1.00059
1.00032
1.0001
1.00578
1.00578
1.00562
1.00532
1.00491
1.00441
1.00385
1.00325
1.00264
1.00205
1.0015
1.00101
1.00059
1.00031
1.00008
1.00579
1.0058
1.00563
1.00534
1.00493
1.00444
1.00387
1.00327
1.00266
1.00206
1.0015
1.00101
1.00058
1.00029
1.00006
1.0058
1.00581
1.00565
1.00536
1.00495
1.00446
1.00389
1.00329
1.00267
1.00207
1.0015
1.001
1.00057
1.00027
1.00003
1.00582
1.00583
1.00567
1.00537
1.00497
1.00447
1.00391
1.0033
1.00268
1.00207
1.0015
1.00099
1.00055
1.00024
1.00001
1.00583
1.00584
1.00568
1.00539
1.00498
1.00448
1.00391
1.00331
1.00268
1.00207
1.00149
1.00098
1.00053
1.00022
0.999979
1.00585
1.00586
1.0057
1.0054
1.00499
1.00449
1.00392
1.00331
1.00268
1.00206
1.00148
1.00096
1.00051
1.0002
0.999952
1.00587
1.00588
1.00572
1.00542
1.00501
1.0045
1.00393
1.00331
1.00268
1.00206
1.00147
1.00095
1.0005
1.00018
0.999925
1.00588
1.00589
1.00574
1.00544
1.00503
1.00452
1.00394
1.00332
1.00268
1.00206
1.00147
1.00094
1.00048
1.00015
0.999897
1.0059
1.00591
1.00576
1.00546
1.00505
1.00454
1.00396
1.00334
1.00269
1.00206
1.00147
1.00094
1.00047
1.00013
0.999868
1.00592
1.00594
1.00578
1.00549
1.00507
1.00456
1.00398
1.00335
1.00271
1.00207
1.00147
1.00093
1.00046
1.00011
0.999836
1.00595
1.00596
1.0058
1.00551
1.0051
1.00459
1.004
1.00337
1.00272
1.00207
1.00146
1.00092
1.00044
1.00008
0.999802
1.00597
1.00598
1.00583
1.00554
1.00512
1.00461
1.00402
1.00338
1.00273
1.00208
1.00146
1.00091
1.00042
1.00005
0.999768
1.006
1.00601
1.00585
1.00556
1.00514
1.00463
1.00404
1.0034
1.00273
1.00208
1.00145
1.00089
1.0004
1.00002
0.999732
1.00602
1.00604
1.00588
1.00559
1.00517
1.00465
1.00405
1.00341
1.00274
1.00207
1.00144
1.00087
1.00037
0.999994
0.999696
1.00605
1.00607
1.00591
1.00561
1.00519
1.00467
1.00407
1.00342
1.00274
1.00207
1.00143
1.00086
1.00035
0.999964
0.99966
1.00608
1.0061
1.00594
1.00564
1.00522
1.00469
1.00408
1.00343
1.00274
1.00207
1.00142
1.00084
1.00033
0.999934
0.999624
1.00611
1.00613
1.00597
1.00567
1.00525
1.00472
1.0041
1.00344
1.00275
1.00207
1.00142
1.00083
1.00031
0.999904
0.999586
1.00614
1.00616
1.006
1.0057
1.00528
1.00474
1.00413
1.00346
1.00276
1.00207
1.00141
1.00081
1.00029
0.999872
0.999547
1.00617
1.00619
1.00604
1.00574
1.00531
1.00477
1.00415
1.00347
1.00277
1.00207
1.0014
1.0008
1.00026
0.999839
0.999507
1.0062
1.00623
1.00607
1.00577
1.00534
1.0048
1.00417
1.00349
1.00278
1.00207
1.00139
1.00078
1.00023
0.999805
0.999465
1.00624
1.00626
1.00611
1.00581
1.00537
1.00483
1.0042
1.00351
1.00279
1.00207
1.00138
1.00076
1.00021
0.999768
0.999422
1.00628
1.0063
1.00614
1.00584
1.00541
1.00486
1.00422
1.00352
1.0028
1.00207
1.00137
1.00074
1.00018
0.99973
0.999378
1.00631
1.00634
1.00618
1.00588
1.00544
1.00488
1.00424
1.00354
1.0028
1.00207
1.00136
1.00071
1.00015
0.999692
0.999334
1.00635
1.00638
1.00622
1.00591
1.00547
1.00491
1.00426
1.00355
1.0028
1.00206
1.00134
1.00069
1.00011
0.999653
0.999288
1.00639
1.00642
1.00626
1.00595
1.0055
1.00494
1.00428
1.00356
1.00281
1.00205
1.00133
1.00067
1.00008
0.999613
0.999242
1.00643
1.00646
1.0063
1.00599
1.00554
1.00497
1.0043
1.00357
1.00281
1.00205
1.00132
1.00064
1.00005
0.999573
0.999195
1.00648
1.0065
1.00634
1.00603
1.00557
1.005
1.00433
1.00359
1.00282
1.00205
1.0013
1.00062
1.00002
0.999532
0.999147
1.00652
1.00655
1.00639
1.00607
1.00561
1.00503
1.00435
1.00361
1.00283
1.00204
1.00129
1.0006
0.999985
0.99949
0.999098
1.00657
1.0066
1.00643
1.00611
1.00565
1.00506
1.00438
1.00362
1.00283
1.00204
1.00128
1.00057
0.99995
0.999446
0.999047
1.00661
1.00664
1.00648
1.00616
1.00569
1.0051
1.0044
1.00364
1.00284
1.00204
1.00126
1.00055
0.999914
0.999401
0.998995
1.00666
1.00669
1.00653
1.0062
1.00573
1.00513
1.00443
1.00366
1.00285
1.00203
1.00125
1.00052
0.999877
0.999355
0.998941
1.00671
1.00674
1.00658
1.00625
1.00578
1.00517
1.00446
1.00368
1.00286
1.00203
1.00123
1.00049
0.999838
0.999308
0.998886
1.00677
1.0068
1.00663
1.0063
1.00582
1.00521
1.00449
1.0037
1.00286
1.00202
1.00121
1.00046
0.999799
0.999259
0.998831
1.00682
1.00685
1.00668
1.00635
1.00586
1.00524
1.00452
1.00371
1.00287
1.00202
1.00119
1.00043
0.999758
0.999209
0.998773
1.00687
1.00691
1.00674
1.0064
1.00591
1.00528
1.00455
1.00373
1.00288
1.00201
1.00118
1.0004
0.999717
0.999158
0.998715
1.00693
1.00696
1.00679
1.00645
1.00596
1.00532
1.00458
1.00375
1.00288
1.00201
1.00116
1.00037
0.999674
0.999106
0.998655
1.00699
1.00702
1.00685
1.0065
1.006
1.00536
1.00461
1.00377
1.00289
1.002
1.00114
1.00034
0.99963
0.999053
0.998594
1.00705
1.00708
1.00691
1.00656
1.00605
1.0054
1.00464
1.00379
1.0029
1.00199
1.00112
1.00031
0.999586
0.998998
0.998531
1.00711
1.00714
1.00697
1.00662
1.0061
1.00545
1.00467
1.00381
1.00291
1.00199
1.0011
1.00027
0.999539
0.998942
0.998466
1.00717
1.00721
1.00703
1.00667
1.00616
1.00549
1.0047
1.00383
1.00291
1.00198
1.00108
1.00024
0.999492
0.998884
0.9984
1.00723
1.00727
1.00709
1.00673
1.00621
1.00553
1.00474
1.00385
1.00292
1.00197
1.00105
1.0002
0.999443
0.998825
0.998333
1.0073
1.00734
1.00715
1.00679
1.00626
1.00558
1.00477
1.00388
1.00293
1.00197
1.00103
1.00017
0.999393
0.998764
0.998264
1.00737
1.00741
1.00722
1.00686
1.00632
1.00563
1.00481
1.0039
1.00293
1.00196
1.00101
1.00013
0.999342
0.998702
0.998194
1.00743
1.00748
1.00729
1.00692
1.00638
1.00567
1.00484
1.00392
1.00294
1.00195
1.00098
1.00009
0.99929
0.998639
0.998121
1.0075
1.00755
1.00736
1.00699
1.00643
1.00572
1.00488
1.00394
1.00295
1.00194
1.00096
1.00005
0.999237
0.998574
0.998047
1.00758
1.00762
1.00743
1.00705
1.00649
1.00577
1.00492
1.00397
1.00296
1.00193
1.00094
1.00001
0.999182
0.998507
0.997972
1.00765
1.0077
1.0075
1.00712
1.00656
1.00582
1.00496
1.00399
1.00297
1.00192
1.00091
0.999968
0.999126
0.998439
0.997894
1.00773
1.00777
1.00758
1.00719
1.00662
1.00588
1.005
1.00402
1.00297
1.00192
1.00088
0.999925
0.999068
0.998369
0.997815
1.0078
1.00785
1.00765
1.00726
1.00668
1.00593
1.00504
1.00404
1.00298
1.00191
1.00086
0.999881
0.999009
0.998298
0.997734
1.00788
1.00793
1.00773
1.00734
1.00675
1.00599
1.00508
1.00407
1.00299
1.0019
1.00083
0.999836
0.998948
0.998224
0.997651
1.00796
1.00801
1.00781
1.00741
1.00681
1.00604
1.00512
1.00409
1.003
1.00189
1.0008
0.99979
0.998886
0.99815
0.997566
1.00805
1.0081
1.00789
1.00749
1.00688
1.0061
1.00516
1.00412
1.00301
1.00188
1.00077
0.999742
0.998823
0.998073
0.997479
1.00813
1.00818
1.00797
1.00756
1.00695
1.00616
1.00521
1.00415
1.00302
1.00186
1.00074
0.999694
0.998758
0.997994
0.99739
1.00822
1.00827
1.00806
1.00764
1.00702
1.00622
1.00525
1.00417
1.00302
1.00185
1.00071
0.999644
0.998691
0.997914
0.997299
1.00831
1.00836
1.00815
1.00773
1.0071
1.00628
1.0053
1.0042
1.00303
1.00184
1.00068
0.999593
0.998623
0.997832
0.997206
1.0084
1.00845
1.00824
1.00781
1.00717
1.00634
1.00534
1.00423
1.00304
1.00183
1.00064
0.999541
0.998554
0.997748
0.997111
1.00849
1.00855
1.00833
1.00789
1.00725
1.0064
1.00539
1.00426
1.00305
1.00182
1.00061
0.999488
0.998483
0.997662
0.997013
1.00858
1.00864
1.00842
1.00798
1.00732
1.00647
1.00544
1.00429
1.00306
1.0018
1.00058
0.999434
0.99841
0.997574
0.996913
1.00868
1.00874
1.00851
1.00807
1.0074
1.00653
1.00549
1.00432
1.00307
1.00179
1.00054
0.999378
0.998335
0.997484
0.996812
1.00878
1.00884
1.00861
1.00816
1.00749
1.0066
1.00554
1.00435
1.00308
1.00178
1.00051
0.999321
0.998259
0.997392
0.996707
1.00888
1.00894
1.00871
1.00826
1.00757
1.00667
1.00559
1.00438
1.00309
1.00177
1.00047
0.999262
0.99818
0.997298
0.996601
1.00898
1.00905
1.00881
1.00835
1.00765
1.00674
1.00565
1.00441
1.0031
1.00175
1.00043
0.999202
0.9981
0.997201
0.996491
1.00909
1.00915
1.00891
1.00845
1.00774
1.00681
1.0057
1.00445
1.00311
1.00174
1.00039
0.999141
0.998019
0.997103
0.99638
1.0092
1.00926
1.00902
1.00855
1.00783
1.00689
1.00576
1.00448
1.00312
1.00172
1.00035
0.999078
0.997935
0.997002
0.996266
1.0093
1.00937
1.00913
1.00865
1.00792
1.00696
1.00581
1.00452
1.00313
1.00171
1.00031
0.999014
0.997849
0.996899
0.996149
1.00942
1.00949
1.00924
1.00875
1.00801
1.00704
1.00587
1.00455
1.00314
1.00169
1.00027
0.998948
0.997762
0.996793
0.99603
1.00953
1.0096
1.00935
1.00886
1.00811
1.00712
1.00593
1.00459
1.00315
1.00167
1.00023
0.998881
0.997672
0.996685
0.995908
1.00965
1.00972
1.00946
1.00897
1.0082
1.0072
1.00599
1.00462
1.00316
1.00166
1.00019
0.998812
0.99758
0.996575
0.995783
1.00977
1.00984
1.00958
1.00908
1.0083
1.00728
1.00605
1.00466
1.00317
1.00164
1.00014
0.998741
0.997487
0.996462
0.995655
1.00989
1.00996
1.0097
1.00919
1.0084
1.00736
1.00611
1.0047
1.00318
1.00162
1.0001
0.998669
0.997391
0.996347
0.995525
1.01001
1.01009
1.00982
1.0093
1.0085
1.00745
1.00618
1.00474
1.00319
1.00161
1.00005
0.998595
0.997293
0.996229
0.995392
1.01014
1.01022
1.00995
1.00942
1.00861
1.00754
1.00624
1.00478
1.0032
1.00159
1
0.99852
0.997193
0.996108
0.995255
1.01027
1.01035
1.01008
1.00954
1.00872
1.00763
1.00631
1.00482
1.00321
1.00157
0.999953
0.998443
0.99709
0.995985
0.995116
1.0104
1.01048
1.01021
1.00966
1.00883
1.00772
1.00638
1.00486
1.00323
1.00155
0.999902
0.998363
0.996985
0.995858
0.994973
1.01053
1.01062
1.01034
1.00979
1.00894
1.00781
1.00645
1.0049
1.00324
1.00153
0.999851
0.998283
0.996878
0.995729
0.994827
1.01067
1.01076
1.01047
1.00992
1.00905
1.00791
1.00652
1.00494
1.00325
1.00151
0.999798
0.9982
0.996768
0.995597
0.994678
1.01081
1.0109
1.01061
1.01005
1.00917
1.008
1.00659
1.00499
1.00326
1.00149
0.999744
0.998115
0.996656
0.995463
0.994526
1.01095
1.01105
1.01075
1.01018
1.00929
1.0081
1.00666
1.00503
1.00327
1.00146
0.999689
0.998028
0.996541
0.995325
0.994371
1.0111
1.01119
1.0109
1.01031
1.00941
1.0082
1.00674
1.00508
1.00328
1.00144
0.999632
0.997939
0.996424
0.995184
0.994212
1.01124
1.01134
1.01104
1.01045
1.00953
1.0083
1.00681
1.00512
1.0033
1.00142
0.999574
0.997849
0.996304
0.99504
0.994049
1.0114
1.0115
1.01119
1.01059
1.00966
1.00841
1.00689
1.00517
1.00331
1.0014
0.999514
0.997756
0.996181
0.994893
0.993883
1.01155
1.01165
1.01135
1.01074
1.00979
1.00852
1.00697
1.00522
1.00332
1.00137
0.999453
0.997661
0.996056
0.994742
0.993713
1.01171
1.01181
1.0115
1.01088
1.00992
1.00863
1.00705
1.00526
1.00333
1.00135
0.999391
0.997563
0.995928
0.994588
0.99354
1.01187
1.01198
1.01166
1.01103
1.01005
1.00874
1.00714
1.00531
1.00335
1.00132
0.999327
0.997464
0.995796
0.994431
0.993362
1.01203
1.01214
1.01182
1.01119
1.01019
1.00885
1.00722
1.00536
1.00336
1.00129
0.999261
0.997362
0.995662
0.994271
0.993181
1.0122
1.01231
1.01199
1.01134
1.01033
1.00897
1.00731
1.00542
1.00337
1.00127
0.999194
0.997258
0.995525
0.994106
0.992996
1.01237
1.01249
1.01216
1.0115
1.01047
1.00909
1.0074
1.00547
1.00338
1.00124
0.999125
0.997151
0.995385
0.993939
0.992807
1.01254
1.01266
1.01233
1.01167
1.01062
1.00921
1.00749
1.00552
1.0034
1.00121
0.999055
0.997042
0.995242
0.993767
0.992614
1.01272
1.01284
1.01251
1.01183
1.01077
1.00933
1.00758
1.00558
1.00341
1.00118
0.998982
0.99693
0.995095
0.993592
0.992416
1.0129
1.01303
1.01269
1.012
1.01092
1.00946
1.00767
1.00563
1.00342
1.00115
0.998908
0.996816
0.994945
0.993412
0.992215
1.01308
1.01322
1.01287
1.01218
1.01107
1.00959
1.00777
1.00569
1.00343
1.00111
0.998832
0.996699
0.994792
0.993229
0.992009
1.01327
1.01341
1.01306
1.01235
1.01123
1.00972
1.00787
1.00575
1.00345
1.00108
0.998754
0.996579
0.994635
0.993042
0.991798
1.01346
1.0136
1.01325
1.01253
1.01139
1.00986
1.00796
1.0058
1.00346
1.00105
0.998674
0.996456
0.994475
0.992851
0.991583
1.01365
1.0138
1.01344
1.01272
1.01156
1.00999
1.00807
1.00586
1.00347
1.00101
0.998592
0.996331
0.994311
0.992656
0.991364
1.01385
1.014
1.01364
1.01291
1.01172
1.01013
1.00817
1.00592
1.00349
1.00098
0.998508
0.996202
0.994144
0.992456
0.991139
1.01405
1.01421
1.01384
1.0131
1.0119
1.01027
1.00827
1.00598
1.0035
1.00094
0.998421
0.996071
0.993972
0.992252
0.99091
1.01426
1.01442
1.01405
1.01329
1.01207
1.01042
1.00838
1.00605
1.00351
1.0009
0.998333
0.995936
0.993797
0.992044
0.990676
1.01447
1.01464
1.01426
1.01349
1.01225
1.01057
1.00849
1.00611
1.00352
1.00086
0.998242
0.995798
0.993618
0.99183
0.990437
1.01469
1.01486
1.01447
1.0137
1.01243
1.01072
1.0086
1.00617
1.00354
1.00082
0.998149
0.995657
0.993435
0.991613
0.990193
1.01491
1.01508
1.01469
1.0139
1.01262
1.01088
1.00872
1.00624
1.00355
1.00078
0.998053
0.995512
0.993247
0.99139
0.989944
1.01513
1.01531
1.01492
1.01412
1.01281
1.01103
1.00883
1.00631
1.00356
1.00073
0.997955
0.995364
0.993056
0.991163
0.98969
1.01536
1.01554
1.01515
1.01433
1.013
1.01119
1.00895
1.00637
1.00357
1.00069
0.997854
0.995212
0.99286
0.990931
0.98943
1.01559
1.01578
1.01538
1.01456
1.0132
1.01136
1.00907
1.00644
1.00359
1.00064
0.997751
0.995057
0.99266
0.990694
0.989165
1.01583
1.01602
1.01562
1.01478
1.0134
1.01153
1.00919
1.00651
1.0036
1.00059
0.997645
0.994898
0.992455
0.990452
0.988894
1.01607
1.01627
1.01586
1.01501
1.01361
1.0117
1.00932
1.00658
1.00361
1.00054
0.997536
0.994735
0.992245
0.990204
0.988617
1.01631
1.01652
1.01611
1.01525
1.01382
1.01187
1.00945
1.00665
1.00362
1.00049
0.997424
0.994568
0.992031
0.989951
0.988335
1.01656
1.01678
1.01636
1.01549
1.01404
1.01205
1.00958
1.00673
1.00363
1.00044
0.997309
0.994397
0.991812
0.989692
0.988047
1.01682
1.01704
1.01662
1.01573
1.01426
1.01223
1.00971
1.0068
1.00364
1.00038
0.997191
0.994222
0.991587
0.989428
0.987752
1.01708
1.01731
1.01688
1.01598
1.01448
1.01242
1.00984
1.00688
1.00365
1.00033
0.99707
0.994043
0.991358
0.989158
0.987452
1.01735
1.01759
1.01715
1.01624
1.01471
1.01261
1.00998
1.00695
1.00366
1.00027
0.996945
0.993859
0.991123
0.988883
0.987145
1.01762
1.01787
1.01743
1.0165
1.01494
1.0128
1.01012
1.00703
1.00367
1.00021
0.996817
0.99367
0.990883
0.988601
0.986832
1.01789
1.01815
1.01771
1.01677
1.01518
1.013
1.01026
1.00711
1.00367
1.00014
0.996685
0.993477
0.990638
0.988313
0.986513
1.01818
1.01844
1.01799
1.01704
1.01543
1.0132
1.01041
1.00719
1.00368
1.00008
0.99655
0.993279
0.990386
0.988019
0.986187
1.01846
1.01874
1.01829
1.01732
1.01567
1.0134
1.01056
1.00727
1.00369
1.00001
0.99641
0.993076
0.990129
0.987719
0.985854
1.01876
1.01904
1.01858
1.0176
1.01593
1.01361
1.01071
1.00735
1.00369
0.999936
0.996267
0.992868
0.989866
0.987412
0.985514
1.01906
1.01935
1.01889
1.01789
1.01619
1.01383
1.01086
1.00743
1.0037
0.999863
0.99612
0.992655
0.989597
0.987098
0.985167
1.01936
1.01966
1.0192
1.01819
1.01645
1.01404
1.01102
1.00751
1.0037
0.999787
0.995968
0.992436
0.989322
0.986778
0.984813
1.01968
1.01998
1.01952
1.01849
1.01672
1.01427
1.01118
1.0076
1.0037
0.999708
0.995812
0.992212
0.98904
0.986451
0.984452
1.01999
1.02031
1.01984
1.0188
1.017
1.01449
1.01134
1.00768
1.00371
0.999626
0.995651
0.991982
0.988752
0.986116
0.984083
1.02032
1.02065
1.02017
1.01911
1.01728
1.01472
1.0115
1.00777
1.00371
0.99954
0.995486
0.991746
0.988457
0.985774
0.983707
1.02065
1.02099
1.02051
1.01943
1.01757
1.01496
1.01167
1.00785
1.0037
0.999452
0.995316
0.991504
0.988155
0.985425
0.983324
1.02099
1.02134
1.02086
1.01976
1.01786
1.0152
1.01184
1.00794
1.0037
0.99936
0.995141
0.991255
0.987846
0.985069
0.982932
1.02133
1.02169
1.02121
1.0201
1.01816
1.01545
1.01201
1.00803
1.0037
0.999264
0.99496
0.991
0.98753
0.984704
0.982532
1.02168
1.02206
1.02157
1.02044
1.01847
1.0157
1.01219
1.00812
1.00369
0.999165
0.994775
0.990739
0.987206
0.984332
0.982125
1.02204
1.02243
1.02194
1.02079
1.01878
1.01595
1.01237
1.0082
1.00368
0.999062
0.994583
0.990471
0.986875
0.983952
0.981709
1.02241
1.02281
1.02231
1.02115
1.0191
1.01621
1.01255
1.00829
1.00367
0.998955
0.994386
0.990195
0.986536
0.983563
0.981284
1.02278
1.02319
1.02269
1.02151
1.01943
1.01648
1.01273
1.00838
1.00366
0.998843
0.994182
0.989913
0.986189
0.983166
0.980852
1.02316
1.02359
1.02309
1.02189
1.01976
1.01675
1.01292
1.00847
1.00365
0.998727
0.993973
0.989623
0.985833
0.98276
0.98041
1.02355
1.02399
1.02349
1.02227
1.0201
1.01702
1.01311
1.00856
1.00363
0.998606
0.993757
0.989325
0.985469
0.982346
0.979959
1.02395
1.0244
1.0239
1.02266
1.02045
1.0173
1.0133
1.00865
1.00361
0.99848
0.993534
0.989019
0.985096
0.981922
0.9795
1.02435
1.02482
1.02431
1.02306
1.0208
1.01759
1.0135
1.00874
1.00359
0.998349
0.993304
0.988705
0.984715
0.98149
0.979031
1.02477
1.02525
1.02474
1.02347
1.02117
1.01788
1.0137
1.00883
1.00357
0.998213
0.993066
0.988382
0.984324
0.981048
0.978553
1.02519
1.02569
1.02518
1.02388
1.02154
1.01818
1.0139
1.00892
1.00354
0.99807
0.992822
0.988051
0.983924
0.980596
0.978065
1.02562
1.02614
1.02562
1.02431
1.02192
1.01849
1.01411
1.00901
1.00351
0.997922
0.992569
0.98771
0.983514
0.980135
0.977568
1.02606
1.0266
1.02608
1.02474
1.0223
1.0188
1.01431
1.0091
1.00347
0.997768
0.992308
0.987361
0.983095
0.979663
0.97706
1.02651
1.02707
1.02654
1.02519
1.0227
1.01911
1.01453
1.00919
1.00343
0.997607
0.992039
0.987001
0.982665
0.979181
0.976543
1.02697
1.02754
1.02702
1.02564
1.0231
1.01943
1.01474
1.00928
1.00339
0.997439
0.991761
0.986632
0.982225
0.978689
0.976015
1.02744
1.02803
1.02751
1.02611
1.02351
1.01976
1.01495
1.00937
1.00334
0.997264
0.991474
0.986253
0.981774
0.978186
0.975477
1.02792
1.02853
1.02801
1.02658
1.02393
1.0201
1.01517
1.00945
1.00329
0.997081
0.991177
0.985863
0.981312
0.977672
0.974929
1.02841
1.02904
1.02852
1.02707
1.02436
1.02044
1.01539
1.00954
1.00323
0.996891
0.990871
0.985462
0.980839
0.977147
0.974369
1.02891
1.02956
1.02904
1.02756
1.0248
1.02078
1.01562
1.00962
1.00317
0.996692
0.990554
0.98505
0.980355
0.976611
0.973798
1.02942
1.0301
1.02957
1.02807
1.02525
1.02113
1.01584
1.0097
1.0031
0.996485
0.990227
0.984626
0.979858
0.976063
0.973217
1.02994
1.03064
1.03011
1.02859
1.02571
1.02149
1.01607
1.00978
1.00303
0.996268
0.989889
0.98419
0.97935
0.975503
0.972624
1.03047
1.0312
1.03067
1.02912
1.02618
1.02186
1.0163
1.00985
1.00295
0.996042
0.989539
0.983742
0.978828
0.97493
0.972019
1.03101
1.03177
1.03124
1.02967
1.02665
1.02223
1.01653
1.00992
1.00286
0.995806
0.989177
0.983281
0.978295
0.974346
0.971402
1.03157
1.03235
1.03182
1.03022
1.02714
1.02261
1.01677
1.00999
1.00276
0.995559
0.988803
0.982808
0.977747
0.973749
0.970774
1.03214
1.03295
1.03242
1.03079
1.02764
1.023
1.017
1.01006
1.00266
0.995301
0.988416
0.98232
0.977187
0.973138
0.970133
1.03272
1.03356
1.03303
1.03138
1.02815
1.02339
1.01724
1.01012
1.00255
0.995032
0.988016
0.981819
0.976612
0.972515
0.96948
1.03331
1.03418
1.03366
1.03197
1.02867
1.02379
1.01748
1.01018
1.00243
0.994751
0.987602
0.981303
0.976024
0.971878
0.968814
1.03392
1.03482
1.0343
1.03258
1.0292
1.02419
1.01772
1.01023
1.00229
0.994457
0.987174
0.980772
0.975421
0.971227
0.968136
1.03454
1.03547
1.03495
1.03321
1.02975
1.0246
1.01796
1.01028
1.00215
0.994149
0.986731
0.980226
0.974803
0.970562
0.967444
1.03517
1.03614
1.03562
1.03385
1.0303
1.02502
1.0182
1.01032
1.002
0.993828
0.986272
0.979665
0.974169
0.969883
0.966739
1.03582
1.03682
1.03631
1.0345
1.03087
1.02545
1.01844
1.01036
1.00184
0.993492
0.985797
0.979087
0.97352
0.969189
0.966021
1.03649
1.03752
1.03701
1.03517
1.03145
1.02588
1.01868
1.01039
1.00167
0.993141
0.985306
0.978492
0.972855
0.96848
0.965289
1.03716
1.03824
1.03773
1.03585
1.03204
1.02632
1.01892
1.01041
1.00148
0.992774
0.984797
0.97788
0.972174
0.967756
0.964543
1.03786
1.03897
1.03847
1.03656
1.03264
1.02676
1.01915
1.01042
1.00128
0.992391
0.984271
0.97725
0.971475
0.967016
0.963783
1.03857
1.03972
1.03923
1.03727
1.03326
1.02721
1.01939
1.01042
1.00106
0.991989
0.983725
0.976601
0.97076
0.966261
0.963009
1.0393
1.04049
1.04
1.03801
1.03389
1.02767
1.01962
1.01042
1.00083
0.99157
0.98316
0.975934
0.970026
0.965489
0.96222
1.04004
1.04128
1.0408
1.03876
1.03453
1.02813
1.01985
1.0104
1.00059
0.991131
0.982576
0.975248
0.969275
0.964701
0.961416
1.0408
1.04208
1.04161
1.03954
1.03519
1.0286
1.02008
1.01037
1.00032
0.990672
0.98197
0.974541
0.968505
0.963897
0.960598
1.04158
1.04291
1.04244
1.04033
1.03586
1.02907
1.0203
1.01033
1.00004
0.990193
0.981343
0.973813
0.967716
0.963075
0.959765
1.04238
1.04376
1.0433
1.04114
1.03654
1.02955
1.02052
1.01028
0.999738
0.989691
0.980694
0.973065
0.966907
0.962236
0.958917
1.0432
1.04463
1.04418
1.04197
1.03724
1.03003
1.02073
1.01021
0.999416
0.989166
0.980021
0.972294
0.966079
0.96138
0.958053
1.04404
1.04552
1.04508
1.04282
1.03795
1.03051
1.02093
1.01012
0.999072
0.988617
0.979325
0.971501
0.965231
0.960506
0.957174
1.0449
1.04643
1.046
1.04369
1.03868
1.031
1.02113
1.01002
0.998706
0.988044
0.978603
0.970685
0.964362
0.959614
0.95628
1.04578
1.04736
1.04695
1.04458
1.03942
1.03149
1.02132
1.0099
0.998316
0.987444
0.977856
0.969845
0.963472
0.958703
0.955369
1.04668
1.04832
1.04792
1.04549
1.04017
1.03199
1.0215
1.00976
0.997901
0.986817
0.977082
0.968981
0.96256
0.957774
0.954443
1.0476
1.04931
1.04892
1.04643
1.04094
1.03249
1.02166
1.0096
0.997458
0.986161
0.976281
0.968092
0.961626
0.956826
0.9535
1.04855
1.05032
1.04994
1.04739
1.04172
1.03298
1.02182
1.00941
0.996987
0.985476
0.975452
0.967177
0.960671
0.955859
0.952541
1.04952
1.05136
1.05099
1.04838
1.04252
1.03348
1.02196
1.0092
0.996487
0.984759
0.974593
0.966236
0.959692
0.954873
0.951566
1.05051
1.05242
1.05207
1.04939
1.04333
1.03398
1.02208
1.00897
0.995954
0.98401
0.973704
0.965268
0.958691
0.953867
0.950574
1.05153
1.05351
1.05318
1.05042
1.04415
1.03447
1.02219
1.0087
0.995389
0.983228
0.972783
0.964273
0.957665
0.952841
0.949566
1.05258
1.05464
1.05432
1.05148
1.04499
1.03496
1.02227
1.00841
0.994788
0.982411
0.971831
0.963249
0.956616
0.951796
0.948541
1.05365
1.05579
1.05549
1.05257
1.04584
1.03545
1.02234
1.00808
0.994151
0.981557
0.970845
0.962197
0.955543
0.95073
0.947498
1.05476
1.05697
1.0567
1.05368
1.0467
1.03593
1.02238
1.00772
0.993475
0.980665
0.969825
0.961115
0.954445
0.949643
0.946439
1.05589
1.05819
1.05793
1.05482
1.04758
1.0364
1.0224
1.00732
0.992758
0.979734
0.96877
0.960004
0.953322
0.948536
0.945362
1.05705
1.05944
1.05921
1.05599
1.04847
1.03686
1.02238
1.00689
0.991998
0.978763
0.967679
0.958861
0.952173
0.947408
0.944269
1.05824
1.06073
1.06052
1.05719
1.04937
1.03731
1.02234
1.00641
0.991193
0.977749
0.966551
0.957688
0.950999
0.946258
0.943157
1.05947
1.06205
1.06187
1.05842
1.05028
1.03775
1.02226
1.00588
0.990342
0.976691
0.965385
0.956483
0.949799
0.945088
0.942029
1.06073
1.06341
1.06325
1.05968
1.0512
1.03816
1.02214
1.00531
0.989441
0.975588
0.96418
0.955245
0.948572
0.943895
0.940882
1.06203
1.06481
1.06468
1.06097
1.05212
1.03856
1.02198
1.00468
0.988488
0.974438
0.962935
0.953975
0.947319
0.942682
0.939719
1.06336
1.06626
1.06615
1.06229
1.05305
1.03894
1.02178
1.004
0.987481
0.97324
0.961649
0.952671
0.946039
0.941446
0.938537
1.06473
1.06774
1.06767
1.06364
1.05399
1.03929
1.02153
1.00327
0.986418
0.971992
0.960321
0.951333
0.944732
0.940189
0.937337
1.06613
1.06927
1.06923
1.06503
1.05493
1.0396
1.02123
1.00247
0.985297
0.970693
0.958951
0.949961
0.943397
0.938909
0.93612
1.06758
1.07085
1.07083
1.06644
1.05587
1.03989
1.02087
1.00161
0.984114
0.96934
0.957537
0.948554
0.942034
0.937608
0.934885
1.06907
1.07248
1.07249
1.06789
1.0568
1.04013
1.02044
1.00068
0.982868
0.967933
0.956079
0.947112
0.940644
0.936284
0.933632
1.07061
1.07415
1.0742
1.06936
1.05773
1.04034
1.01995
0.999679
0.981555
0.966471
0.954576
0.945635
0.939226
0.934939
0.932361
1.07219
1.07588
1.07596
1.07087
1.05865
1.04049
1.01939
0.998601
0.980174
0.964951
0.953028
0.944121
0.937779
0.933571
0.931073
1.07381
1.07767
1.07777
1.07241
1.05955
1.04059
1.01876
0.997444
0.978722
0.963373
0.951433
0.942572
0.936305
0.932181
0.929766
1.07549
1.07951
1.07965
1.07398
1.06044
1.04062
1.01803
0.996203
0.977196
0.961735
0.949791
0.940986
0.934802
0.930768
0.928442
1.07722
1.08142
1.08158
1.07558
1.06131
1.04059
1.01722
0.994874
0.975594
0.960035
0.948101
0.939363
0.933271
0.929334
0.927101
1.079
1.08339
1.08357
1.0772
1.06214
1.04048
1.01632
0.993453
0.973915
0.958274
0.946363
0.937704
0.931712
0.927878
0.925741
1.08084
1.08543
1.08563
1.07885
1.06294
1.04029
1.01531
0.991935
0.972154
0.956449
0.944577
0.936008
0.930125
0.9264
0.924365
1.08274
1.08754
1.08775
1.08051
1.0637
1.04001
1.0142
0.990317
0.970311
0.954559
0.942742
0.934275
0.928509
0.9249
0.922971
1.08469
1.08972
1.08994
1.0822
1.06441
1.03963
1.01296
0.988594
0.968384
0.952605
0.940858
0.932506
0.926866
0.923378
0.92156
1.08672
1.09199
1.0922
1.0839
1.06505
1.03913
1.01161
0.986762
0.966369
0.950584
0.938925
0.9307
0.925196
0.921836
0.920132
1.0888
1.09433
1.09453
1.08561
1.06563
1.03852
1.01012
0.984817
0.964266
0.948497
0.936943
0.928858
0.923498
0.920272
0.918688
1.09096
1.09677
1.09693
1.08732
1.06613
1.03777
1.0085
0.982756
0.962074
0.946344
0.934911
0.92698
0.921773
0.918688
0.917227
1.0932
1.09929
1.09941
1.08903
1.06653
1.03688
1.00673
0.980574
0.95979
0.944123
0.932832
0.925066
0.920022
0.917083
0.91575
1.09551
1.10192
1.10196
1.09073
1.06683
1.03583
1.00481
0.978269
0.957413
0.941835
0.930703
0.923117
0.918245
0.915459
0.914258
1.0979
1.10464
1.10458
1.09241
1.067
1.03461
1.00272
0.975837
0.954943
0.93948
0.928527
0.921134
0.916442
0.913815
0.91275
1.10038
1.10748
1.10727
1.09405
1.06704
1.03321
1.00047
0.973275
0.952379
0.937058
0.926304
0.919117
0.914615
0.912151
0.911226
1.10295
1.11043
1.11004
1.09565
1.06692
1.03161
0.99805
0.970581
0.949721
0.934569
0.924035
0.917067
0.912763
0.910469
0.909689
1.10562
1.11351
1.11288
1.0972
1.06663
1.0298
0.995443
0.967754
0.946969
0.932016
0.92172
0.914985
0.910887
0.908769
0.908136
1.10839
1.11671
1.11578
1.09866
1.06615
1.02777
0.992648
0.964791
0.944124
0.929398
0.91936
0.912872
0.908989
0.907052
0.90657
1.11127
1.12005
1.11874
1.10004
1.06545
1.0255
0.98966
0.961693
0.941185
0.926717
0.916958
0.910729
0.907068
0.905317
0.904991
1.11426
1.12354
1.12176
1.10129
1.0645
1.02297
0.986473
0.958457
0.938156
0.923974
0.914515
0.908557
0.905127
0.903567
0.903398
1.11738
1.12717
1.12483
1.10241
1.0633
1.02018
0.983083
0.955087
0.935036
0.921171
0.912032
0.906358
0.903165
0.9018
0.901793
1.12063
1.13096
1.12793
1.10336
1.0618
1.0171
0.979488
0.951582
0.931828
0.918311
0.90951
0.904132
0.901185
0.900019
0.900175
1.12402
1.13492
1.13104
1.10411
1.05999
1.01372
0.975685
0.947944
0.928535
0.915396
0.906953
0.901882
0.899186
0.898224
0.898546
1.12756
1.13904
1.13417
1.10463
1.05782
1.01004
0.971674
0.944177
0.92516
0.912428
0.904362
0.899609
0.89717
0.896415
0.896906
1.13126
1.14335
1.13727
1.10488
1.05529
1.00604
0.967455
0.940284
0.921706
0.90941
0.901739
0.897314
0.895139
0.894594
0.895256
1.13514
1.14784
1.14034
1.10483
1.05234
1.00171
0.963031
0.93627
0.918177
0.906345
0.899087
0.895
0.893094
0.892761
0.893596
1.13921
1.15251
1.14333
1.10442
1.04896
0.997049
0.958407
0.93214
0.914578
0.903238
0.896409
0.892668
0.891035
0.890918
0.891926
1.14349
1.15737
1.14621
1.10361
1.04512
0.992045
0.953588
0.927901
0.910912
0.900091
0.893707
0.890321
0.888964
0.889065
0.890247
1.148
1.16242
1.14894
1.10235
1.04078
0.986699
0.948583
0.923559
0.907186
0.896909
0.890985
0.88796
0.886883
0.887203
0.888561
1.15275
1.16765
1.15148
1.10058
1.03591
0.981012
0.943402
0.919122
0.903404
0.893695
0.888245
0.885588
0.884794
0.885333
0.886867
1.15776
1.17305
1.15376
1.09824
1.03051
0.97499
0.938056
0.9146
0.899573
0.890456
0.885491
0.883206
0.882696
0.883457
0.885166
1.16307
1.17862
1.15573
1.09528
1.02454
0.968642
0.932559
0.91
0.895699
0.887194
0.882726
0.880817
0.880594
0.881575
0.883458
1.16869
1.18433
1.15732
1.09162
1.01798
0.961983
0.926928
0.905334
0.891788
0.883916
0.879954
0.878424
0.878486
0.879688
0.881745
1.17466
1.19015
1.15843
1.08722
1.01083
0.955032
0.92118
0.90061
0.887848
0.880627
0.877178
0.876028
0.876377
0.877798
0.880027
1.18101
1.19605
1.15899
1.08199
1.00308
0.947812
0.915334
0.895839
0.883885
0.877331
0.874402
0.873633
0.874266
0.875905
0.878304
1.18777
1.20198
1.1589
1.07589
0.994741
0.940354
0.909409
0.891031
0.879908
0.874035
0.871629
0.87124
0.872157
0.874011
0.876577
1.19498
1.20789
1.15803
1.06885
0.98582
0.932691
0.903427
0.886198
0.875923
0.870744
0.868863
0.868852
0.87005
0.872117
0.874846
1.20268
1.21369
1.15628
1.06082
0.976341
0.924862
0.897407
0.881349
0.871938
0.867464
0.866109
0.866472
0.867947
0.870224
0.873113
1.2109
1.21929
1.15353
1.05176
0.966344
0.916911
0.891371
0.876496
0.867963
0.864202
0.86337
0.864103
0.86585
0.868332
0.871376
1.21968
1.22459
1.14962
1.04162
0.955877
0.908884
0.885339
0.871648
0.864006
0.860963
0.86065
0.861746
0.863761
0.866443
0.869638
1.22906
1.22945
1.14443
1.03039
0.945004
0.90083
0.879329
0.866818
0.860076
0.857753
0.857952
0.859405
0.861682
0.864558
0.867896
1.23907
1.23371
1.13779
1.01806
0.933803
0.892798
0.873359
0.862014
0.856182
0.85458
0.855282
0.857083
0.859613
0.862678
0.866153
1.24974
1.23719
1.12958
1.00467
0.922368
0.884837
0.867444
0.857249
0.852333
0.851448
0.852642
0.854781
0.857558
0.860803
0.864407