/*--------------------------------*- C++ -*----------------------------------*\
  =========                 |
  \\      /  F ield         | OpenFOAM: The Open Source CFD Toolbox
   \\    /   O peration     | Website:  https://openfoam.org
    \\  /    A nd           | Version:  6.0
     \\/     M anipulation  |
\*---------------------------------------------------------------------------*/
FoamFile
{
    version     2.0;
    format      ascii;
    class       surfaceScalarField;
    location    "1.4";
    object      phi;
}
// * * * * * * * * * * * * * * * * * * * * * * * * * * * * * * * * * * * * * //

dimensions      [0 3 -1 0 0 0 0];

internalField   nonuniform List<scalar> 
68636
(
3.02287e-05
0.00310561
1.88554e-09
6.08432e-05
0.00307075
9.10913e-05
0.00300255
0.00012048
0.00290152
0.000148622
0.0027687
0.000175171
0.00260553
0.000199814
0.00241381
0.000222266
0.00219566
0.000242269
0.00195351
0.000259597
0.00169001
0.000274051
0.00140809
0.000285471
0.00111081
0.000293731
0.00080148
0.000298726
0.000483321
0.000158882
0.000299891
2.99507e-05
0.00307565
5.10846e-09
6.0287e-05
0.00304041
9.02599e-05
0.00297258
0.000119381
0.0028724
0.000147266
0.00274081
0.000173573
0.00257922
0.000197991
0.00238939
0.000220238
0.00217341
0.000240059
0.00193368
0.000257229
0.00167283
0.000271553
0.00139376
0.000282868
0.00109948
0.000291066
0.00079327
0.00029596
0.00047841
0.000157619
0.000297195
2.96749e-05
0.00304597
8.49859e-09
5.97352e-05
0.00301035
8.94357e-05
0.00294287
0.000118292
0.00284354
0.000145924
0.00271318
0.000171992
0.00255315
0.000196188
0.00236519
0.000218233
0.00215136
0.000237874
0.00191404
0.000254887
0.00165582
0.00026908
0.00137957
0.000280291
0.00108827
0.000288416
0.000785149
0.000293302
0.000473529
0.000156255
0.000294684
2.94015e-05
0.00301656
1.19546e-08
5.91886e-05
0.00298057
8.86192e-05
0.00291344
0.000117213
0.00281495
0.000144594
0.00268579
0.000170426
0.00252731
0.000194402
0.00234121
0.000216246
0.00212951
0.000235708
0.00189457
0.000252566
0.00163896
0.00026663
0.0013655
0.000277736
0.00107716
0.000285782
0.000777097
0.000290647
0.000468655
0.000154786
0.000292099
2.91305e-05
0.00298741
1.55725e-08
5.8647e-05
0.00295105
8.78102e-05
0.00288428
0.000116145
0.00278661
0.000143277
0.00265866
0.000168873
0.00250172
0.000192631
0.00231745
0.000214277
0.00210787
0.000233561
0.00187529
0.000250265
0.00162226
0.000264201
0.00135157
0.000275205
0.00106616
0.000283171
0.000769135
0.000287993
0.000463841
0.000153318
0.00028948
2.88619e-05
0.00295853
1.94244e-08
5.81102e-05
0.0029218
8.70085e-05
0.00285538
0.000115086
0.00275854
0.000141971
0.00263177
0.000167335
0.00247635
0.000190877
0.00229391
0.000212325
0.00208642
0.000231433
0.00185618
0.000247985
0.0016057
0.000261794
0.00133775
0.000272698
0.00105525
0.000280586
0.000761242
0.000285361
0.000459059
0.000151802
0.000286867
2.85957e-05
0.00292991
2.34614e-08
5.75782e-05
0.00289282
8.6214e-05
0.00282674
0.000114036
0.00273072
0.000140677
0.00260513
0.00016581
0.00245122
0.000189138
0.00227058
0.000210391
0.00206517
0.000229325
0.00183724
0.000245726
0.00158931
0.000259408
0.00132407
0.000270214
0.00104445
0.000278026
0.000753434
0.000282755
0.000454337
0.000150306
0.00028427
2.83317e-05
0.00290155
2.77372e-08
5.70509e-05
0.0028641
8.54265e-05
0.00279837
0.000112996
0.00270315
0.000139395
0.00257873
0.0001643
0.00242632
0.000187415
0.00224746
0.000208475
0.00204411
0.000227236
0.00181848
0.000243487
0.00157305
0.000257045
0.00131051
0.000267753
0.00103374
0.000275491
0.000745692
0.000280176
0.000449647
0.00014878
0.000281694
2.807e-05
0.00287345
3.2221e-08
5.65283e-05
0.00283564
8.46462e-05
0.00277025
0.000111965
0.00267583
0.000138125
0.00255257
0.000162803
0.00240164
0.000185708
0.00222456
0.000206576
0.00202324
0.000225166
0.00179989
0.000241269
0.00155695
0.000254703
0.00129708
0.000265313
0.00102313
0.00027298
0.000738029
0.000277622
0.000445012
0.000147274
0.000279144
2.78106e-05
0.0028456
3.6827e-08
5.60104e-05
0.00280744
8.38729e-05
0.00274239
0.000110944
0.00264876
0.000136865
0.00252665
0.000161319
0.00237719
0.000184016
0.00220186
0.000204694
0.00200256
0.000223115
0.00178147
0.00023907
0.001541
0.000252382
0.00128377
0.000262896
0.00101262
0.000270493
0.00073043
0.000275093
0.000440408
0.000145745
0.000276616
2.75535e-05
0.00281801
4.15193e-08
5.54971e-05
0.0027795
8.31065e-05
0.00271478
0.000109931
0.00262193
0.000135618
0.00250096
0.000159849
0.00235296
0.000182339
0.00217937
0.000202829
0.00198208
0.000221082
0.00176322
0.000236892
0.00152519
0.000250082
0.00127058
0.000260501
0.0010022
0.000268029
0.000722906
0.000272587
0.000435855
0.00014424
0.000274108
2.72987e-05
0.00279066
4.62069e-08
5.49884e-05
0.00275181
8.2347e-05
0.00268742
0.000108928
0.00259535
0.000134381
0.00247551
0.000158392
0.00232894
0.000180678
0.00215708
0.000200981
0.00196177
0.000219068
0.00174513
0.000234734
0.00150952
0.000247803
0.00125751
0.000258128
0.000991875
0.000265587
0.000715445
0.000270105
0.000431334
0.00014272
0.000271619
2.70461e-05
0.00276356
5.08032e-08
5.44843e-05
0.00272437
8.15943e-05
0.00266031
0.000107934
0.00256901
0.000133156
0.00245029
0.000156948
0.00230515
0.000179031
0.002135
0.000199149
0.00194166
0.000217072
0.00172721
0.000232595
0.001494
0.000245545
0.00124456
0.000255776
0.000981646
0.000263168
0.000708056
0.000267645
0.000426862
0.000141229
0.00026915
2.67957e-05
0.00273671
5.52566e-08
5.39846e-05
0.00269718
8.08483e-05
0.00263345
0.000106949
0.00254291
0.000131941
0.0024253
0.000155518
0.00228157
0.0001774
0.00211312
0.000197334
0.00192172
0.000215094
0.00170945
0.000230476
0.00147862
0.000243308
0.00123173
0.000253446
0.000971507
0.000260771
0.000700729
0.000265208
0.000422422
0.000139731
0.000266701
2.65477e-05
0.00271011
5.95055e-08
5.34895e-05
0.00267024
8.01091e-05
0.00260683
0.000105972
0.00251705
0.000130738
0.00240053
0.0001541
0.00225821
0.000175783
0.00209144
0.000195536
0.00190197
0.000213133
0.00169185
0.000228375
0.00146338
0.000241091
0.00121901
0.000251137
0.000961463
0.000258396
0.000693473
0.000262793
0.00041803
0.000138261
0.000264275
2.63018e-05
0.00268374
6.35141e-08
5.29988e-05
0.00264354
7.93765e-05
0.00258045
0.000105005
0.00249142
0.000129545
0.00237599
0.000152694
0.00223506
0.00017418
0.00206995
0.000193754
0.00188239
0.000211191
0.00167441
0.000226294
0.00144827
0.000238894
0.00120641
0.000248849
0.000951506
0.000256043
0.000686277
0.0002604
0.00041367
0.000136784
0.000261872
2.60582e-05
0.00265761
6.72672e-08
5.25126e-05
0.00261709
7.86505e-05
0.00255431
0.000104046
0.00246603
0.000128363
0.00235168
0.000151302
0.00221213
0.000172592
0.00204866
0.000191988
0.001863
0.000209266
0.00165714
0.000224232
0.00143331
0.000236717
0.00119393
0.000246582
0.000941644
0.000253711
0.000679151
0.00025803
0.000409355
0.000135334
0.000259491
2.58169e-05
0.00263173
7.07579e-08
5.20307e-05
0.00259087
7.7931e-05
0.00252841
0.000103095
0.00244086
0.000127191
0.00232758
0.000149922
0.00218939
0.000171018
0.00202756
0.000190237
0.00184378
0.000207359
0.00164001
0.000222189
0.00141848
0.00023456
0.00118156
0.000244335
0.000931867
0.0002514
0.000672084
0.000255681
0.000405071
0.000133878
0.000257132
2.55778e-05
0.00260607
7.4001e-08
5.15532e-05
0.0025649
7.7218e-05
0.00250275
0.000102153
0.00241593
0.00012603
0.0023037
0.000148554
0.00216687
0.000169459
0.00200666
0.000188503
0.00182474
0.000205469
0.00162305
0.000220164
0.00140378
0.000232423
0.0011693
0.000242109
0.000922183
0.00024911
0.000665086
0.000253353
0.000400832
0.000132447
0.000254794
2.53409e-05
0.00258066
7.70285e-08
5.108e-05
0.00253916
7.65115e-05
0.00247731
0.00010122
0.00239122
0.00012488
0.00228004
0.000147199
0.00214455
0.000167913
0.00198594
0.000186784
0.00180586
0.000203596
0.00160624
0.000218157
0.00138922
0.000230305
0.00115715
0.000239903
0.000912583
0.000246841
0.000658146
0.000251047
0.000396625
0.000131012
0.000252477
2.51061e-05
0.00255547
7.98825e-08
5.06112e-05
0.00251366
7.58113e-05
0.00245211
0.000100295
0.00236673
0.00012374
0.0022566
0.000145856
0.00212244
0.000166382
0.00196542
0.000185081
0.00178717
0.00020174
0.00158958
0.000216169
0.00137479
0.000228206
0.00114511
0.000237718
0.000903074
0.000244593
0.000651272
0.000248761
0.00039246
0.000129603
0.00025018
2.48736e-05
0.00253051
8.26201e-08
5.01465e-05
0.00248838
7.51174e-05
0.00242714
9.93786e-05
0.00234247
0.00012261
0.00223337
0.000144525
0.00210052
0.000164864
0.00194508
0.000183393
0.00176864
0.0001999
0.00157307
0.000214199
0.00136049
0.000226127
0.00113318
0.000235552
0.000893647
0.000242366
0.000644457
0.000246497
0.000388327
0.000128192
0.000247903
2.46432e-05
0.00250579
8.5298e-08
4.96861e-05
0.00246334
7.44298e-05
0.0024024
9.84703e-05
0.00231843
0.00012149
0.00221035
0.000143206
0.00207881
0.00016336
0.00192492
0.000181721
0.00175028
0.000198078
0.00155672
0.000212246
0.00134632
0.000224067
0.00112137
0.000233406
0.000884309
0.000240159
0.000637706
0.000244253
0.000384237
0.000126807
0.000245647
2.4415e-05
0.00248128
8.79722e-08
4.92299e-05
0.00243852
7.37484e-05
0.00237788
9.75702e-05
0.00229461
0.000120381
0.00218754
0.000141898
0.00205729
0.00016187
0.00190495
0.000180064
0.00173208
0.000196272
0.00154051
0.000210312
0.00133228
0.000222025
0.00110965
0.00023128
0.000875052
0.000237972
0.000631013
0.000242029
0.000380178
0.000125421
0.000243411
2.41889e-05
0.002457
9.06865e-08
4.87779e-05
0.00241394
7.30732e-05
0.00235359
9.66782e-05
0.00227101
0.000119281
0.00216493
0.000140603
0.00203597
0.000160393
0.00188516
0.000178421
0.00171405
0.000194483
0.00152445
0.000208395
0.00131837
0.000220002
0.00109805
0.000229174
0.000865882
0.000235805
0.000624383
0.000239827
0.00037616
0.000124059
0.000241196
2.39649e-05
0.00243295
9.34737e-08
4.83299e-05
0.00238957
7.24041e-05
0.00232951
9.57942e-05
0.00224762
0.000118192
0.00214254
0.00013932
0.00201484
0.000158929
0.00186555
0.000176794
0.00169619
0.00019271
0.00150853
0.000206496
0.00130459
0.000217998
0.00108654
0.000227086
0.000856792
0.000233659
0.000617809
0.000237644
0.000372172
0.000122697
0.000239002
2.37429e-05
0.00240911
9.63482e-08
4.7886e-05
0.00236543
7.17411e-05
0.00230566
9.49183e-05
0.00222444
0.000117112
0.00212034
0.000138048
0.0019939
0.000157479
0.00184612
0.000175182
0.00167849
0.000190953
0.00149276
0.000204614
0.00129093
0.000216011
0.00107515
0.000225018
0.000847787
0.000231531
0.000611298
0.000235481
0.000368225
0.000121357
0.000236828
2.3523e-05
0.00238548
9.93136e-08
4.74462e-05
0.0023415
7.1084e-05
0.00228202
9.40503e-05
0.00220147
0.000116042
0.00209835
0.000136787
0.00197316
0.000156042
0.00182687
0.000173584
0.00166095
0.000189212
0.00147713
0.000202749
0.00127739
0.000214043
0.00106385
0.000222968
0.000838861
0.000229423
0.000604841
0.000233338
0.000364308
0.000120017
0.000234674
2.33051e-05
0.00236208
1.02358e-07
4.70103e-05
0.0023178
7.04329e-05
0.0022586
9.31901e-05
0.00217872
0.000114982
0.00207656
0.000135538
0.0019526
0.000154618
0.00180779
0.000172001
0.00164356
0.000187487
0.00146165
0.000200901
0.00126397
0.000212093
0.00105266
0.000220938
0.000830018
0.000227334
0.000598446
0.000231215
0.000360431
0.000118699
0.00023254
2.30891e-05
0.00233888
1.05463e-07
4.65784e-05
0.00229431
6.97877e-05
0.00223539
9.23377e-05
0.00215617
0.000113931
0.00205497
0.000134301
0.00193223
0.000153207
0.00178888
0.000170432
0.00162634
0.000185777
0.0014463
0.00019907
0.00125068
0.000210161
0.00104157
0.000218926
0.000821252
0.000225265
0.000592106
0.000229111
0.000356583
0.000117382
0.000230424
2.28752e-05
0.0023159
1.08602e-07
4.61505e-05
0.00227103
6.91484e-05
0.00221239
9.1493e-05
0.00213382
0.00011289
0.00203357
0.000133074
0.00191205
0.000151809
0.00177015
0.000168877
0.00160927
0.000184084
0.00143109
0.000197256
0.00123751
0.000208247
0.00103058
0.000216932
0.000812568
0.000223214
0.000585825
0.000227026
0.000352774
0.000116086
0.000228327
2.26631e-05
0.00229312
1.11749e-07
4.57264e-05
0.00224797
6.85148e-05
0.0021896
9.0656e-05
0.00211168
0.000111858
0.00201237
0.000131859
0.00189205
0.000150424
0.00175158
0.000167337
0.00159236
0.000182405
0.00141602
0.000195458
0.00122445
0.00020635
0.00101969
0.000214956
0.00080396
0.000221182
0.000579598
0.00022496
0.000348995
0.000114792
0.00022625
2.2453e-05
0.00227056
1.14874e-07
4.53061e-05
0.00222512
6.7887e-05
0.00216702
8.98266e-05
0.00208974
0.000110836
0.00199136
0.000130655
0.00187223
0.000149051
0.00173319
0.00016581
0.0015756
0.000180742
0.00140109
0.000193677
0.00121152
0.00020447
0.0010089
0.000212999
0.000795431
0.000219169
0.000573429
0.000222913
0.000345254
0.000113519
0.000224191
2.22448e-05
0.00224819
1.1795e-07
4.48897e-05
0.00220247
6.72649e-05
0.00214464
8.90047e-05
0.002068
0.000109823
0.00197054
0.000129462
0.00185259
0.00014769
0.00171496
0.000164298
0.00155899
0.000179094
0.0013863
0.000191912
0.0011987
0.000202607
0.000998201
0.00021106
0.000786978
0.000217174
0.000567313
0.000220884
0.000341542
0.000112249
0.000222151
2.20385e-05
0.00222603
1.2095e-07
4.4477e-05
0.00218003
6.66484e-05
0.00212247
8.81903e-05
0.00204646
0.000108819
0.00194991
0.000128279
0.00183313
0.000146342
0.00169689
0.000162799
0.00154253
0.000177462
0.00137163
0.000190163
0.001186
0.000200762
0.000987603
0.000209138
0.000778603
0.000215197
0.000561255
0.000218875
0.000337867
0.000110998
0.00022013
2.1834e-05
0.00220408
1.23852e-07
4.40681e-05
0.0021578
6.60375e-05
0.0021005
8.73833e-05
0.00202511
0.000107824
0.00192947
0.000127108
0.00181384
0.000145007
0.001679
0.000161314
0.00152623
0.000175844
0.0013571
0.000188431
0.00117341
0.000198933
0.0009771
0.000207233
0.000770302
0.000213239
0.000555248
0.000216883
0.000334222
0.00010975
0.000218128
2.16314e-05
0.00218232
1.26635e-07
4.36629e-05
0.00213577
6.54321e-05
0.00207873
8.65835e-05
0.00200396
0.000106839
0.00190922
0.000125947
0.00179474
0.000143683
0.00166126
0.000159843
0.00151007
0.000174241
0.00134271
0.000186713
0.00116094
0.000197121
0.000966693
0.000205347
0.000762077
0.000211298
0.000549298
0.00021491
0.000330612
0.000108521
0.000216144
2.14307e-05
0.00216076
1.29285e-07
4.32614e-05
0.00211394
6.48323e-05
0.00205716
8.57911e-05
0.001983
0.000105862
0.00188914
0.000124796
0.0017758
0.000142372
0.00164368
0.000158385
0.00149405
0.000172652
0.00132844
0.000185012
0.00114858
0.000195326
0.000956379
0.000203477
0.000753924
0.000209375
0.000543399
0.000212955
0.000327031
0.000107295
0.000214178
2.12317e-05
0.00213939
1.31794e-07
4.28635e-05
0.00209231
6.42379e-05
0.00203579
8.50059e-05
0.00196224
0.000104894
0.00186926
0.000123656
0.00175704
0.000141072
0.00162627
0.00015694
0.00147819
0.000171078
0.0013143
0.000183326
0.00113633
0.000193547
0.000946159
0.000201624
0.000745847
0.000207469
0.000537555
0.000211017
0.000323485
0.000106087
0.000212229
2.10346e-05
0.00211823
1.34164e-07
4.24692e-05
0.00207087
6.36489e-05
0.00201461
8.42278e-05
0.00194166
0.000103935
0.00184955
0.000122527
0.00173845
0.000139785
0.00160901
0.000155508
0.00146246
0.000169518
0.00130029
0.000181656
0.00112419
0.000191784
0.000936031
0.000199789
0.000737841
0.000205581
0.000531762
0.000209097
0.000319968
0.000104882
0.000210299
2.08392e-05
0.00209725
1.36405e-07
4.20785e-05
0.00204963
6.30652e-05
0.00199362
8.34568e-05
0.00192126
0.000102985
0.00183002
0.000121408
0.00172002
0.000138509
0.00159191
0.00015409
0.00144688
0.000167973
0.00128641
0.000180001
0.00111217
0.000190037
0.000925994
0.00019797
0.000729909
0.00020371
0.000526022
0.000207195
0.000316485
0.000103695
0.000208386
2.06456e-05
0.00207647
1.3854e-07
4.16913e-05
0.00202859
6.24869e-05
0.00197283
8.26928e-05
0.00190106
0.000102043
0.00181067
0.000120299
0.00170177
0.000137244
0.00157496
0.000152684
0.00143144
0.000166442
0.00127265
0.00017836
0.00110025
0.000188306
0.000916048
0.000196168
0.000722047
0.000201857
0.000520332
0.00020531
0.00031303
0.000102512
0.000206491
2.04538e-05
0.00205587
1.40598e-07
4.13077e-05
0.00200773
6.19138e-05
0.00195222
8.19358e-05
0.00188104
0.00010111
0.0017915
0.0001192
0.00168368
0.000135992
0.00155817
0.000151292
0.00141614
0.000164924
0.00125902
0.000176735
0.00108844
0.000186591
0.000906192
0.000194382
0.000714256
0.00020002
0.000514695
0.000203443
0.000309609
0.000101345
0.000204613
2.02637e-05
0.00203547
1.42619e-07
4.09275e-05
0.00198707
6.13459e-05
0.0019318
8.11857e-05
0.0018612
0.000100186
0.0017725
0.000118111
0.00166575
0.00013475
0.00154153
0.000149912
0.00140098
0.000163421
0.00124551
0.000175125
0.00107673
0.000184892
0.000896425
0.000192613
0.000706535
0.0001982
0.000509107
0.000201592
0.000306216
0.000100184
0.000202752
2.00754e-05
0.00201525
1.4464e-07
4.05508e-05
0.00196659
6.07832e-05
0.00191157
8.04424e-05
0.00184154
9.92695e-05
0.00175367
0.000117032
0.00164799
0.000133521
0.00152504
0.000148544
0.00138596
0.000161931
0.00123212
0.00017353
0.00106513
0.000183209
0.000886746
0.00019086
0.000698885
0.000196397
0.00050357
0.000199759
0.000302855
9.90368e-05
0.000200908
1.98887e-05
0.00199521
1.46698e-07
4.01776e-05
0.0019463
6.02257e-05
0.00189152
7.97059e-05
0.00182206
9.83618e-05
0.00173501
0.000115963
0.00163039
0.000132302
0.0015087
0.000147189
0.00137107
0.000160455
0.00121886
0.000171949
0.00105364
0.00018154
0.000877154
0.000189122
0.000691302
0.00019461
0.000498082
0.000197942
0.000299523
9.78953e-05
0.000199081
1.97038e-05
0.00197536
1.48822e-07
3.98077e-05
0.0019262
5.96732e-05
0.00187166
7.89761e-05
0.00180276
9.74624e-05
0.00171653
0.000114903
0.00161295
0.000131094
0.00149251
0.000145847
0.00135632
0.000158993
0.00120571
0.000170382
0.00104225
0.000179887
0.000867649
0.000187401
0.000683788
0.000192839
0.000492644
0.000196142
0.000296221
9.67683e-05
0.000197271
1.95206e-05
0.00195569
1.51034e-07
3.94413e-05
0.00190628
5.91258e-05
0.00185197
7.8253e-05
0.00178363
9.65711e-05
0.00169821
0.000113854
0.00159567
0.000129898
0.00147647
0.000144517
0.0013417
0.000157543
0.00119268
0.00016883
0.00103096
0.000178249
0.000858229
0.000185696
0.000676342
0.000191085
0.000487254
0.000194358
0.000292948
9.56468e-05
0.000195478
1.9339e-05
0.00193619
1.5334e-07
3.90782e-05
0.00188654
5.85834e-05
0.00183247
7.75365e-05
0.00176467
9.56881e-05
0.00168006
0.000112814
0.00157854
0.000128712
0.00146057
0.000143198
0.00132721
0.000156107
0.00117978
0.000167292
0.00101978
0.000176627
0.000848895
0.000184006
0.000668963
0.000189347
0.000481913
0.000192591
0.000289705
9.4539e-05
0.0001937
1.91592e-05
0.00191688
1.55737e-07
3.87184e-05
0.00186698
5.80459e-05
0.00181314
7.68265e-05
0.00174589
9.4813e-05
0.00166207
0.000111783
0.00156157
0.000127537
0.00144482
0.000141892
0.00131286
0.000154685
0.00116698
0.000165768
0.00100869
0.000175019
0.000839644
0.000182331
0.000661649
0.000187625
0.000476619
0.00019084
0.00028649
9.34373e-05
0.00019194
1.89809e-05
0.00189774
1.58207e-07
3.83619e-05
0.0018476
5.75134e-05
0.00179399
7.6123e-05
0.00172728
9.3946e-05
0.00164425
0.000110762
0.00154475
0.000126373
0.00142921
0.000140598
0.00129863
0.000153275
0.00115431
0.000164258
0.000997711
0.000173425
0.000830478
0.000180672
0.000654402
0.000185918
0.000471373
0.000189105
0.000283305
9.23486e-05
0.000190195
1.88043e-05
0.00187877
1.60725e-07
3.80086e-05
0.0018284
5.69857e-05
0.00177501
7.5426e-05
0.00170884
9.30869e-05
0.00162659
0.00010975
0.00152809
0.00012522
0.00141374
0.000139316
0.00128453
0.000151878
0.00114174
0.000162762
0.000986826
0.000171847
0.000821393
0.000179029
0.00064722
0.000184228
0.000466174
0.000187385
0.000280146
9.12663e-05
0.000188466
1.86294e-05
0.00185998
1.63261e-07
3.76587e-05
0.00180937
5.64629e-05
0.00175621
7.47353e-05
0.00169057
9.22357e-05
0.00160909
0.000108748
0.00151158
0.000124077
0.00139841
0.000138046
0.00127057
0.000150494
0.0011293
0.00016128
0.00097604
0.000170282
0.00081239
0.0001774
0.000640103
0.000182552
0.000461022
0.000185682
0.000277017
9.01961e-05
0.000186753
1.8456e-05
0.00184136
1.65779e-07
3.73119e-05
0.00179051
5.59448e-05
0.00173758
7.40509e-05
0.00167247
9.13922e-05
0.00159175
0.000107754
0.00149522
0.000122945
0.00138322
0.000136787
0.00125672
0.000149122
0.00111696
0.000159811
0.000965351
0.000168733
0.000803469
0.000175786
0.000633049
0.000180892
0.000455915
0.000183994
0.000273915
8.91327e-05
0.000185056
1.82842e-05
0.00182291
1.68247e-07
3.69683e-05
0.00177183
5.54315e-05
0.00171911
7.33728e-05
0.00165452
9.05565e-05
0.00157456
0.00010677
0.001479
0.000121823
0.00136816
0.000135539
0.00124301
0.000147764
0.00110474
0.000158356
0.000954759
0.000167197
0.000794628
0.000174187
0.000626059
0.000179248
0.000450854
0.000182322
0.000270841
8.80807e-05
0.000183375
1.8114e-05
0.00180462
1.70634e-07
3.66278e-05
0.00175331
5.49229e-05
0.00170082
7.2701e-05
0.00163675
8.97284e-05
0.00155753
0.000105795
0.00146294
0.000120711
0.00135325
0.000134303
0.00122941
0.000146417
0.00109262
0.000156914
0.000944262
0.000165676
0.000785866
0.000172603
0.000619131
0.000177618
0.000445839
0.000180665
0.000267794
8.70357e-05
0.000181709
1.79454e-05
0.0017865
1.72915e-07
3.62905e-05
0.00173497
5.44189e-05
0.00168269
7.20352e-05
0.00161913
8.89079e-05
0.00154066
0.000104828
0.00144702
0.000119609
0.00133847
0.000133079
0.00121594
0.000145083
0.00108062
0.000155485
0.00093386
0.000164168
0.000777183
0.000171033
0.000612266
0.000176004
0.000440868
0.000179024
0.000264774
8.60014e-05
0.000180059
1.77784e-05
0.00176855
1.75074e-07
3.59563e-05
0.00171679
5.39196e-05
0.00166473
7.13756e-05
0.00160167
8.80949e-05
0.00152394
0.000103871
0.00143124
0.000118518
0.00132382
0.000131866
0.0012026
0.000143761
0.00106872
0.00015407
0.000923551
0.000162674
0.000768578
0.000169478
0.000605462
0.000174404
0.000435942
0.000177397
0.000261781
8.49746e-05
0.000178423
1.76129e-05
0.00175076
1.77102e-07
3.56251e-05
0.00169878
5.34248e-05
0.00164693
7.0722e-05
0.00158438
8.72894e-05
0.00150738
0.000102922
0.00141561
0.000117436
0.00130931
0.000130663
0.00118937
0.000142452
0.00105693
0.000152667
0.000913335
0.000161194
0.000760051
0.000167937
0.000598719
0.000172819
0.00043106
0.000175786
0.000258814
8.39579e-05
0.000176803
1.74489e-05
0.00173313
1.79001e-07
3.5297e-05
0.00168093
5.29346e-05
0.00162929
7.00744e-05
0.00156724
8.64912e-05
0.00149096
0.000101982
0.00140012
0.000116365
0.00129492
0.000129472
0.00117626
0.000141154
0.00104525
0.000151278
0.000903212
0.000159728
0.000751601
0.00016641
0.000592037
0.000171249
0.000426221
0.000174189
0.000255874
8.29489e-05
0.000175197
1.72864e-05
0.00171567
1.8078e-07
3.49719e-05
0.00166324
5.24488e-05
0.00161181
6.94327e-05
0.00155025
8.57004e-05
0.00147469
0.000101051
0.00138477
0.000115303
0.00128067
0.000128292
0.00116327
0.000139868
0.00103368
0.000149901
0.00089318
0.000158275
0.000743226
0.000164897
0.000585414
0.000169693
0.000421425
0.000172607
0.00025296
8.19492e-05
0.000173607
1.71254e-05
0.00169836
1.82461e-07
3.46498e-05
0.00164572
5.19676e-05
0.00159449
6.87969e-05
0.00153342
8.49168e-05
0.00145857
0.000100128
0.00136955
0.000114251
0.00126655
0.000127123
0.0011504
0.000138595
0.0010222
0.000148536
0.000883237
0.000156836
0.000734926
0.000163399
0.000578851
0.000168151
0.000416672
0.00017104
0.000250071
8.09577e-05
0.000172031
1.69659e-05
0.00168121
1.84066e-07
3.43306e-05
0.00162835
5.14907e-05
0.00157733
6.8167e-05
0.00151675
8.41404e-05
0.0014426
9.92136e-05
0.00135448
0.000113209
0.00125255
0.000125964
0.00113765
0.000137333
0.00101084
0.000147185
0.000873385
0.00015541
0.000726702
0.000161914
0.000572347
0.000166624
0.000411962
0.000169487
0.000247208
7.99749e-05
0.000170469
1.68078e-05
0.00166422
1.85627e-07
3.40143e-05
0.00161115
5.10182e-05
0.00156033
6.75428e-05
0.00150022
8.33712e-05
0.00142677
9.83076e-05
0.00133954
0.000112176
0.00123868
0.000124816
0.00112501
0.000136082
0.000999569
0.000145846
0.000863621
0.000153996
0.000718551
0.000160442
0.000565901
0.00016511
0.000407294
0.000167948
0.00024437
7.90005e-05
0.000168922
1.66513e-05
0.00164738
1.87175e-07
3.3701e-05
0.0015941
5.055e-05
0.00154348
6.69244e-05
0.00148385
8.2609e-05
0.00141108
9.741e-05
0.00132474
0.000111153
0.00122494
0.000123679
0.00111248
0.000134843
0.000988405
0.000144519
0.000853945
0.000152596
0.000710473
0.000158985
0.000559512
0.000163611
0.000402667
0.000166424
0.000241558
7.80341e-05
0.00016739
1.64961e-05
0.00163069
1.8874e-07
3.33905e-05
0.0015772
5.00861e-05
0.00152679
6.63116e-05
0.00146762
8.18538e-05
0.00139554
9.65206e-05
0.00131008
0.000110139
0.00121132
0.000122552
0.00110007
0.000133615
0.000977341
0.000143204
0.000844356
0.000151209
0.000702468
0.00015754
0.000553181
0.000162126
0.000398081
0.000164913
0.00023877
7.70764e-05
0.000165871
1.63424e-05
0.00161416
1.90347e-07
3.30829e-05
0.00156046
4.96265e-05
0.00151024
6.57044e-05
0.00145154
8.11055e-05
0.00138014
9.56394e-05
0.00129554
0.000109135
0.00119783
0.000121435
0.00108777
0.000132399
0.000966377
0.000141902
0.000834854
0.000149835
0.000694534
0.000156109
0.000546907
0.000160654
0.000393537
0.000163417
0.000236007
7.61261e-05
0.000164366
1.61901e-05
0.00159778
1.92016e-07
3.27781e-05
0.00154388
4.91711e-05
0.00149385
6.51029e-05
0.00143561
8.03641e-05
0.00136488
9.47663e-05
0.00128114
0.00010814
0.00118445
0.000120329
0.00107558
0.000131194
0.000955512
0.000140611
0.000825437
0.000148473
0.000686672
0.000154692
0.000540688
0.000159196
0.000389032
0.000161934
0.000233268
7.51848e-05
0.000162876
1.60392e-05
0.00158154
1.93758e-07
3.24761e-05
0.00152744
4.87199e-05
0.00147761
6.45069e-05
0.00141983
7.96296e-05
0.00134976
9.39012e-05
0.00126687
0.000107154
0.0011712
0.000119233
0.0010635
0.00013
0.000944745
0.000139332
0.000816104
0.000147124
0.00067888
0.000153287
0.000534525
0.000157751
0.000384568
0.000160465
0.000230553
7.42502e-05
0.000161399
1.58896e-05
0.00156546
1.95574e-07
3.21768e-05
0.00151115
4.82729e-05
0.00146151
6.39163e-05
0.00140418
7.89018e-05
0.00133477
9.30441e-05
0.00125273
0.000106177
0.00115807
0.000118147
0.00105153
0.000128817
0.000934075
0.000138066
0.000806856
0.000145788
0.000671158
0.000151895
0.000528417
0.000156319
0.000380144
0.00015901
0.000227863
7.33249e-05
0.000159936
1.57415e-05
0.00154952
1.97457e-07
3.18803e-05
0.00149501
4.78299e-05
0.00144556
6.33312e-05
0.00138868
7.81807e-05
0.00131992
9.21949e-05
0.00123871
0.000105209
0.00114506
0.000117071
0.00103967
0.000127645
0.0009235
0.000136811
0.00079769
0.000144463
0.000663505
0.000150516
0.000522364
0.000154901
0.000375759
0.000157568
0.000225195
7.24058e-05
0.000158486
1.55947e-05
0.00153373
1.99395e-07
3.15866e-05
0.00147902
4.7391e-05
0.00142976
6.27514e-05
0.00137332
7.74662e-05
0.00130521
9.13535e-05
0.00122482
0.00010425
0.00113216
0.000116005
0.00102791
0.000126484
0.000913021
0.000135567
0.000788607
0.000143151
0.000655921
0.00014915
0.000516365
0.000153496
0.000371412
0.00015614
0.000222552
7.14962e-05
0.00015705
1.54492e-05
0.00151808
2.01366e-07
3.12955e-05
0.00146317
4.69562e-05
0.0014141
6.2177e-05
0.0013581
7.67583e-05
0.00129063
9.05199e-05
0.00121106
0.0001033
0.00111938
0.000114949
0.00101626
0.000125334
0.000902636
0.000134335
0.000779605
0.000141851
0.000648404
0.000147797
0.000510419
0.000152104
0.000367105
0.000154725
0.000219931
7.05922e-05
0.000155627
1.53051e-05
0.00150257
2.03347e-07
3.10071e-05
0.00144747
4.65253e-05
0.00139858
6.16079e-05
0.00134302
7.6057e-05
0.00127618
8.9694e-05
0.00119743
0.000102358
0.00110671
0.000113902
0.00100472
0.000124194
0.000892345
0.000133114
0.000770684
0.000140563
0.000640955
0.000146456
0.000504526
0.000150725
0.000362835
0.000153322
0.000217334
6.96979e-05
0.000154217
1.51623e-05
0.0014872
2.05312e-07
3.07214e-05
0.00143191
4.60985e-05
0.0013832
6.1044e-05
0.00132807
7.53621e-05
0.00126186
8.88757e-05
0.00118391
0.000101426
0.00109416
0.000112866
0.000993278
0.000123064
0.000882146
0.000131905
0.000761843
0.000139287
0.000633573
0.000145127
0.000498686
0.000149359
0.000358604
0.000151933
0.000214759
6.88087e-05
0.000152821
1.50208e-05
0.00147197
2.07238e-07
3.04383e-05
0.0014165
4.56755e-05
0.00136796
6.04854e-05
0.00131326
7.46736e-05
0.00124767
8.80649e-05
0.00117052
0.000100502
0.00108173
0.000111839
0.000981941
0.000121946
0.000872039
0.000130707
0.000753082
0.000138023
0.000626256
0.000143811
0.000492898
0.000148005
0.00035441
0.000150557
0.000212208
6.79294e-05
0.000151437
1.48807e-05
0.00145688
2.091e-07
3.01579e-05
0.00140122
4.52565e-05
0.00135286
5.99318e-05
0.00129859
7.39914e-05
0.00123361
8.72616e-05
0.00115725
9.9586e-05
0.0010694
0.000110821
0.000970706
0.000120837
0.000862023
0.00012952
0.000744398
0.000136771
0.000619005
0.000142507
0.000487162
0.000146664
0.000350253
0.000149193
0.000209677
6.70547e-05
0.000150066
1.47418e-05
0.00144193
2.10885e-07
2.988e-05
0.00138608
4.48413e-05
0.0013379
5.93834e-05
0.00128404
7.33156e-05
0.00121968
8.64658e-05
0.0011441
9.86789e-05
0.00105719
0.000109813
0.000959572
0.000119739
0.000852096
0.000128344
0.000735793
0.00013553
0.000611819
0.000141215
0.000481476
0.000145335
0.000346133
0.000147843
0.00020717
6.61901e-05
0.000148708
1.46042e-05
0.00142711
2.12578e-07
2.96046e-05
0.00137108
4.44299e-05
0.00132308
5.884e-05
0.00126963
7.2646e-05
0.00120587
8.56773e-05
0.00113107
9.77802e-05
0.00104509
0.000108814
0.000948538
0.000118651
0.000842259
0.000127179
0.000727265
0.000134301
0.000604697
0.000139935
0.000475841
0.000144019
0.000342049
0.000146504
0.000204684
6.53296e-05
0.000147363
1.44679e-05
0.00141243
2.14177e-07
2.93318e-05
0.00135622
4.40224e-05
0.00130839
5.83017e-05
0.00125535
7.19826e-05
0.00119219
8.48961e-05
0.00111815
9.68898e-05
0.00103309
0.000107824
0.000937604
0.000117573
0.00083251
0.000126025
0.000718813
0.000133083
0.000597639
0.000138667
0.000470257
0.000142715
0.000338001
0.000145178
0.000202221
6.44793e-05
0.00014603
1.43328e-05
0.00139788
2.15683e-07
2.90616e-05
0.00134149
4.36186e-05
0.00129383
5.77683e-05
0.0012412
7.13253e-05
0.00117864
8.41221e-05
0.00110536
9.60077e-05
0.00102121
0.000106844
0.000926768
0.000116505
0.000822849
0.000124881
0.000710437
0.000131876
0.000590643
0.000137411
0.000464721
0.000141423
0.000333989
0.000143865
0.000199778
6.36326e-05
0.000144709
1.4199e-05
0.00138347
2.17107e-07
2.87938e-05
0.00132689
4.32185e-05
0.00127941
5.72399e-05
0.00122718
7.06741e-05
0.0011652
8.33553e-05
0.00109268
9.51338e-05
0.00100943
0.000105872
0.000916029
0.000115447
0.000813274
0.000123748
0.000702136