/*--------------------------------*- C++ -*----------------------------------*\
  =========                 |
  \\      /  F ield         | OpenFOAM: The Open Source CFD Toolbox
   \\    /   O peration     | Website:  https://openfoam.org
    \\  /    A nd           | Version:  6.0
     \\/     M anipulation  |
\*---------------------------------------------------------------------------*/
FoamFile
{
    version     2.0;
    format      ascii;
    class       volVectorField;
    location    "1.4";
    object      U;
}
// * * * * * * * * * * * * * * * * * * * * * * * * * * * * * * * * * * * * * //

dimensions      [0 1 -1 0 0 0 0];

internalField   nonuniform List<vector> 
34500
(
(0.999997 2.35826e-06 -4.63288e-17)
(0.999971 -9.8794e-06 -8.13403e-18)
(0.999925 -3.33064e-05 1.42182e-16)
(0.999863 -7.28074e-05 -1.07623e-16)
(0.999795 -0.000131543 3.3535e-17)
(0.99973 -0.000209597 -1.01425e-16)
(0.999679 -0.000302835 -1.00945e-16)
(0.999648 -0.000404087 8.64818e-17)
(0.999643 -0.00050332 1.07201e-16)
(0.999666 -0.000590999 -6.82618e-16)
(0.999713 -0.000657619 -1.03934e-15)
(0.999777 -0.000703117 1.26625e-16)
(0.999855 -0.000708823 4.33215e-16)
(0.999983 -0.000735469 -2.06633e-16)
(0.999147 -0.00109402 7.56758e-17)
(0.999993 8.23474e-06 3.24452e-17)
(0.999947 -1.97637e-05 9.7618e-17)
(0.999864 -6.80839e-05 7.17331e-17)
(0.999755 -0.000145159 -3.02078e-16)
(0.999636 -0.000256954 -5.05645e-16)
(0.999524 -0.000403009 -5.5009e-17)
(0.999437 -0.000575493 2.55381e-16)
(0.999389 -0.000759581 -6.76878e-16)
(0.99939 -0.000936914 -1.78507e-16)
(0.999441 -0.00108897 6.80857e-16)
(0.999536 -0.00119828 1.26075e-15)
(0.999665 -0.00126401 -6.28183e-16)
(0.999802 -0.00124963 -9.82153e-16)
(1.0001 -0.00123685 -3.9349e-16)
(0.999237 -0.00149089 5.16714e-16)
(0.999991 1.49924e-05 1.04671e-17)
(0.999952 -2.4241e-05 -1.22893e-16)
(0.999883 -8.08299e-05 -1.25126e-16)
(0.999795 -0.000160661 4.55468e-16)
(0.999701 -0.000268823 -2.85948e-17)
(0.999614 -0.000404741 -1.63918e-16)
(0.99955 -0.000561306 9.77529e-17)
(0.999522 -0.000724938 3.84325e-16)
(0.999536 -0.000877739 2.45349e-19)
(0.999595 -0.00100309 -3.92557e-16)
(0.999692 -0.00108373 -7.27088e-16)
(0.999821 -0.0011206 4.12975e-16)
(0.999934 -0.00108054 2.24285e-16)
(1.00025 -0.00102016 1.63904e-16)
(0.999772 -0.000988036 -2.42764e-16)
(0.999988 2.18848e-05 -1.73539e-17)
(0.999956 -2.95019e-05 -9.0219e-18)
(0.999905 -9.48269e-05 4.83049e-17)
(0.999841 -0.000177181 -3.05247e-16)
(0.999774 -0.000280493 3.72019e-16)
(0.999715 -0.000403992 3.29724e-16)
(0.999676 -0.00054187 -3.99189e-16)
(0.999665 -0.000682807 -4.19571e-16)
(0.999691 -0.000810852 4.34569e-16)
(0.999753 -0.000912566 -4.69975e-16)
(0.999845 -0.000972488 -2.44073e-16)
(0.999967 -0.000994022 -3.84631e-16)
(1.00005 -0.000954289 5.40976e-16)
(1.00034 -0.000887225 -4.78528e-17)
(1.00006 -0.000838575 2.13449e-17)
(0.999983 2.91411e-05 -1.70427e-17)
(0.999953 -3.60105e-05 1.53286e-16)
(0.999905 -0.000114717 6.95318e-17)
(0.999849 -0.000208867 1.69677e-16)
(0.999791 -0.000321806 4.67191e-17)
(0.999742 -0.000452055 -1.5814e-16)
(0.999714 -0.000593907 1.02449e-16)
(0.999714 -0.0007364 2.66088e-16)
(0.999749 -0.00086407 -4.17284e-16)
(0.999818 -0.000964614 -2.30709e-16)
(0.999916 -0.00102303 1.00512e-15)
(1.00004 -0.00104343 6.33078e-16)
(1.00013 -0.00101046 -2.88979e-16)
(1.00038 -0.00094092 5.90439e-16)
(1.0002 -0.000900631 -5.84803e-16)
(0.999976 3.70056e-05 1.83511e-17)
(0.999945 -4.23648e-05 -9.4792e-17)
(0.999898 -0.000135857 -1.8628e-16)
(0.999843 -0.000244777 -5.29135e-17)
(0.999788 -0.00037196 1.09372e-16)
(0.999745 -0.000514937 -1.08773e-16)
(0.999725 -0.000667372 1.48069e-16)
(0.999735 -0.000817816 1.31085e-16)
(0.999779 -0.000950721 2.90747e-16)
(0.999859 -0.00105416 -1.00138e-16)
(0.999966 -0.0011132 2.86753e-18)
(1.00011 -0.00113111 -3.88588e-16)
(1.0002 -0.00109747 1.82715e-17)
(1.00042 -0.00101461 -4.67509e-16)
(1.00032 -0.000924338 7.3856e-17)
(0.999968 4.54798e-05 3.25529e-18)
(0.999937 -4.80861e-05 -3.55809e-17)
(0.999892 -0.000155821 -2.90106e-17)
(0.999841 -0.000278412 1.75668e-16)
(0.999793 -0.00041806 -2.20343e-16)
(0.999758 -0.000571399 2.75292e-16)
(0.999747 -0.000731407 -6.1883e-16)
(0.999767 -0.0008863 -3.6957e-16)
(0.999822 -0.00102067 -1.51466e-16)
(0.999912 -0.00112325 6.70662e-16)
(1.00003 -0.0011797 -7.67341e-16)
(1.00018 -0.00119192 2.97596e-16)
(1.00028 -0.00115372 4.55239e-16)
(1.00048 -0.00105584 -9.56061e-17)
(1.00043 -0.000914521 -1.20263e-16)
(0.999959 5.45042e-05 1.51155e-17)
(0.999929 -5.33825e-05 3.22801e-17)
(0.999887 -0.000175057 2.50207e-17)
(0.999842 -0.000310606 -1.50804e-16)
(0.999801 -0.000461573 3.28706e-16)
(0.999775 -0.000623925 -1.39513e-16)
(0.999775 -0.000790004 2.01412e-16)
(0.999806 -0.000947855 -1.4617e-16)
(0.999872 -0.00108222 3.97253e-16)
(0.999972 -0.0011826 1.77588e-16)
(1.0001 -0.00123545 2.44484e-16)
(1.00026 -0.00124117 -5.64347e-17)
(1.00037 -0.00119699 -5.03657e-16)
(1.00055 -0.00108525 1.13561e-15)
(1.00055 -0.000905471 1.85837e-16)
(0.999949 6.40533e-05 -1.12152e-17)
(0.999919 -5.84047e-05 9.89335e-17)
(0.99988 -0.000194165 1.50749e-16)
(0.999841 -0.000342829 1.11872e-16)
(0.999808 -0.000505298 -4.88432e-16)
(0.999791 -0.000677017 1.40889e-16)
(0.999801 -0.000849696 3.2052e-16)
(0.999843 -0.00101114 7.71979e-16)
(0.999919 -0.00114601 -3.85121e-16)
(1.00003 -0.00124428 8.99686e-17)
(1.00016 -0.00129299 4.48613e-16)
(1.00033 -0.00129095 -3.23325e-16)
(1.00046 -0.00123788 -1.53772e-16)
(1.00063 -0.00111075 -3.80011e-16)
(1.00068 -0.000895667 8.3729e-17)
(0.999937 7.41003e-05 4.06824e-17)
(0.999907 -6.31395e-05 -8.97166e-17)
(0.999873 -0.00021311 8.84966e-18)
(0.999839 -0.000374969 -1.10134e-16)
(0.999813 -0.000548938 4.10442e-16)
(0.999806 -0.00072998 7.9569e-17)
(0.999826 -0.000909219 2.70086e-16)
(0.999879 -0.00107416 -5.72726e-16)
(0.999966 -0.00120931 4.15601e-17)
(1.00009 -0.00130477 -7.86249e-17)
(1.00023 -0.00134804 -1.39545e-16)
(1.00041 -0.00133646 4.40823e-17)
(1.00055 -0.0012719 5.91354e-16)
(1.00072 -0.00112863 -8.02702e-16)
(1.0008 -0.000883797 -2.68439e-16)
(0.999923 8.45915e-05 -2.62198e-17)
(0.999895 -6.75767e-05 3.52418e-17)
(0.999864 -0.00023175 -1.47479e-16)
(0.999836 -0.000406593 2.49852e-16)
(0.99982 -0.000591573 -3.61408e-16)
(0.999822 -0.000781162 -3.0293e-16)
(0.999854 -0.000966004 -3.38679e-16)
(0.999918 -0.00113341 3.90954e-17)
(1.00002 -0.00126783 -8.13602e-17)
(1.00015 -0.00135947 -4.24195e-16)
(1.0003 -0.00139633 -7.20505e-16)
(1.00049 -0.00137461 2.85517e-16)
(1.00064 -0.00129844 -3.27912e-16)
(1.00081 -0.00114155 9.05319e-16)
(1.00092 -0.000876817 5.35491e-17)
(0.999908 9.54491e-05 -2.45515e-17)
(0.999881 -7.17682e-05 -1.04209e-16)
(0.999854 -0.000250141 1.50689e-16)
(0.999834 -0.000437775 -2.34072e-16)
(0.999826 -0.000633318 7.68392e-17)
(0.99984 -0.000830722 4.53985e-16)
(0.999883 -0.00102025 5.53671e-17)
(0.999959 -0.0011892 -6.73105e-17)
(1.00007 -0.00132221 1.81442e-16)
(1.00021 -0.00140966 -1.56802e-16)
(1.00038 -0.00144023 -9.49957e-17)
(1.00057 -0.00140933 -6.67183e-17)
(1.00073 -0.00132331 -2.86762e-16)
(1.00091 -0.00115675 -6.20288e-16)
(1.00103 -0.000880034 1.23798e-17)
(0.999891 0.000106588 -2.17635e-18)
(0.999866 -7.57885e-05 1.40463e-16)
(0.999844 -0.000268442 -2.21449e-16)
(0.99983 -0.000468881 8.33774e-17)
(0.999833 -0.000674906 -9.35248e-17)
(0.999857 -0.000879914 -1.54694e-16)
(0.999912 -0.00107383 -3.88777e-17)
(1 -0.00124409 3.64877e-16)
(1.00012 -0.00137568 -6.2992e-16)
(1.00028 -0.00145936 4.20026e-16)
(1.00045 -0.00148457 2.20359e-16)
(1.00065 -0.00144615 1.83906e-16)
(1.00083 -0.00135224 7.48589e-16)
(1.001 -0.00117893 7.28809e-16)
(1.00113 -0.000893297 5.46885e-16)
(0.999873 0.000117923 8.30213e-18)
(0.99985 -7.96973e-05 5.28641e-17)
(0.999832 -0.00028677 1.76009e-16)
(0.999825 -0.000500195 5.57501e-17)
(0.999837 -0.000716934 1.70576e-16)
(0.999872 -0.000929809 1.67987e-16)
(0.99994 -0.00112838 -1.18425e-17)
(1.00004 -0.0013003 4.92722e-17)
(1.00017 -0.001431 9.37253e-16)
(1.00034 -0.00151169 -1.13847e-16)
(1.00052 -0.00153261 5.41813e-16)
(1.00073 -0.00148813 -7.38426e-16)
(1.00091 -0.00138738 1.36815e-16)
(1.00109 -0.00120826 -1.3426e-15)
(1.00123 -0.000913144 -6.14592e-16)
(0.999854 0.000129372 9.93838e-18)
(0.999832 -8.35367e-05 -1.17654e-16)
(0.999818 -0.00030517 1.54744e-16)
(0.999818 -0.000531811 -2.24025e-16)
(0.999838 -0.000759623 1.56777e-16)
(0.999885 -0.000980862 2.07096e-17)
(0.999964 -0.00118467 1.94933e-16)
(1.00008 -0.0013589 -2.59888e-16)
(1.00022 -0.00148943 -8.38622e-16)
(1.0004 -0.00156789 2.49129e-16)
(1.00059 -0.00158529 -5.59834e-16)
(1.0008 -0.00153548 1.12736e-16)
(1.001 -0.00142784 -4.89727e-16)
(1.00119 -0.00124217 2.65279e-16)
(1.00133 -0.000935297 -1.08177e-16)
(0.999833 0.000140857 3.32338e-17)
(0.999813 -8.73371e-05 7.18694e-17)
(0.999802 -0.000323632 -3.58846e-16)
(0.999809 -0.000563678 2.8828e-16)
(0.999838 -0.000802878 -2.79847e-16)
(0.999894 -0.00103297 -3.72815e-16)
(0.999985 -0.00124265 -3.82765e-16)
(1.00011 -0.00141986 3.37439e-16)
(1.00027 -0.00155084 7.18504e-16)
(1.00045 -0.00162758 1.62927e-16)
(1.00066 -0.00164169 9.46458e-17)
(1.00088 -0.0015865 7.00335e-17)
(1.00109 -0.00147103 -7.32162e-16)
(1.00128 -0.00127718 6.43015e-17)
(1.00144 -0.000956414 6.30801e-16)
(0.999811 0.000152306 -8.96472e-17)
(0.999792 -9.11258e-05 -9.2374e-17)
(0.999785 -0.000342127 3.42746e-17)
(0.999798 -0.000595667 -2.64244e-16)
(0.999835 -0.000846417 -1.79592e-17)
(0.999902 -0.00108568 4.81444e-16)
(1 -0.00130166 5.50466e-17)
(1.00014 -0.00148233 3.03932e-16)
(1.00031 -0.00161414 -6.02541e-16)
(1.00051 -0.00168928 -3.09483e-16)
(1.00072 -0.00169984 4.4429e-16)
(1.00095 -0.00163865 -1.48939e-16)
(1.00117 -0.00151414 4.83181e-16)
(1.00137 -0.00131049 7.48362e-16)
(1.00155 -0.000975059 -5.96594e-17)
(0.999787 0.000163659 2.80844e-17)
(0.99977 -9.4929e-05 1.14726e-17)
(0.999767 -0.000360625 1.15584e-16)
(0.999785 -0.000627634 2.25806e-18)
(0.999831 -0.000889906 9.88217e-17)
(0.999908 -0.00113838 -2.89504e-16)
(1.00002 -0.00136079 5.97951e-16)
(1.00017 -0.00154508 -1.53406e-16)
(1.00035 -0.00167779 6.52111e-16)
(1.00056 -0.00175115 -3.41116e-16)
(1.00079 -0.00175765 -5.4308e-16)
(1.00103 -0.00168971 5.2406e-16)
(1.00126 -0.00155521 -8.83304e-16)
(1.00147 -0.00134094 -1.30034e-15)
(1.00166 -0.00099186 -3.28536e-16)
(0.999763 0.000174866 3.1269e-18)
(0.999746 -9.87766e-05 1.94936e-17)
(0.999747 -0.000379114 -3.12052e-17)
(0.999772 -0.000659487 1.58607e-16)
(0.999826 -0.000933103 1.08777e-16)
(0.999913 -0.00119061 -4.26522e-17)
(1.00004 -0.0014193 -3.60423e-16)
(1.0002 -0.00160708 -3.47422e-16)
(1.00039 -0.00174052 -2.34817e-16)
(1.00061 -0.00181182 4.32667e-16)
(1.00085 -0.00181378 3.35203e-16)
(1.0011 -0.00173863 -4.92744e-16)
(1.00134 -0.00159388 1.09422e-15)
(1.00157 -0.0013692 1.37015e-15)
(1.00176 -0.00100872 4.6219e-17)
(0.999737 0.000185891 3.57555e-17)
(0.999721 -0.0001027 -4.75857e-17)
(0.999726 -0.000397614 2.29362e-16)
(0.999757 -0.000691221 -4.56774e-17)
(0.99982 -0.000975951 -1.74323e-16)
(0.999918 -0.00124219 7.38994e-17)
(1.00005 -0.00147689 -1.29641e-16)
(1.00023 -0.00166791 2.93327e-16)
(1.00043 -0.00180186 7.70999e-17)
(1.00067 -0.00187091 5.38913e-17)
(1.00092 -0.00186813 -2.57074e-16)
(1.00118 -0.00178581 3.41176e-16)
(1.00143 -0.00163125 1.73836e-16)
(1.00166 -0.00139714 1.55214e-16)
(1.00187 -0.00102769 3.92567e-16)
(0.99971 0.000196712 -1.83814e-17)
(0.999695 -0.000106729 2.72403e-17)
(0.999704 -0.00041617 -3.71795e-16)
(0.999742 -0.000722919 -2.37851e-16)
(0.999814 -0.00101859 3.29169e-16)
(0.999923 -0.00129333 -8.9108e-17)
(1.00007 -0.0015338 5.20485e-16)
(1.00026 -0.00172786 -1.41305e-16)
(1.00048 -0.00186222 -7.50671e-18)
(1.00072 -0.00192903 -1.49859e-16)
(1.00099 -0.0019217 3.84731e-16)
(1.00126 -0.00183268 -2.42443e-16)
(1.00152 -0.00166917 -7.96695e-16)
(1.00176 -0.00142679 -1.89499e-16)
(1.00197 -0.00104994 -4.48412e-16)
(0.999682 0.000207327 2.47441e-17)
(0.999667 -0.000110886 1.12542e-16)
(0.99968 -0.000434834 3.35103e-16)
(0.999725 -0.000754709 2.60054e-16)
(0.999806 -0.00106129 -3.20544e-17)
(0.999926 -0.00134447 -1.30202e-16)
(1.00009 -0.00159063 -5.76196e-16)
(1.00029 -0.00178773 -6.6987e-17)
(1.00052 -0.0019226 -3.42184e-16)
(1.00078 -0.00198742 1.10812e-16)
(1.00105 -0.00197596 -7.05178e-16)
(1.00134 -0.00188092 3.4009e-16)
(1.00161 -0.00170926 1.14773e-15)
(1.00185 -0.00145939 -8.84211e-16)
(1.00207 -0.00107544 5.22747e-16)
(0.999653 0.000217742 -1.99523e-17)
(0.999638 -0.000115184 -1.58352e-16)
(0.999655 -0.00045365 -1.91787e-16)
(0.999706 -0.000786712 -9.56473e-17)
(0.999797 -0.00110432 -6.12519e-17)
(0.999928 -0.00139607 8.40846e-17)
(1.0001 -0.00164811 -3.21964e-17)
(1.00031 -0.00184844 -4.42196e-16)
(1.00056 -0.0019841 -1.30137e-16)
(1.00083 -0.00204733 -3.27642e-17)
(1.00112 -0.00203221 6.41845e-16)
(1.00142 -0.0019317 1.07323e-16)
(1.00169 -0.00175235 -9.54226e-16)
(1.00195 -0.00149505 5.05973e-16)
(1.00217 -0.00110308 -1.01184e-16)
(0.999623 0.00022798 1.80234e-17)
(0.999608 -0.000119621 9.31057e-17)
(0.999628 -0.000472634 9.23075e-17)
(0.999686 -0.000819002 1.79503e-16)
(0.999786 -0.00114785 -9.7793e-17)
(0.999928 -0.00144848 -2.75046e-17)
(1.00011 -0.00170673 1.98712e-16)
(1.00034 -0.00191067 2.96906e-16)
(1.0006 -0.0020475 -2.13918e-17)
(1.00089 -0.00210951 -3.58362e-16)
(1.00119 -0.00209105 -2.75416e-16)
(1.00149 -0.00198528 -4.83999e-16)
(1.00178 -0.00179818 2.02992e-17)
(1.00205 -0.00153286 2.61985e-16)
(1.00227 -0.00113138 -1.58182e-16)
(0.999592 0.000238071 -9.63703e-18)
(0.999576 -0.000124187 -5.50975e-17)
(0.9996 -0.000491779 1.40186e-16)
(0.999664 -0.000851578 1.47012e-17)
(0.999773 -0.00119193 -1.24488e-16)
(0.999926 -0.00150179 1.00379e-16)
(1.00012 -0.00176668 -4.79465e-17)
(1.00036 -0.00197463 2.73753e-16)
(1.00064 -0.00211296 5.05747e-16)
(1.00094 -0.00217399 7.85302e-17)
(1.00125 -0.00215224 2.3767e-16)
(1.00157 -0.00204107 2.41841e-16)
(1.00187 -0.0018457 5.96711e-17)
(1.00214 -0.00157143 -5.39137e-16)
(1.00238 -0.00115894 1.30403e-16)
(0.999559 0.000248051 1.29089e-17)
(0.999543 -0.000128861 1.16045e-17)
(0.99957 -0.000511054 -2.86396e-16)
(0.99964 -0.00088438 -1.25107e-16)
(0.999758 -0.00123646 1.75876e-16)
(0.999922 -0.00155585 -2.74517e-17)
(1.00013 -0.00182773 1.83583e-16)
(1.00039 -0.00204002 -2.43811e-16)
(1.00067 -0.00218008 1.38966e-16)
(1.00099 -0.00224018 1.15562e-16)
(1.00131 -0.00221495 1.21953e-16)
(1.00164 -0.00209792 1.55133e-16)
(1.00195 -0.00189365 2.15537e-16)
(1.00224 -0.00160953 3.03111e-17)
(1.00249 -0.00118528 7.67058e-17)
(0.999525 0.000257957 -3.97173e-17)
(0.999508 -0.000133623 1.05085e-16)
(0.999539 -0.000530418 1.64443e-16)
(0.999615 -0.000917315 -1.05253e-16)
(0.999741 -0.00128124 -6.84209e-17)
(0.999916 -0.00161036 3.89396e-17)
(1.00014 -0.00188947 -1.99999e-16)
(1.00041 -0.00210628 -1.3085e-16)
(1.00071 -0.00224812 -1.71851e-16)
(1.00104 -0.00230718 2.73086e-16)
(1.00138 -0.00227816 -3.78763e-16)
(1.00172 -0.00215478 2.95735e-16)
(1.00204 -0.00194108 1.44761e-16)
(1.00234 -0.00164657 5.41266e-16)
(1.00259 -0.00121061 -4.94099e-16)
(0.99949 0.000267827 1.67591e-17)
(0.999472 -0.000138455 -7.90952e-17)
(0.999507 -0.000549841 5.79058e-17)
(0.999589 -0.000950296 1.28061e-16)
(0.999724 -0.00132609 -8.87755e-17)
(0.999909 -0.00166501 -1.5002e-16)
(1.00015 -0.00195141 -7.10219e-17)
(1.00043 -0.00217279 9.7864e-17)
(1.00074 -0.00231637 -4.47588e-16)
(1.00108 -0.00237421 6.60272e-17)
(1.00144 -0.00234107 2.5166e-16)
(1.00179 -0.002211 -7.03102e-16)
(1.00213 -0.00198768 1.41881e-16)
(1.00244 -0.00168274 2.17076e-17)
(1.0027 -0.00123569 3.64351e-16)
(0.999453 0.000277694 -6.37124e-18)
(0.999435 -0.000143342 9.69389e-17)
(0.999473 -0.000569307 -9.3647e-17)
(0.999561 -0.00098328 -5.81187e-17)
(0.999705 -0.00137091 -9.2684e-17)
(0.999902 -0.00171958 -4.90087e-17)
(1.00015 -0.00201326 -1.05662e-16)
(1.00045 -0.00223916 7.54296e-17)
(1.00078 -0.00238438 2.90076e-17)
(1.00113 -0.00244087 -3.09878e-16)
(1.0015 -0.00240347 -3.69572e-16)
(1.00187 -0.00226661 4.0982e-16)
(1.00222 -0.00203382 -3.57511e-16)
(1.00254 -0.0017188 -1.13723e-16)
(1.00281 -0.00126163 -1.11605e-17)
(0.999415 0.000287591 -1.9279e-17)
(0.999397 -0.000148276 -4.47813e-17)
(0.999438 -0.000588823 3.16249e-17)
(0.999533 -0.00101628 2.25332e-16)
(0.999686 -0.00141569 3.7627e-16)
(0.999894 -0.00177407 3.07147e-16)
(1.00016 -0.00207497 3.35542e-16)
(1.00047 -0.00230533 -2.14037e-16)
(1.00081 -0.00245216 7.13096e-20)
(1.00118 -0.00250728 2.32061e-16)
(1.00157 -0.00246566 4.56862e-17)
(1.00195 -0.00232219 2.51811e-16)
(1.00231 -0.00208032 2.02228e-16)
(1.00264 -0.00175571 -5.29325e-16)
(1.00291 -0.00128909 -3.46527e-16)
(0.999376 0.000297546 9.91925e-18)
(0.999357 -0.000153253 -8.09377e-17)
(0.999402 -0.000608415 -1.61882e-16)
(0.999503 -0.00104936 -1.58887e-16)
(0.999666 -0.00146055 1.46005e-17)
(0.999886 -0.00182861 -1.73403e-16)
(1.00016 -0.00213674 -3.77507e-16)
(1.00048 -0.00237159 2.881e-16)
(1.00085 -0.00252009 2.34278e-16)
(1.00123 -0.00257397 -5.16471e-16)
(1.00163 -0.00252834 4.23546e-16)
(1.00203 -0.00237857 -3.08644e-16)
(1.0024 -0.00212805 -1.42182e-16)
(1.00273 -0.00179424 -1.24194e-16)
(1.00301 -0.00131836 1.47636e-16)
(0.999334 0.000307585 3.77587e-17)
(0.999316 -0.000158266 1.73669e-17)
(0.999364 -0.000628117 8.75553e-17)
(0.999473 -0.0010826 4.06668e-17)
(0.999644 -0.00150566 4.78393e-17)
(0.999876 -0.00188349 2.99894e-16)
(1.00017 -0.00219894 -1.35486e-16)
(1.0005 -0.00243842 1.48028e-16)
(1.00088 -0.00258875 8.49795e-17)
(1.00128 -0.00264162 5.92136e-17)
(1.0017 -0.00259225 1.97199e-16)
(1.0021 -0.0024365 -4.20275e-17)
(1.00249 -0.00217761 9.33514e-18)
(1.00283 -0.0018347 8.66282e-16)
(1.00312 -0.00134922 2.74701e-18)
(0.999291 0.000317726 -3.66502e-17)
(0.999273 -0.000163312 -1.26567e-17)
(0.999325 -0.00064796 5.72426e-17)
(0.999441 -0.00111611 -1.74512e-16)
(0.999622 -0.00155119 -2.79491e-16)
(0.999866 -0.00193898 -2.67763e-16)
(1.00017 -0.00226196 2.26847e-16)
(1.00052 -0.00250629 -8.29568e-17)
(1.00091 -0.00265869 9.67104e-18)
(1.00133 -0.0027108 -5.00682e-18)
(1.00176 -0.00265794 -2.72394e-16)
(1.00218 -0.00249638 -2.46078e-16)
(1.00257 -0.00222918 -1.58586e-16)
(1.00293 -0.00187693 2.4039e-17)
(1.00322 -0.0013811 -5.40823e-17)
(0.999247 0.00032799 -1.8297e-17)
(0.999229 -0.000168379 4.84203e-17)
(0.999285 -0.000667966 4.76339e-17)
(0.999407 -0.00114996 7.75085e-17)
(0.999598 -0.00159729 1.06003e-16)
(0.999853 -0.0019953 1.67493e-18)
(1.00017 -0.00232609 2.26742e-16)
(1.00054 -0.00257554 -5.05519e-16)
(1.00095 -0.00273027 2.57737e-16)
(1.00138 -0.00278182 2.62806e-16)
(1.00182 -0.00272558 -3.75867e-16)
(1.00226 -0.00255819 7.0168e-16)
(1.00266 -0.00228247 3.69144e-16)
(1.00303 -0.00192042 -6.87183e-16)
(1.00333 -0.0014134 -2.03935e-16)
(0.999201 0.000338386 3.78369e-17)
(0.999184 -0.000173459 2.93769e-17)
(0.999243 -0.000688145 4.5867e-18)
(0.999371 -0.00118417 -3.47454e-17)
(0.999572 -0.00164401 2.01529e-17)
(0.999839 -0.00205254 2.84315e-16)
(1.00017 -0.00239145 -4.58232e-17)
(1.00055 -0.00264628 3.24404e-16)
(1.00098 -0.00280353 -4.79969e-17)
(1.00143 -0.00285463 -2.90685e-16)
(1.00188 -0.00279498 6.01308e-16)
(1.00233 -0.00262158 -3.60719e-16)
(1.00275 -0.00233702 -4.88035e-16)
(1.00313 -0.00196462 2.06096e-16)
(1.00343 -0.0014457 3.43707e-16)
(0.999153 0.000348923 -3.14646e-17)
(0.999137 -0.000178537 -1.32631e-17)
(0.999199 -0.000708491 -1.72934e-16)
(0.999334 -0.00121877 -8.45055e-17)
(0.999544 -0.00169137 5.20369e-17)
(0.999823 -0.00211068 -2.87024e-16)
(1.00017 -0.00245797 -8.43643e-17)
(1.00057 -0.0027184 2.8273e-16)
(1.00101 -0.0028783 -2.39071e-16)
(1.00147 -0.00292895 7.00953e-17)
(1.00194 -0.00286577 -3.34831e-16)
(1.00241 -0.00268607 1.05281e-17)
(1.00284 -0.0023923 2.64154e-16)
(1.00323 -0.00200911 1.38855e-16)
(1.00354 -0.00147787 -5.39763e-17)
(0.999104 0.000359603 3.00162e-17)
(0.999088 -0.000183605 -9.73782e-17)
(0.999154 -0.000728997 8.17343e-17)
(0.999296 -0.00125371 5.34899e-17)
(0.999515 -0.00173931 -4.03267e-17)
(0.999806 -0.00216964 -1.72408e-16)
(1.00016 -0.00252551 5.22677e-17)
(1.00058 -0.00279168 -1.29623e-16)
(1.00103 -0.00295427 -2.18511e-16)
(1.00152 -0.00300442 -2.73013e-17)
(1.00201 -0.00293752 -4.83868e-16)
(1.00248 -0.00275127 4.94987e-16)
(1.00293 -0.00244804 3.84497e-17)
(1.00333 -0.00205378 -7.92718e-17)
(1.00365 -0.00151007 -7.6933e-18)
(0.999053 0.000370425 -3.6816e-17)
(0.999038 -0.000188654 1.00244e-16)
(0.999108 -0.000749652 -2.30254e-17)
(0.999255 -0.00128898 -2.09728e-16)
(0.999484 -0.00178776 -9.99188e-17)
(0.999787 -0.00222929 1.1606e-16)
(1.00016 -0.00259389 -1.70276e-16)
(1.00059 -0.00286587 -1.90705e-16)
(1.00106 -0.00303116 3.24487e-16)
(1.00156 -0.00308073 1.12886e-16)
(1.00207 -0.00300998 5.07712e-16)
(1.00256 -0.00281699 -3.8172e-16)
(1.00302 -0.00250417 1.37084e-16)
(1.00343 -0.00209877 -1.54201e-16)
(1.00376 -0.00154262 5.12888e-18)
(0.999001 0.000381382 2.2787e-17)
(0.998986 -0.000193685 -5.80095e-17)
(0.999059 -0.000770456 7.205e-17)
(0.999214 -0.00132457 3.12492e-16)
(0.999452 -0.00183669 1.32595e-16)
(0.999767 -0.00228955 8.22529e-17)
(1.00015 -0.00266299 3.38203e-16)
(1.0006 -0.00294085 1.60698e-16)
(1.00109 -0.00310883 -2.64632e-16)
(1.00161 -0.00315776 4.50799e-16)
(1.00213 -0.0030831 2.5062e-16)
(1.00264 -0.00288331 -2.12031e-16)
(1.00311 -0.00256091 -4.05325e-16)
(1.00353 -0.00214437 -1.5736e-16)
(1.00386 -0.00157584 6.06065e-17)
(0.998947 0.000392467 4.67882e-18)
(0.998933 -0.000198701 -1.23589e-16)
(0.99901 -0.000791416 -9.17085e-17)
(0.999171 -0.00136048 -2.15167e-16)
(0.999418 -0.0018861 3.45584e-17)
(0.999746 -0.00235042 -3.34027e-16)
(1.00015 -0.00273279 -3.59052e-16)
(1.00061 -0.00301658 -1.44405e-16)
(1.00112 -0.00318729 3.07579e-16)
(1.00165 -0.0032356 -3.26642e-16)
(1.00219 -0.00315702 1.15461e-16)
(1.00271 -0.00295046 2.14565e-16)
(1.0032 -0.00261854 3.2555e-16)
(1.00363 -0.00219089 1.98485e-16)
(1.00397 -0.00160988 1.68128e-17)
(0.998892 0.00040367 3.28876e-17)
(0.998878 -0.000203713 2.01995e-16)
(0.998958 -0.00081255 9.40024e-17)
(0.999126 -0.00139673 1.80631e-16)
(0.999384 -0.00193601 1.08214e-16)
(0.999724 -0.00241193 4.56163e-17)
(1.00014 -0.00280336 5.26118e-17)
(1.00062 -0.00309317 -1.20856e-16)
(1.00114 -0.00326668 -1.22533e-16)
(1.00169 -0.00331443 1.4356e-17)
(1.00225 -0.00323201 -7.88985e-16)
(1.00279 -0.00301873 -3.0802e-16)
(1.00329 -0.00267732 3.23702e-16)
(1.00373 -0.0022385 -7.21274e-17)
(1.00408 -0.00164477 -1.99286e-16)
(0.998835 0.000414984 -4.42027e-17)
(0.998822 -0.000208735 -1.29443e-16)
(0.998906 -0.00083388 -1.85882e-16)
(0.99908 -0.00143336 6.10584e-17)
(0.999347 -0.00198648 -2.05305e-16)
(0.999701 -0.00247418 3.82405e-17)
(1.00013 -0.0028748 -4.7324e-17)
(1.00063 -0.00317078 -8.6361e-18)
(1.00117 -0.0033472 -1.46417e-16)
(1.00174 -0.00339449 -7.67532e-17)
(1.00231 -0.0033083 2.71754e-17)
(1.00286 -0.00308832 2.67496e-16)
(1.00338 -0.00273739 -1.34751e-16)
(1.00384 -0.00228722 2.65776e-16)
(1.00419 -0.00168036 9.37133e-17)
(0.998777 0.000426398 2.36248e-17)
(0.998764 -0.000213785 1.24005e-16)
(0.998851 -0.000855434 2.36157e-16)
(0.999032 -0.00147042 -6.82292e-17)
(0.99931 -0.00203758 -1.65515e-17)
(0.999676 -0.00253724 2.50576e-16)
(1.00012 -0.00294725 2.13038e-16)
(1.00063 -0.00324955 -1.45945e-16)
(1.00119 -0.00342901 3.90926e-16)
(1.00178 -0.00347594 3.54573e-16)
(1.00237 -0.00338602 3.76924e-16)
(1.00294 -0.00315932 -1.73996e-17)
(1.00347 -0.00279873 -2.98718e-16)
(1.00394 -0.00233694 -3.13459e-16)
(1.00429 -0.00171649 -3.01361e-17)
(0.998718 0.000437908 -2.02437e-17)
(0.998704 -0.00021888 -6.54839e-17)
(0.998795 -0.000877236 -1.95736e-16)
(0.998983 -0.00150793 1.25955e-16)
(0.999271 -0.00208936 1.20844e-16)
(0.99965 -0.0026012 -1.67775e-16)
(1.00011 -0.00302078 -8.46888e-17)
(1.00064 -0.00332957 8.3736e-18)
(1.00122 -0.0035122 -1.73737e-16)
(1.00182 -0.00355884 -3.038e-16)
(1.00243 -0.00346519 -5.60374e-16)
(1.00302 -0.00323166 6.04944e-17)
(1.00355 -0.00286122 3.64707e-16)
(1.00404 -0.00238749 3.29938e-16)
(1.0044 -0.00175301 -6.92411e-17)
(0.998657 0.000449507 -1.61093e-17)
(0.998643 -0.000224042 -1.3172e-17)
(0.998737 -0.000899311 1.71288e-16)
(0.998932 -0.00154593 -1.61598e-16)
(0.99923 -0.00214184 -3.19295e-16)
(0.999622 -0.00266607 1.54936e-16)
(1.0001 -0.00309543 8.79063e-17)
(1.00064 -0.00341087 4.0699e-16)
(1.00124 -0.00359677 5.81775e-17)
(1.00186 -0.00364315 2.82865e-16)
(1.00249 -0.00354572 8.39706e-16)
(1.00309 -0.00330521 -2.30277e-16)
(1.00364 -0.00292472 -9.76834e-17)
(1.00414 -0.00243873 -1.15213e-17)
(1.00451 -0.00178988 -2.75757e-17)
(0.998595 0.000461191 4.50525e-17)
(0.99858 -0.000229289 4.92117e-17)
(0.998678 -0.000921676 -1.47316e-16)
(0.99888 -0.00158443 1.36834e-16)
(0.999187 -0.00219504 -9.20874e-17)
(0.999593 -0.00273187 -2.96441e-16)
(1.00009 -0.00317118 1.30248e-17)
(1.00065 -0.0034934 -3.50074e-17)
(1.00126 -0.00368265 -2.15769e-16)
(1.0019 -0.00372879 1.81833e-16)
(1.00255 -0.00362751 -7.83798e-16)
(1.00317 -0.00337987 -1.42591e-17)
(1.00374 -0.00298911 -1.7448e-16)
(1.00424 -0.00249064 3.25584e-17)
(1.00462 -0.00182718 -8.1689e-17)
(0.998531 0.000472954 -1.14965e-17)
(0.998516 -0.000234645 -1.17258e-17)
(0.998617 -0.000944352 2.03846e-17)
(0.998826 -0.00162344 -1.52165e-16)
(0.999144 -0.00224896 -2.73144e-17)
(0.999562 -0.00279857 3.61966e-16)
(1.00007 -0.003248 -2.6376e-16)
(1.00065 -0.00357712 -3.26637e-16)
(1.00128 -0.00376978 3.49677e-16)
(1.00194 -0.00381566 -3.16303e-16)
(1.0026 -0.00371048 4.00197e-16)
(1.00324 -0.00345559 3.78458e-16)
(1.00383 -0.00305442 2.72424e-16)
(1.00435 -0.00254329 -1.81105e-16)
(1.00473 -0.00186506 -6.15699e-17)
(0.998466 0.000484791 -1.23985e-17)
(0.99845 -0.000240127 -7.19487e-17)
(0.998554 -0.000967356 -9.68715e-17)
(0.99877 -0.00166298 7.10896e-17)
(0.999098 -0.0023036 1.80152e-16)
(0.99953 -0.00286617 6.31793e-17)
(1.00005 -0.00332586 2.45126e-16)
(1.00065 -0.00366199 5.357e-17)
(1.0013 -0.00385812 -4.59746e-16)
(1.00198 -0.00390376 1.60838e-16)
(1.00266 -0.00379462 -2.27287e-16)
(1.00332 -0.00353241 -1.8871e-16)
(1.00392 -0.00312073 -2.54034e-16)
(1.00445 -0.0025968 4.01069e-17)
(1.00485 -0.00190363 1.48707e-16)
(0.998399 0.000496694 -1.90305e-17)
(0.998382 -0.000245758 3.42696e-17)
(0.99849 -0.000990707 4.13695e-17)
(0.998713 -0.00170306 -1.42487e-16)
(0.999051 -0.00235898 6.95276e-17)
(0.999496 -0.00293468 -2.10925e-16)
(1.00004 -0.00340478 -2.5835e-17)
(1.00065 -0.00374803 3.17137e-16)
(1.00132 -0.0039477 -2.02242e-16)
(1.00202 -0.00399313 -2.67284e-16)
(1.00272 -0.00388004 2.29509e-16)
(1.00339 -0.00361045 -6.81023e-17)
(1.00401 -0.00318819 -7.19809e-16)
(1.00455 -0.00265132 7.33787e-17)
(1.00496 -0.001943 1.06972e-16)
(0.998331 0.000508656 -9.79534e-18)
(0.998313 -0.000251555 3.34267e-17)
(0.998424 -0.00101442 1.25921e-17)
(0.998653 -0.0017437 1.89943e-17)
(0.999003 -0.00241512 1.1998e-16)
(0.999462 -0.00300413 6.66616e-17)
(1.00002 -0.0034848 -2.19525e-16)
(1.00065 -0.0038353 -2.00439e-17)
(1.00134 -0.00403861 6.05753e-16)
(1.00206 -0.00408389 -1.94245e-16)
(1.00278 -0.00396686 -5.71043e-18)
(1.00347 -0.00368985 2.87096e-17)
(1.0041 -0.00325693 2.77146e-17)
(1.00466 -0.00270696 -5.08086e-17)
(1.00507 -0.00198319 1.68857e-17)
(0.99826 0.000520667 2.58129e-17)
(0.998242 -0.000257536 -6.81842e-17)
(0.998356 -0.00103853 -7.78736e-17)
(0.998593 -0.00178493 1.49733e-19)
(0.998952 -0.00247206 -1.81166e-16)
(0.999425 -0.00307459 -2.89272e-17)
(0.999999 -0.003566 4.2626e-17)
(1.00065 -0.0039239 -4.82604e-17)
(1.00136 -0.00413097 -4.1011e-16)
(1.0021 -0.00417617 5.45937e-16)
(1.00284 -0.00405522 -3.11493e-17)
(1.00355 -0.00377076 -5.70184e-17)
(1.00419 -0.00332704 3.35917e-16)
(1.00476 -0.00276374 -3.76412e-16)
(1.00518 -0.00202415 7.92921e-18)
(0.998188 0.000532719 2.73884e-18)
(0.998169 -0.000263715 8.17974e-17)
(0.998287 -0.00106304 2.19804e-16)
(0.99853 -0.00182679 -5.54238e-17)
(0.998901 -0.00252984 1.17737e-16)
(0.999388 -0.0031461 -1.82929e-16)
(0.999978 -0.00364846 -2.19045e-16)
(1.00065 -0.00401393 5.25923e-18)
(1.00138 -0.00422489 2.3878e-16)
(1.00214 -0.00427008 -4.76493e-16)
(1.00289 -0.00414522 1.1866e-16)
(1.00362 -0.00385323 -2.06181e-17)
(1.00428 -0.00339854 2.59501e-16)
(1.00487 -0.00282163 8.01266e-17)
(1.0053 -0.0020658 -1.2449e-16)
(0.998114 0.000544801 1.05249e-18)
(0.998094 -0.000270104 -8.87775e-17)
(0.998215 -0.00108798 -1.25449e-16)
(0.998466 -0.00186928 2.07604e-17)
(0.998847 -0.0025885 -2.18736e-17)
(0.999348 -0.00321873 1.66049e-16)
(0.999955 -0.00373225 3.5964e-16)
(1.00065 -0.00410548 -3.18967e-16)
(1.0014 -0.00432044 3.62769e-16)
(1.00217 -0.0043657 3.20632e-17)
(1.00295 -0.00423691 7.11368e-17)
(1.0037 -0.00393726 -1.37349e-16)
(1.00438 -0.00347139 2.65048e-16)
(1.00498 -0.00288056 1.50093e-16)
(1.00541 -0.00210805 1.95563e-16)
(0.998038 0.000556903 -8.60776e-18)
(0.998017 -0.00027671 8.46845e-17)
(0.998142 -0.00111335 1.54516e-16)
(0.9984 -0.00191245 5.33798e-17)
(0.998792 -0.00264808 1.56111e-16)
(0.999307 -0.00329251 1.19881e-16)
(0.999931 -0.00381742 -3.22961e-16)
(1.00064 -0.00419858 6.46971e-16)
(1.00141 -0.00441768 -2.03486e-16)
(1.00221 -0.00446303 -6.76794e-17)
(1.00301 -0.00433026 -2.44916e-16)
(1.00378 -0.00402281 -1.07524e-16)
(1.00447 -0.00354553 -2.94968e-16)
(1.00508 -0.00294045 -1.08593e-16)
(1.00553 -0.00215089 4.70346e-17)
(0.99796 0.000569017 -3.05685e-17)
(0.997939 -0.000283537 -9.0563e-17)
(0.998067 -0.00113917 -1.08366e-17)
(0.998332 -0.00195629 1.0619e-16)
(0.998735 -0.00270858 -1.42072e-16)
(0.999265 -0.00336747 -1.04313e-16)
(0.999906 -0.00390398 4.04143e-16)
(1.00064 -0.00429325 -1.20695e-16)
(1.00143 -0.00451658 -5.15561e-16)
(1.00225 -0.00456206 7.09449e-17)
(1.00307 -0.00442524 -1.2435e-16)
(1.00385 -0.00410983 2.29999e-16)
(1.00456 -0.0036209 3.68231e-16)
(1.00519 -0.00300129 3.27767e-16)
(1.00565 -0.00219433 -2.74096e-16)
(0.99788 0.000581135 1.83333e-18)
(0.997859 -0.000290587 -1.74688e-17)
(0.997991 -0.00116545 -7.23032e-17)
(0.998263 -0.00200083 4.50633e-17)
(0.998677 -0.00277003 -7.87761e-17)
(0.999221 -0.00344361 1.34342e-16)
(0.999879 -0.00399193 -1.1613e-16)
(1.00063 -0.00438947 3.98456e-17)
(1.00144 -0.00461714 -1.08058e-16)
(1.00228 -0.00466275 2.74882e-16)
(1.00312 -0.00452182 3.36261e-16)
(1.00393 -0.0041983 1.94268e-18)
(1.00466 -0.00369751 -5.86046e-16)
(1.0053 -0.00306308 -3.98526e-16)