1.45 	0 	0 	-0.292611
2.35 	0 	0 	-0.127865
