/*--------------------------------*- C++ -*----------------------------------*\
  =========                 |
  \\      /  F ield         | OpenFOAM: The Open Source CFD Toolbox
   \\    /   O peration     | Website:  https://openfoam.org
    \\  /    A nd           | Version:  6.0
     \\/     M anipulation  |
\*---------------------------------------------------------------------------*/
FoamFile
{
    version     2.0;
    format      ascii;
    class       volVectorField;
    location    "0.3";
    object      U;
}
// * * * * * * * * * * * * * * * * * * * * * * * * * * * * * * * * * * * * * //

dimensions      [0 1 -1 0 0 0 0];

internalField   nonuniform List<vector> 
1600
(
(6.04698e-05 -6.05279e-05 0)
(0.000155843 -5.71255e-05 0)
(0.000156827 -6.96606e-06 0)
(6.58927e-06 5.25888e-05 0)
(-0.000303293 0.00010818 0)
(-0.000756434 0.000155098 0)
(-0.00132837 0.000191979 0)
(-0.00199212 0.000218862 0)
(-0.00272048 0.000236319 0)
(-0.00348716 0.000245096 0)
(-0.00426744 0.000245985 0)
(-0.00503845 0.000239771 0)
(-0.00577933 0.000227216 0)
(-0.00647133 0.000209056 0)
(-0.00709781 0.000186001 0)
(-0.0076443 0.000158743 0)
(-0.00809846 0.000127965 0)
(-0.00845014 9.43489e-05 0)
(-0.00869144 5.85855e-05 0)
(-0.00881671 2.13842e-05 0)
(-0.00882266 -1.65194e-05 0)
(-0.00870844 -5.43567e-05 0)
(-0.00847573 -9.13235e-05 0)
(-0.00812883 -0.000126579 0)
(-0.00767475 -0.000159251 0)
(-0.00712328 -0.000188438 0)
(-0.00648696 -0.000213226 0)
(-0.00578116 -0.0002327 0)
(-0.00502389 -0.000245958 0)
(-0.00423576 -0.000252135 0)
(-0.00343969 -0.000250415 0)
(-0.0026606 -0.000240057 0)
(-0.00192502 -0.000220424 0)
(-0.00126043 -0.000191037 0)
(-0.000694404 -0.0001517 0)
(-0.000253174 -0.000102837 0)
(4.07505e-05 -4.63292e-05 0)
(0.000174231 1.25853e-05 0)
(0.000160275 6.01734e-05 0)
(6.02453e-05 6.00139e-05 0)
(5.86261e-05 -0.000156956 0)
(7.2492e-05 -6.95061e-05 0)
(-0.000178403 0.000182352 0)
(-0.000772545 0.000477008 0)
(-0.00172442 0.000761109 0)
(-0.00300747 0.00100952 0)
(-0.00457314 0.00121093 0)
(-0.00636204 0.00136144 0)
(-0.00831042 0.00146095 0)
(-0.0103541 0.00151136 0)
(-0.0124307 0.00151564 0)
(-0.0144814 0.00147735 0)
(-0.0164517 0.00140038 0)
(-0.0182919 0.00128875 0)
(-0.0199579 0.00114662 0)
(-0.0214108 0.000978188 0)
(-0.0226176 0.000787707 0)
(-0.0235511 0.000579516 0)
(-0.0241902 0.000358047 0)
(-0.0245199 0.000127864 0)
(-0.0245319 -0.000106318 0)
(-0.0242242 -0.000339611 0)
(-0.0236017 -0.000566956 0)
(-0.0226766 -0.000783131 0)
(-0.0214679 -0.000982788 0)
(-0.0200021 -0.00116051 0)
(-0.0183129 -0.00131089 0)
(-0.0164408 -0.00142863 0)
(-0.0144335 -0.00150867 0)
(-0.0123445 -0.00154636 0)
(-0.010233 -0.00153761 0)
(-0.00816221 -0.00147914 0)
(-0.00619831 -0.00136878 0)
(-0.00440801 -0.00120598 0)
(-0.00285572 -0.000992633 0)
(-0.00159917 -0.000734808 0)
(-0.000682815 -0.000446047 0)
(-0.000126847 -0.000153508 0)
(9.1947e-05 8.83707e-05 0)
(6.17174e-05 0.000160688 0)
(1.136e-05 -0.000162754 0)
(-0.000171973 0.000178316 0)
(-0.000803864 0.000813706 0)
(-0.00193066 0.00153604 0)
(-0.00355316 0.00223831 0)
(-0.00563542 0.00286104 0)
(-0.00811264 0.00337267 0)
(-0.0109033 0.00375881 0)
(-0.013918 0.00401529 0)
(-0.0170647 0.00414406 0)
(-0.0202526 0.0041508 0)
(-0.0233949 0.00404351 0)
(-0.0264104 0.00383161 0)
(-0.0292245 0.00352542 0)
(-0.0317704 0.00313585 0)
(-0.0339894 0.0026742 0)
(-0.0358313 0.00215211 0)
(-0.0372549 0.00158154 0)
(-0.0382282 0.000974768 0)
(-0.0387287 0.000344459 0)
(-0.0387438 -0.000296317 0)
(-0.038271 -0.000934065 0)
(-0.0373183 -0.00155488 0)
(-0.0359041 -0.0021445 0)
(-0.034058 -0.00268844 0)
(-0.0318201 -0.00317211 0)
(-0.0292413 -0.00358112 0)
(-0.0263832 -0.00390153 0)
(-0.0233168 -0.00412027 0)
(-0.0201221 -0.00422557 0)
(-0.0168864 -0.00420757 0)
(-0.0137026 -0.004059 0)
(-0.0106666 -0.00377617 0)
(-0.00787379 -0.00336033 0)
(-0.00541466 -0.00281993 0)
(-0.00336866 -0.00217431 0)
(-0.00179546 -0.00146011 0)
(-0.000722996 -0.00074107 0)
(-0.000138935 -0.000126389 0)
(1.75914e-05 0.000180005 0)
(-4.55736e-05 -2.1996e-05 0)
(-0.00046447 0.000767784 0)
(-0.00153512 0.00194101 0)
(-0.00324124 0.00322608 0)
(-0.0055536 0.00446734 0)
(-0.00842119 0.00556996 0)
(-0.011763 0.00647893 0)
(-0.0154792 0.00716616 0)
(-0.0194601 0.007621 0)
(-0.0235921 0.00784417 0)
(-0.0277625 0.00784379 0)
(-0.0318625 0.00763287 0)
(-0.0357897 0.00722767 0)
(-0.0394496 0.0066466 0)
(-0.0427573 0.00590951 0)
(-0.0456379 0.00503734 0)
(-0.0480272 0.00405181 0)
(-0.0498725 0.0029754 0)
(-0.0511331 0.00183129 0)
(-0.0517804 0.0006434 0)
(-0.0517983 -0.000563611 0)
(-0.0511839 -0.00176432 0)
(-0.0499475 -0.00293262 0)
(-0.0481133 -0.00404182 0)
(-0.0457189 -0.00506494 0)
(-0.0428157 -0.00597496 0)
(-0.0394687 -0.00674539 0)
(-0.035756 -0.00735078 0)
(-0.0317675 -0.00776752 0)
(-0.027604 -0.00797472 0)
(-0.0233753 -0.00795537 0)
(-0.0191972 -0.00769768 0)
(-0.015189 -0.00719695 0)
(-0.0114683 -0.00645794 0)
(-0.00814641 -0.00549855 0)
(-0.00532134 -0.00435523 0)
(-0.00306847 -0.00309152 0)
(-0.00142968 -0.0018096 0)
(-0.000420154 -0.000669399 0)
(-3.68399e-05 5.97632e-05 0)
(-0.000100729 0.000278564 0)
(-0.000761341 0.0017288 0)
(-0.00228945 0.00359135 0)
(-0.00459286 0.0055551 0)
(-0.00760183 0.00742739 0)
(-0.0112443 0.00908313 0)
(-0.0154206 0.0104454 0)
(-0.0200126 0.0114721 0)
(-0.0248928 0.0121454 0)
(-0.0299297 0.0124642 0)
(-0.0349926 0.0124388 0)
(-0.0399551 0.0120877 0)
(-0.0446977 0.0114348 0)
(-0.0491102 0.0105078 0)
(-0.0530928 0.00933717 0)
(-0.0565577 0.00795519 0)
(-0.0594296 0.00639579 0)
(-0.0616466 0.0046942 0)
(-0.0631607 0.0028868 0)
(-0.0639383 0.00101119 0)
(-0.0639607 -0.000893851 0)
(-0.0632245 -0.00278845 0)
(-0.0617419 -0.0046317 0)
(-0.0595412 -0.00638195 0)
(-0.0566666 -0.00799715 0)
(-0.0531786 -0.00943542 0)
(-0.0491532 -0.0106558 0)
(-0.0446815 -0.0116192 0)
(-0.0398688 -0.0122897 0)
(-0.0348326 -0.0126359 0)
(-0.0297003 -0.0126325 0)
(-0.024607 -0.0122629 0)
(-0.0196908 -0.0115215 0)
(-0.0150885 -0.0104175 0)
(-0.0109301 -0.00897919 0)
(-0.00733243 -0.00726092 0)
(-0.00438947 -0.00535223 0)
(-0.00216337 -0.0033895 0)
(-0.0007074 -0.0015731 0)
(-8.985e-05 -0.000214702 0)
(-0.000151053 0.000732542 0)
(-0.00104612 0.00306212 0)
(-0.00302922 0.005772 0)
(-0.00592978 0.00853047 0)
(-0.00963238 0.0111194 0)
(-0.0140392 0.0133906 0)
(-0.0190287 0.0152489 0)
(-0.0244635 0.0166401 0)
(-0.0301985 0.0175399 0)
(-0.036086 0.0179458 0)
(-0.0419797 0.0178708 0)
(-0.0477382 0.0173395 0)
(-0.0532283 0.0163841 0)
(-0.0583266 0.0150429 0)
(-0.0629218 0.0133581 0)
(-0.0669156 0.0113751 0)
(-0.0702237 0.00914154 0)
(-0.0727769 0.00670716 0)
(-0.0745214 0.00412348 0)
(-0.0754193 0.00144368 0)
(-0.0754499 -0.00127736 0)
(-0.0746089 -0.00398325 0)
(-0.0729101 -0.00661626 0)
(-0.0703846 -0.00911766 0)
(-0.0670819 -0.0114283 0)
(-0.0630691 -0.0134894 0)
(-0.0584309 -0.0152437 0)
(-0.053269 -0.0166366 0)
(-0.0477007 -0.0176181 0)
(-0.0418571 -0.018145 0)
(-0.0358808 -0.0181828 0)
(-0.0299229 -0.0177092 0)
(-0.0241384 -0.0167173 0)
(-0.0186822 -0.0152203 0)
(-0.0137031 -0.0132563 0)
(-0.00933808 -0.0108964 0)
(-0.00570338 -0.00825296 0)
(-0.00288641 -0.00549064 0)
(-0.000983893 -0.00283998 0)
(-0.00013821 -0.000637719 0)
(-0.000196447 0.00132961 0)
(-0.00131444 0.00475633 0)
(-0.00374061 0.00847533 0)
(-0.00722879 0.0121466 0)
(-0.0116163 0.0155363 0)
(-0.0167764 0.0184802 0)
(-0.0225633 0.0208698 0)
(-0.0288184 0.022642 0)
(-0.0353787 0.0237681 0)
(-0.0420805 0.0242454 0)
(-0.0487631 0.024091 0)
(-0.0552722 0.0233363 0)
(-0.0614626 0.0220231 0)
(-0.0672003 0.0202013 0)
(-0.0723644 0.0179261 0)
(-0.0768482 0.0152571 0)
(-0.0805603 0.0122571 0)
(-0.0834255 0.00899184 0)
(-0.0853855 0.00552932 0)
(-0.086399 0.00193985 0)
(-0.086443 -0.00170408 0)
(-0.0855128 -0.005328 0)
(-0.0836225 -0.00885573 0)
(-0.0808055 -0.0122099 0)
(-0.0771146 -0.0153125 0)
(-0.072622 -0.0180862 0)
(-0.0674191 -0.0204557 0)
(-0.0616157 -0.0223494 0)
(-0.0553391 -0.0237017 0)
(-0.0487317 -0.0244559 0)
(-0.0419494 -0.0245669 0)
(-0.0351577 -0.0240055 0)
(-0.028528 -0.0227624 0)
(-0.0222331 -0.020853 0)
(-0.0164416 -0.018324 0)
(-0.0113131 -0.0152601 0)
(-0.00698921 -0.0117928 0)
(-0.00358594 -0.00810883 0)
(-0.00124548 -0.00446074 0)
(-0.000181799 -0.00119959 0)
(-0.000237837 0.00206007 0)
(-0.00156752 0.0067969 0)
(-0.00442254 0.0116879 0)
(-0.00848572 0.0163919 0)
(-0.0135475 0.0206669 0)
(-0.0194504 0.024339 0)
(-0.0260222 0.0272915 0)
(-0.0330819 0.0294562 0)
(-0.0404476 0.0308029 0)
(-0.0479394 0.0313311 0)
(-0.0553828 0.0310635 0)
(-0.0626114 0.0300398 0)
(-0.0694697 0.028313 0)
(-0.0758145 0.0259454 0)
(-0.0815171 0.0230066 0)
(-0.0864641 0.0195716 0)
(-0.0905584 0.0157195 0)
(-0.0937202 0.0115328 0)
(-0.0958871 0.00709729 0)
(-0.0970155 0.00250149 0)
(-0.09708 -0.00216342 0)
(-0.0960751 -0.00680375 0)
(-0.0940149 -0.0113237 0)
(-0.0909336 -0.0156258 0)
(-0.0868864 -0.0196122 0)
(-0.0819488 -0.0231855 0)
(-0.0762171 -0.0262506 0)
(-0.0698075 -0.0287175 0)
(-0.0628551 -0.0305032 0)
(-0.0555126 -0.0315358 0)
(-0.0479476 -0.031758 0)
(-0.0403395 -0.0311317 0)
(-0.0328761 -0.0296429 0)
(-0.0257487 -0.0273075 0)
(-0.0191475 -0.0241777 0)
(-0.0132569 -0.0203486 0)
(-0.00824628 -0.0159666 0)
(-0.00426272 -0.0112354 0)
(-0.00149398 -0.00642368 0)
(-0.000221626 -0.00189146 0)
(-0.000276363 0.00291613 0)
(-0.0018087 0.00917045 0)
(-0.00507996 0.0153962 0)
(-0.00970624 0.0212546 0)
(-0.0154321 0.0265008 0)
(-0.0220687 0.0309565 0)
(-0.0294161 0.034502 0)
(-0.0372694 0.037068 0)
(-0.0454267 0.0386263 0)
(-0.0536919 0.0391815 0)
(-0.0618766 0.0387639 0)
(-0.0698031 0.037424 0)
(-0.0773064 0.035227 0)
(-0.0842356 0.0322494 0)
(-0.0904553 0.0285763 0)
(-0.0958468 0.024299 0)
(-0.100309 0.0195137 0)
(-0.103757 0.0143211 0)
(-0.106128 0.008825 0)
(-0.107373 0.00313302 0)
(-0.107467 -0.00264424 0)
(-0.106402 -0.00839311 0)
(-0.104191 -0.0139973 0)
(-0.10087 -0.0193386 0)
(-0.0964935 -0.0242977 0)
(-0.0911395 -0.0287561 0)
(-0.0849074 -0.0325978 0)
(-0.0779181 -0.0357122 0)
(-0.0703136 -0.0379975 0)
(-0.0622551 -0.0393645 0)
(-0.0539212 -0.0397411 0)
(-0.0455053 -0.0390781 0)
(-0.0372117 -0.0373541 0)
(-0.0292514 -0.0345824 0)
(-0.021838 -0.0308174 0)
(-0.0151827 -0.0261612 0)
(-0.00948482 -0.0207709 0)
(-0.00492417 -0.0148633 0)
(-0.00173367 -0.00871937 0)
(-0.00025899 -0.00270679 0)
(-0.000313079 0.00389229 0)
(-0.00204187 0.0118667 0)
(-0.00572015 0.0195892 0)
(-0.0109006 0.0267247 0)
(-0.0172829 0.0330292 0)
(-0.0246464 0.0383246 0)
(-0.0327624 0.0424927 0)
(-0.0414012 0.0454673 0)
(-0.0503403 0.0472259 0)
(-0.0593666 0.0477816 0)
(-0.068278 0.0471754 0)
(-0.0768861 0.0454703 0)
(-0.0850169 0.042746 0)
(-0.0925129 0.0390948 0)
(-0.0992335 0.0346184 0)
(-0.105056 0.0294255 0)
(-0.109875 0.0236304 0)
(-0.113604 0.0173521 0)
(-0.116177 0.0107133 0)
(-0.117544 0.00384098 0)
(-0.117677 -0.00313447 0)
(-0.116567 -0.010079 0)
(-0.114226 -0.0168554 0)
(-0.110688 -0.0233238 0)
(-0.106007 -0.029343 0)
(-0.100263 -0.034772 0)
(-0.0935552 -0.0394725 0)
(-0.086009 -0.0433118 0)
(-0.0777711 -0.046167 0)
(-0.0690105 -0.047929 0)
(-0.0599164 -0.0485087 0)
(-0.0506958 -0.0478421 0)
(-0.0415702 -0.0458975 0)
(-0.0327716 -0.0426819 0)
(-0.0245384 -0.0382482 0)
(-0.0171109 -0.0327016 0)
(-0.0107204 -0.0262066 0)
(-0.0055806 -0.0189898 0)
(-0.00196962 -0.0113428 0)
(-0.000295152 -0.00364189 0)
(-0.000348885 0.00498527 0)
(-0.0022708 0.0148791 0)
(-0.00635098 0.0242597 0)
(-0.0120804 0.0327957 0)
(-0.0191147 0.0402463 0)
(-0.0272008 0.0464378 0)
(-0.0360808 0.0512573 0)
(-0.045499 0.0546463 0)
(-0.0552117 0.0565921 0)
(-0.0649886 0.0571197 0)
(-0.0746141 0.056284 0)
(-0.083889 0.0541634 0)
(-0.0926318 0.0508543 0)
(-0.100679 0.0464665 0)
(-0.107886 0.0411196 0)
(-0.114127 0.0349407 0)
(-0.119294 0.0280628 0)
(-0.1233 0.0206236 0)
(-0.126076 0.0127651 0)
(-0.127571 0.0046335 0)
(-0.127754 -0.00362093 0)
(-0.126616 -0.0118437 0)
(-0.124165 -0.0198765 0)
(-0.120434 -0.0275575 0)
(-0.115475 -0.034723 0)
(-0.109366 -0.0412085 0)
(-0.102208 -0.046852 0)
(-0.0941271 -0.0514969 0)
(-0.0852739 -0.0549966 0)
(-0.075824 -0.0572199 0)
(-0.0659764 -0.0580567 0)
(-0.0559516 -0.0574252 0)
(-0.045989 -0.055279 0)
(-0.0363428 -0.0516149 0)
(-0.0272779 -0.0464801 0)
(-0.0190655 -0.0399792 0)
(-0.0119708 -0.0322805 0)
(-0.00624327 -0.0236184 0)
(-0.00220692 -0.0142945 0)
(-0.000331256 -0.00469591 0)
(-0.000384534 0.00619376 0)
(-0.00249893 0.018205 0)
(-0.00698002 0.0294046 0)
(-0.0132576 0.0394645 0)
(-0.0209428 0.0481494 0)
(-0.0297498 0.0552927 0)
(-0.0393904 0.0607912 0)
(-0.0495827 0.0645985 0)
(-0.060061 0.0667159 0)
(-0.0705774 0.0671843 0)
(-0.0809032 0.0660762 0)
(-0.0908292 0.0634885 0)
(-0.100167 0.0595365 0)
(-0.108748 0.0543494 0)
(-0.116426 0.0480665 0)
(-0.123072 0.0408341 0)
(-0.128578 0.0328044 0)
(-0.132856 0.0241341 0)
(-0.135835 0.0149841 0)
(-0.137464 0.00551978 0)
(-0.137711 -0.00408908 0)
(-0.136562 -0.0136679 0)
(-0.134024 -0.0230374 0)
(-0.130126 -0.032014 0)
(-0.124918 -0.0404107 0)
(-0.118474 -0.0480391 0)
(-0.110894 -0.0547118 0)
(-0.102303 -0.0602466 0)
(-0.0928557 -0.0644707 0)
(-0.0827312 -0.0672273 0)
(-0.072138 -0.0683818 0)
(-0.0613099 -0.0678303 0)
(-0.0505044 -0.0655071 0)
(-0.0399987 -0.061394 0)
(-0.030086 -0.0555279 0)
(-0.0210707 -0.0480089 0)
(-0.0132542 -0.0390058 0)
(-0.00692346 -0.028759 0)
(-0.00245049 -0.0175803 0)
(-0.000368318 -0.00587074 0)
(-0.000420652 0.00751821 0)
(-0.00272929 0.0218452 0)
(-0.00761422 0.035025 0)
(-0.0144429 0.0467323 0)
(-0.0227813 0.0567385 0)
(-0.0323097 0.0648877 0)
(-0.0427087 0.0710906 0)
(-0.053669 0.075317 0)
(-0.0649029 0.0775871 0)
(-0.0761452 0.0779622 0)
(-0.0871539 0.0765361 0)
(-0.0977111 0.0734275 0)
(-0.107622 0.0687739 0)
(-0.116716 0.0627258 0)
(-0.124844 0.0554433 0)
(-0.131878 0.0470933 0)
(-0.13771 0.0378472 0)
(-0.142252 0.0278808 0)
(-0.145434 0.0173736 0)
(-0.147203 0.00650948 0)
(-0.147526 -0.00452308 0)
(-0.146386 -0.0155301 0)
(-0.143788 -0.0263121 0)
(-0.139753 -0.0366636 0)
(-0.13433 -0.0463748 0)
(-0.127586 -0.0552324 0)
(-0.119619 -0.0630227 0)
(-0.110551 -0.0695356 0)
(-0.100535 -0.0745695 0)
(-0.0897562 -0.0779382 0)
(-0.0784296 -0.0794787 0)
(-0.0668019 -0.0790597 0)
(-0.0551485 -0.0765911 0)
(-0.0437706 -0.0720343 0)
(-0.0329915 -0.0654108 0)
(-0.0231505 -0.0568114 0)
(-0.0145883 -0.0464025 0)
(-0.00763199 -0.0344284 0)
(-0.00270491 -0.0212116 0)
(-0.000407251 -0.0071708 0)
(-0.000457775 0.00896054 0)
(-0.0029646 0.0258038 0)
(-0.0082599 0.0411258 0)
(-0.0156466 0.0546032 0)
(-0.0246432 0.0660161 0)
(-0.0348948 0.0752225 0)
(-0.0460495 0.082151 0)
(-0.0577701 0.0867929 0)
(-0.0697461 0.0891923 0)
(-0.0816952 0.0894356 0)
(-0.0933633 0.0876423 0)
(-0.104524 0.0839571 0)
(-0.11498 0.078542 0)
(-0.124558 0.0715716 0)
(-0.133108 0.0632286 0)
(-0.140507 0.0537006 0)
(-0.146646 0.043179 0)
(-0.151441 0.0318582 0)
(-0.154821 0.0199354 0)
(-0.156735 0.00761203 0)
(-0.157147 -0.00490585 0)
(-0.156038 -0.0174062 0)
(-0.153408 -0.0296701 0)
(-0.149274 -0.0414715 0)
(-0.143676 -0.0525776 0)
(-0.136676 -0.0627501 0)
(-0.128365 -0.0717478 0)
(-0.11886 -0.0793308 0)
(-0.108313 -0.0852657 0)
(-0.0969086 -0.0893333 0)
(-0.0848686 -0.0913369 0)
(-0.0724506 -0.0911124 0)
(-0.0599479 -0.0885393 0)
(-0.0476862 -0.0835521 0)
(-0.0360202 -0.0761512 0)
(-0.0253272 -0.0664127 0)
(-0.0159897 -0.0544966 0)
(-0.00837915 -0.0406496 0)
(-0.00297448 -0.0252051 0)
(-0.000448893 -0.0086028 0)
(-0.000496377 0.010524 0)
(-0.0032073 0.030088 0)
(-0.00892282 0.0477154 0)
(-0.0168775 0.0630848 0)
(-0.0265399 0.0759868 0)
(-0.0375172 0.0862968 0)
(-0.0494237 0.0939663 0)
(-0.061893 0.0990137 0)
(-0.0745918 0.101512 0)
(-0.0872211 0.10158 0)
(-0.0995158 0.0993655 0)
(-0.111244 0.0950445 0)
(-0.122204 0.0888072 0)
(-0.132225 0.0808542 0)
(-0.141161 0.0713924 0)
(-0.14889 0.0606311 0)
(-0.15531 0.0487815 0)
(-0.160338 0.0360558 0)
(-0.163908 0.0226682 0)
(-0.165968 0.00883582 0)
(-0.166483 -0.00521931 0)
(-0.165429 -0.0192688 0)
(-0.162801 -0.033076 0)
(-0.15861 -0.0463956 0)
(-0.152887 -0.0589725 0)
(-0.145686 -0.0705435 0)
(-0.137086 -0.0808391 0)
(-0.127199 -0.0895877 0)
(-0.116169 -0.0965213 0)
(-0.104181 -0.101383 0)
(-0.0914585 -0.103938 0)
(-0.0782687 -0.103981 0)
(-0.0649218 -0.101357 0)
(-0.0517682 -0.0959632 0)
(-0.0391954 -0.0877735 0)
(-0.0276212 -0.0768429 0)
(-0.0174742 -0.0633203 0)
(-0.00917469 -0.0474519 0)
(-0.00326333 -0.0295824 0)
(-0.000494037 -0.0101757 0)
(-0.000536912 0.0122132 0)
(-0.00345976 0.0347075 0)
(-0.00960853 0.0548055 0)
(-0.0181444 0.0721871 0)
(-0.0284816 0.086656 0)
(-0.0401869 0.0981093 0)
(-0.0528383 0.106527 0)
(-0.0660392 0.111961 0)
(-0.0794333 0.114521 0)
(-0.0927058 0.11436 0)
(-0.105582 0.111665 0)
(-0.117826 0.106645 0)
(-0.129237 0.0995233 0)
(-0.139647 0.0905285 0)
(-0.148916 0.0798932 0)
(-0.15693 0.0678494 0)
(-0.163592 0.0546274 0)
(-0.168826 0.0404566 0)
(-0.17257 0.0255661 0)
(-0.174775 0.0101871 0)
(-0.175403 -0.00544484 0)
(-0.17443 -0.0210874 0)
(-0.171844 -0.0364886 0)
(-0.167646 -0.0513854 0)
(-0.161858 -0.0655022 0)
(-0.154522 -0.0785513 0)
(-0.145704 -0.0902347 0)
(-0.135505 -0.100247 0)
(-0.12406 -0.108284 0)
(-0.111546 -0.114045 0)
(-0.0981867 -0.11725 0)
(-0.0842567 -0.11765 0)
(-0.0700806 -0.115041 0)
(-0.0560332 -0.10928 0)
(-0.0425363 -0.100302 0)
(-0.030051 -0.0881351 0)
(-0.0190566 -0.0729102 0)
(-0.010028 -0.0548701 0)
(-0.00357545 -0.0343698 0)
(-0.000543468 -0.0119005 0)
(-0.000579851 0.0140337 0)
(-0.00372443 0.0396749 0)
(-0.0103227 0.0624106 0)
(-0.0194557 0.0819222 0)
(-0.0304781 0.0980296 0)
(-0.0429122 0.110657 0)
(-0.0562971 0.119819 0)
(-0.0702047 0.125609 0)
(-0.0842556 0.128179 0)
(-0.0981204 0.127728 0)
(-0.111517 0.124485 0)
(-0.124208 0.118699 0)
(-0.135998 0.110628 0)
(-0.146725 0.100534 0)
(-0.156259 0.0886749 0)
(-0.164495 0.0753067 0)
(-0.171348 0.0606782 0)
(-0.176749 0.0450343 0)
(-0.180643 0.0286171 0)
(-0.182984 0.011669 0)
(-0.183735 -0.00556387 0)
(-0.182869 -0.0228282 0)
(-0.180368 -0.0398598 0)
(-0.176223 -0.0563806 0)
(-0.170443 -0.0720966 0)
(-0.163054 -0.0866972 0)
(-0.154107 -0.0998556 0)
(-0.143687 -0.111232 0)
(-0.131912 -0.120481 0)
(-0.118951 -0.127257 0)
(-0.105022 -0.131227 0)
(-0.0904002 -0.132089 0)
(-0.075424 -0.129581 0)
(-0.0604911 -0.123509 0)
(-0.0460582 -0.11376 0)
(-0.0326331 -0.100324 0)
(-0.0207508 -0.0833073 0)
(-0.0109483 -0.0629439 0)
(-0.00391488 -0.0395979 0)
(-0.000597991 -0.0137903 0)
(-0.000625733 0.0159927 0)
(-0.00400408 0.0450058 0)
(-0.0110716 0.0705485 0)
(-0.0208207 0.0923043 0)
(-0.0325394 0.110113 0)
(-0.0457006 0.123932 0)
(-0.0598011 0.13382 0)
(-0.0743798 0.13992 0)
(-0.0890348 0.142436 0)
(-0.103423 0.141621 0)
(-0.11726 0.137753 0)
(-0.130309 0.131126 0)
(-0.142383 0.12204 0)
(-0.153332 0.110789 0)
(-0.163041 0.0976628 0)
(-0.171418 0.0829377 0)
(-0.178392 0.0668811 0)
(-0.183906 0.0497513 0)
(-0.187914 0.0318008 0)
(-0.190376 0.0132797 0)
(-0.191256 -0.00555881 0)
(-0.190525 -0.0244545 0)
(-0.188157 -0.0431346 0)
(-0.184134 -0.0613099 0)
(-0.178447 -0.0786711 0)
(-0.171105 -0.0948864 0)
(-0.16214 -0.109602 0)
(-0.151611 -0.122443 0)
(-0.139621 -0.133019 0)
(-0.126317 -0.140936 0)
(-0.111908 -0.145802 0)
(-0.0966676 -0.147249 0)
(-0.0809397 -0.144951 0)
(-0.0651438 -0.138648 0)
(-0.0497719 -0.128166 0)
(-0.0353818 -0.113444 0)
(-0.0225705 -0.0945558 0)
(-0.011945 -0.0717184 0)
(-0.00428585 -0.0453023 0)
(-0.000658478 -0.0158604 0)
(-0.000675228 0.0180987 0)
(-0.00430207 0.0507188 0)
(-0.0118628 0.0792402 0)
(-0.0222501 0.103349 0)
(-0.0346764 0.12291 0)
(-0.0485591 0.137922 0)
(-0.0633487 0.148499 0)
(-0.0785494 0.154842 0)
(-0.0937371 0.157223 0)
(-0.108559 0.155953 0)
(-0.122729 0.15137 0)
(-0.136019 0.143822 0)
(-0.148256 0.133651 0)
(-0.159308 0.121191 0)
(-0.169076 0.10676 0)
(-0.177489 0.0906572 0)
(-0.184495 0.0731661 0)
(-0.190052 0.0545561 0)
(-0.194125 0.0350864 0)
(-0.196682 0.0150113 0)
(-0.197693 -0.00541406 0)
(-0.197124 -0.0259269 0)
(-0.194942 -0.046251 0)
(-0.191118 -0.0660904 0)
(-0.185625 -0.0851245 0)
(-0.178451 -0.103004 0)
(-0.169599 -0.119349 0)
(-0.159105 -0.133751 0)
(-0.147041 -0.145775 0)
(-0.133532 -0.154969 0)
(-0.118766 -0.160878 0)
(-0.103006 -0.163059 0)
(-0.0866003 -0.161107 0)
(-0.0699837 -0.154679 0)
(-0.0536833 -0.143528 0)
(-0.0383099 -0.127528 0)
(-0.0245288 -0.106702 0)
(-0.0130279 -0.0812427 0)
(-0.00469297 -0.0515229 0)
(-0.000725915 -0.0181284 0)
(-0.000729211 0.0203623 0)
(-0.00462274 0.0568369 0)
(-0.0127059 0.0885111 0)
(-0.0237573 0.115074 0)
(-0.0369027 0.136423 0)
(-0.0514958 0.152609 0)
(-0.0669361 0.163811 0)
(-0.0826917 0.170308 0)
(-0.0983179 0.172446 0)
(-0.113455 0.170612 0)
(-0.127822 0.165212 0)
(-0.141206 0.156652 0)
(-0.153453 0.145327 0)
(-0.164454 0.131608 0)
(-0.174137 0.115844 0)
(-0.182456 0.0983563 0)
(-0.18938 0.0794429 0)
(-0.194889 0.0593804 0)
(-0.198962 0.0384308 0)
(-0.201579 0.0168474 0)
(-0.202713 -0.00511743 0)
(-0.202331 -0.0272045 0)
(-0.200394 -0.0491398 0)
(-0.196856 -0.0706265 0)
(-0.191673 -0.091338 0)
(-0.184806 -0.110912 0)
(-0.176229 -0.128947 0)
(-0.165941 -0.145001 0)
(-0.153982 -0.158592 0)
(-0.140442 -0.169211 0)
(-0.12548 -0.176328 0)
(-0.109339 -0.179416 0)
(-0.0923609 -0.177976 0)
(-0.0749924 -0.171568 0)
(-0.0577929 -0.159846 0)
(-0.0414281 -0.142602 0)
(-0.0266397 -0.119792 0)
(-0.0142078 -0.0915705 0)
(-0.00514154 -0.0583047 0)
(-0.000801467 -0.0206143 0)
(-0.00078887 0.0227965 0)
(-0.0049719 0.0633883 0)
(-0.0136134 0.0983913 0)
(-0.0253599 0.127499 0)
(-0.0392352 0.15065 0)
(-0.05452 0.167961 0)
(-0.0705573 0.179695 0)
(-0.0867779 0.186224 0)
(-0.102719 0.187986 0)
(-0.11802 0.185456 0)
(-0.132412 0.17912 0)
(-0.145703 0.169451 0)
(-0.157768 0.156897 0)
(-0.168531 0.141874 0)
(-0.177951 0.124761 0)
(-0.186014 0.105899 0)
(-0.192718 0.0855979 0)
(-0.198064 0.0641368 0)
(-0.202055 0.0417759 0)
(-0.204681 0.0187621 0)
(-0.205925 -0.00466162 0)
(-0.205753 -0.0282459 0)
(-0.204119 -0.0517258 0)
(-0.200964 -0.0748105 0)
(-0.196222 -0.0971743 0)
(-0.189824 -0.118448 0)
(-0.18171 -0.138213 0)
(-0.171838 -0.155997 0)
(-0.160203 -0.171274 0)
(-0.14685 -0.183472 0)
(-0.131898 -0.191981 0)
(-0.115559 -0.196179 0)
(-0.0981553 -0.195455 0)
(-0.0801381 -0.189251 0)
(-0.0620942 -0.177101 0)
(-0.0447457 -0.158684 0)
(-0.0289178 -0.133872 0)
(-0.0154973 -0.10276 0)
(-0.00563791 -0.0656984 0)
(-0.000886573 -0.0233413 0)
(-0.00085586 0.0254181 0)
(-0.00535748 0.0704086 0)
(-0.0146026 0.108918 0)
(-0.0270809 0.140646 0)
(-0.041696 0.165584 0)
(-0.0576432 0.183936 0)
(-0.0742036 0.196069 0)
(-0.09077 0.202469 0)
(-0.106866 0.203687 0)
(-0.122138 0.200303 0)
(-0.136337 0.192893 0)
(-0.149305 0.182007 0)
(-0.160955 0.168152 0)
(-0.17125 0.151789 0)
(-0.180192 0.133325 0)
(-0.187804 0.113121 0)
(-0.194118 0.0914916 0)
(-0.199165 0.0687165 0)
(-0.20297 0.045047 0)
(-0.205541 0.0207171 0)
(-0.206869 -0.00404598 0)
(-0.206925 -0.0290106 0)
(-0.205655 -0.0539284 0)
(-0.202987 -0.0785229 0)
(-0.198831 -0.102477 0)
(-0.193087 -0.125423 0)
(-0.185655 -0.146932 0)
(-0.176445 -0.166507 0)
(-0.165396 -0.18358 0)
(-0.1525 -0.197515 0)
(-0.137819 -0.207619 0)
(-0.121519 -0.21316 0)
(-0.10389 -0.213398 0)
(-0.0853721 -0.207632 0)
(-0.066573 -0.195248 0)
(-0.0482701 -0.175782 0)
(-0.0313798 -0.148985 0)
(-0.0169115 -0.114872 0)
(-0.00618997 -0.0737612 0)
(-0.00098307 -0.0263364 0)
(-0.000932505 0.0282485 0)
(-0.00579044 0.0779428 0)
(-0.0156964 0.120136 0)
(-0.0289511 0.15454 0)
(-0.0443135 0.181214 0)
(-0.0608794 0.200474 0)
(-0.0778614 0.212822 0)
(-0.0946163 0.218885 0)
(-0.110661 0.219352 0)
(-0.125659 0.214925 0)
(-0.139397 0.206285 0)
(-0.15176 0.194066 0)
(-0.162711 0.178839 0)
(-0.172265 0.16111 0)
(-0.180473 0.141313 0)
(-0.187404 0.119823 0)
(-0.193129 0.0969571 0)
(-0.197713 0.0729874 0)
(-0.201208 0.0481508 0)
(-0.203643 0.022661 0)
(-0.205019 -0.00327826 0)
(-0.205313 -0.0294608 0)
(-0.204466 -0.0556638 0)
(-0.202394 -0.0816339 0)
(-0.198982 -0.107073 0)
(-0.194098 -0.131623 0)
(-0.187596 -0.154854 0)
(-0.179333 -0.176254 0)
(-0.169184 -0.195217 0)
(-0.157071 -0.211048 0)
(-0.142986 -0.222962 0)
(-0.127028 -0.230109 0)
(-0.109436 -0.231604 0)
(-0.0906237 -0.226571 0)
(-0.0712043 -0.214212 0)
(-0.0520068 -0.193883 0)
(-0.0340448 -0.165171 0)
(-0.0184691 -0.127975 0)
(-0.00680794 -0.0825585 0)
(-0.00109339 -0.0296312 0)
(-0.00102212 0.0313158 0)
(-0.006286 0.0860491 0)
(-0.0169263 0.132104 0)
(-0.0310115 0.169207 0)
(-0.047124 0.197515 0)
(-0.0642435 0.21749 0)
(-0.081509 0.229806 0)
(-0.0982457 0.235267 0)
(-0.113976 0.234728 0)
(-0.128395 0.229036 0)
(-0.141339 0.21899 0)
(-0.152756 0.205317 0)
(-0.16267 0.188654 0)
(-0.171162 0.169549 0)
(-0.178339 0.148462 0)
(-0.184322 0.125774 0)
(-0.189228 0.101799 0)
(-0.193161 0.0767942 0)
(-0.196201 0.050975 0)
(-0.198401 0.0245276 0)
(-0.199777 -0.00237623 0)
(-0.20031 -0.029564 0)
(-0.199943 -0.0568474 0)
(-0.198577 -0.0840062 0)
(-0.196077 -0.110771 0)
(-0.192275 -0.136807 0)
(-0.18698 -0.161695 0)
(-0.179988 -0.184917 0)
(-0.171102 -0.20584 0)
(-0.160161 -0.223712 0)
(-0.147068 -0.237661 0)
(-0.131834 -0.246709 0)
(-0.114622 -0.249804 0)
(-0.0957934 -0.245868 0)
(-0.075949 -0.233875 0)
(-0.0559584 -0.212948 0)
(-0.0369363 -0.182459 0)
(-0.0201947 -0.14214 0)
(-0.00750544 -0.092166 0)
(-0.00122086 -0.0332636 0)
(-0.00112947 0.0346576 0)
(-0.00686548 0.0948037 0)
(-0.0183353 0.144893 0)
(-0.0333156 0.184678 0)
(-0.0501721 0.214449 0)
(-0.0677487 0.234866 0)
(-0.0851088 0.246824 0)
(-0.101556 0.251349 0)
(-0.116635 0.249497 0)
(-0.130094 0.242284 0)
(-0.141842 0.230641 0)
(-0.151905 0.215393 0)
(-0.160388 0.197241 0)
(-0.167445 0.176774 0)
(-0.173252 0.15447 0)
(-0.177987 0.130709 0)
(-0.181818 0.105794 0)
(-0.184887 0.0799587 0)
(-0.187309 0.053389 0)
(-0.18916 0.0262356 0)
(-0.190473 -0.00136909 0)
(-0.191239 -0.0292949 0)
(-0.191399 -0.0573972 0)
(-0.190847 -0.0854992 0)
(-0.189429 -0.113373 0)
(-0.186945 -0.140717 0)
(-0.183155 -0.167139 0)
(-0.177794 -0.192129 0)
(-0.170585 -0.215041 0)
(-0.16127 -0.235079 0)
(-0.149646 -0.251287 0)
(-0.135609 -0.262554 0)
(-0.119215 -0.267645 0)
(-0.100741 -0.265247 0)
(-0.0807468 -0.254059 0)
(-0.0601226 -0.232903 0)
(-0.0400824 -0.200865 0)
(-0.0221204 -0.157444 0)
(-0.00830114 -0.102673 0)
(-0.00137012 -0.0372799 0)
(-0.00126153 0.0383249 0)
(-0.00755892 0.104307 0)
(-0.0199813 0.158592 0)
(-0.0359327 0.20098 0)
(-0.0535092 0.231952 0)
(-0.0714 0.252434 0)
(-0.0885951 0.263612 0)
(-0.104395 0.266789 0)
(-0.118394 0.263261 0)
(-0.130424 0.254237 0)
(-0.140491 0.240796 0)
(-0.148722 0.223858 0)
(-0.15532 0.204189 0)
(-0.160523 0.182408 0)
(-0.164584 0.158999 0)
(-0.167742 0.134336 0)
(-0.170218 0.108696 0)
(-0.172196 0.0822838 0)
(-0.173822 0.0552458 0)
(-0.175196 0.02769 0)
(-0.176372 -0.000298078 0)
(-0.177349 -0.0286383 0)
(-0.178075 -0.0572383 0)
(-0.178438 -0.0859746 0)
(-0.178269 -0.114672 0)
(-0.17734 -0.143079 0)
(-0.175368 -0.170843 0)
(-0.172025 -0.197483 0)
(-0.166951 -0.222359 0)
(-0.159782 -0.244647 0)
(-0.150187 -0.263319 0)
(-0.137923 -0.277137 0)
(-0.122901 -0.28467 0)
(-0.10527 -0.284338 0)
(-0.0855062 -0.274507 0)
(-0.0644886 -0.253621 0)
(-0.043518 -0.220386 0)
(-0.0242895 -0.173968 0)
(-0.00922122 -0.114186 0)
(-0.00154794 -0.0417384 0)
(-0.00142869 0.0423874 0)
(-0.00840909 0.114692 0)
(-0.0219434 0.173314 0)
(-0.0389499 0.218136 0)
(-0.0571899 0.249921 0)
(-0.0751803 0.269958 0)
(-0.0918521 0.279816 0)
(-0.106535 0.281142 0)
(-0.118912 0.275519 0)
(-0.128937 0.264373 0)
(-0.136747 0.248932 0)
(-0.142594 0.230214 0)
(-0.146795 0.209036 0)
(-0.149686 0.186033 0)
(-0.151597 0.161684 0)
(-0.152833 0.13634 0)
(-0.153664 0.110244 0)
(-0.154313 0.0835599 0)
(-0.154958 0.0563873 0)
(-0.155721 0.0287845 0)
(-0.156675 0.00078379 0)
(-0.157833 -0.0275912 0)
(-0.159148 -0.0563075 0)
(-0.160511 -0.0853039 0)
(-0.161743 -0.114469 0)
(-0.162597 -0.143615 0)
(-0.162755 -0.17245 0)
(-0.161832 -0.200541 0)
(-0.159385 -0.227278 0)
(-0.154939 -0.251837 0)
(-0.148021 -0.27314 0)
(-0.138217 -0.289835 0)
(-0.125254 -0.300294 0)
(-0.1091 -0.302642 0)
(-0.0900865 -0.294853 0)
(-0.0690284 -0.2749 0)
(-0.0472841 -0.240982 0)
(-0.0267611 -0.191798 0)
(-0.0103032 -0.126837 0)
(-0.00176436 -0.0467141 0)
(-0.00164686 0.0469429 0)
(-0.00947774 0.126138 0)
(-0.0243282 0.189193 0)
(-0.0424737 0.236151 0)
(-0.061261 0.268187 0)
(-0.0790271 0.287101 0)
(-0.0946775 0.29496 0)
(-0.107624 0.293839 0)
(-0.117697 0.285652 0)
(-0.125021 0.272061 0)
(-0.129901 0.254443 0)
(-0.132744 0.233898 0)
(-0.133992 0.211274 0)
(-0.134085 0.187204 0)
(-0.133432 0.162142 0)
(-0.1324 0.136399 0)
(-0.1313 0.110173 0)
(-0.130391 0.0835754 0)
(-0.129874 0.0566525 0)
(-0.129894 0.029407 0)
(-0.130537 0.00181347 0)
(-0.131831 -0.0261649 0)
(-0.133741 -0.0545596 0)
(-0.136164 -0.083378 0)
(-0.138923 -0.112582 0)
(-0.141764 -0.142062 0)
(-0.144344 -0.171603 0)
(-0.146234 -0.200847 0)
(-0.14692 -0.229244 0)
(-0.145816 -0.256002 0)
(-0.142298 -0.280031 0)
(-0.13576 -0.299895 0)
(-0.125697 -0.313779 0)
(-0.11183 -0.319503 0)
(-0.0942682 -0.31459 0)
(-0.0736812 -0.296433 0)
(-0.0514258 -0.262563 0)
(-0.0296151 -0.211022 0)
(-0.0116022 -0.140789 0)
(-0.00203494 -0.0523069 0)
(-0.00194117 0.0521296 0)
(-0.0108555 0.138881 0)
(-0.0272789 0.206388 0)
(-0.0466256 0.254984 0)
(-0.0657373 0.286476 0)
(-0.0827875 0.303376 0)
(-0.0967233 0.308401 0)
(-0.107123 0.304147 0)
(-0.114042 0.2929 0)
(-0.117836 0.276563 0)
(-0.119023 0.256643 0)
(-0.118185 0.234295 0)
(-0.1159 0.210369 0)
(-0.112709 0.185467 0)
(-0.109095 0.159995 0)
(-0.105471 0.134204 0)
(-0.102184 0.108233 0)
(-0.099514 0.0821325 0)
(-0.0976775 0.0558893 0)
(-0.0968324 0.0294472 0)
(-0.097078 0.00272143 0)
(-0.0984551 -0.0243864 0)
(-0.100943 -0.0519734 0)
(-0.104454 -0.0801191 0)
(-0.108825 -0.108865 0)
(-0.113807 -0.138189 0)
(-0.119054 -0.167973 0)
(-0.124114 -0.197957 0)
(-0.128418 -0.227686 0)
(-0.131287 -0.256446 0)
(-0.13195 -0.283182 0)
(-0.12959 -0.306423 0)
(-0.123431 -0.32421 0)
(-0.112875 -0.334062 0)
(-0.0977039 -0.333011 0)
(-0.0783236 -0.31775 0)
(-0.0559841 -0.284947 0)
(-0.0329603 -0.231716 0)
(-0.0132004 -0.156253 0)
(-0.00238457 -0.0586545 0)
(-0.00235284 0.0581482 0)
(-0.0126777 0.153238 0)
(-0.0309847 0.225066 0)
(-0.0515271 0.274509 0)
(-0.070554 0.304345 0)
(-0.0861414 0.318082 0)
(-0.0973999 0.319275 0)