1.45 	0 	0 	-0.295979
2.35 	0 	0 	-0.130704
