1.45 	0 	0 	-0.00783888 	-0.00258337 	3.81269e-21
2.35 	0 	0 	0.0619479 	-0.00665079 	2.32778e-21
