1.45 	0 	0 	-0.00767564 	-0.00259218 	3.83094e-21
2.35 	0 	0 	0.0623537 	-0.00666422 	2.35281e-21
