1.45 	0 	0 	0.697352 	-0.0212168 	9.61762e-22
2.35 	0 	0 	0.853468 	-0.00579967 	-9.97446e-22
