/*--------------------------------*- C++ -*----------------------------------*\
  =========                 |
  \\      /  F ield         | OpenFOAM: The Open Source CFD Toolbox
   \\    /   O peration     | Website:  https://openfoam.org
    \\  /    A nd           | Version:  6.0
     \\/     M anipulation  |
\*---------------------------------------------------------------------------*/
FoamFile
{
    version     2.0;
    format      ascii;
    class       surfaceScalarField;
    location    "3";
    object      phi;
}
// * * * * * * * * * * * * * * * * * * * * * * * * * * * * * * * * * * * * * //

dimensions      [0 3 -1 0 0 0 0];

internalField   nonuniform List<scalar> 
3880
(
-1.82111e-05
1.82651e-05
-5.39917e-08
-5.07059e-05
3.2482e-05
1.28628e-08
-8.39704e-05
3.31037e-05
1.60733e-07
-0.000109291
2.50092e-05
3.11471e-07
-0.000121114
1.13672e-05
4.55487e-07
-0.000116226
-5.47649e-06
5.88744e-07
-9.32882e-05
-2.36432e-05
7.05243e-07
-5.25573e-05
-4.15319e-05
8.01073e-07
4.29792e-06
-5.77026e-05
8.47376e-07
-7.10132e-05
8.83233e-07
7.44278e-05
-1.72928e-05
3.55579e-05
-4.73251e-05
6.25142e-05
-7.6837e-05
6.26157e-05
-9.72912e-05
4.54634e-05
-0.000103209
1.72854e-05
-9.13547e-05
-1.73312e-05
-6.0286e-05
-5.47119e-05
-1.01282e-05
-9.16897e-05
5.75368e-05
-0.000125368
-0.000153298
0.000139822
-1.54358e-05
5.09937e-05
-4.04955e-05
8.75738e-05
-6.2464e-05
8.45842e-05
-7.32096e-05
5.6209e-05
-6.74613e-05
1.15371e-05
-4.1989e-05
-4.28035e-05
4.80933e-06
-0.00010151
7.30566e-05
-0.000159937
0.000161357
-0.000213668
-0.000258699
0.000266758
-1.2586e-05
6.35797e-05
-3.00431e-05
0.000105031
-4.05551e-05
9.50961e-05
-3.67033e-05
5.23571e-05
-1.36628e-05
-1.15033e-05
3.16402e-05
-8.81065e-05
0.000100927
-0.000170797
0.000194635
-0.000253644
0.000311663
-0.000330696
-0.000396046
0.000449009
-8.63362e-06
7.22133e-05
-1.5617e-05
0.000112014
-1.04563e-05
8.99354e-05
1.31501e-05
2.87508e-05
5.9199e-05
-5.75522e-05
0.000130276
-0.000159183
0.000227996
-0.000268517
0.000353058
-0.000378707
0.000504776
-0.000482413
-0.000571444
0.000680174
-3.40096e-06
7.56142e-05
3.33845e-06
0.000105275
2.89242e-05
6.43496e-05
7.80792e-05
-2.04042e-05
0.000153456
-0.000132929
0.000256584
-0.000262311
0.000388442
-0.000400375
0.000549675
-0.000539941
0.000740079
-0.000672816
-0.000788192
0.000956827
3.32712e-06
7.22871e-05
2.7494e-05
8.11081e-05
7.8984e-05
1.28597e-05
0.000160528
-0.000101949
0.00027288
-0.000245281
0.000415738
-0.000405169
0.00058849
-0.000573127
0.000790832
-0.000742283
0.00102273
-0.000904714
-0.00104745
0.00128199
1.17261e-05
6.0561e-05
5.73831e-05
3.54511e-05
0.000140932
-7.06894e-05
0.000262916
-0.000223932
0.000421814
-0.000404179
0.000614728
-0.000598082
0.000838118
-0.000796517
0.00108889
-0.000993053
0.00136568
-0.00118151
-0.00135156
0.0016698
2.18103e-05
3.87507e-05
9.30013e-05
-3.57399e-05
0.000214956
-0.000192644
0.000386258
-0.000395235
0.000603346
-0.000621267
0.000860627
-0.000855363
0.00115068
-0.00108657
0.00146504
-0.00130741
0.0017975
-0.00151398
-0.00171169
0.00215763
3.32725e-05
5.47822e-06
0.000133266
-0.000135733
0.000298961
-0.000358339
0.000527787
-0.000624061
0.000815672
-0.000909152
0.00115675
-0.00119644
0.0015427
-0.00147252
0.00196097
-0.00172568
0.00239331
-0.00194632
-0.00213195
0.00281357
4.53576e-05
-3.98794e-05
0.00017548
-0.000265856
0.000386778
-0.000569638
0.000675848
-0.00091313
0.00103958
-0.00127288
0.00147576
-0.00163262
0.00198418
-0.00198094
0.00256958
-0.00231109
0.00324846
-0.0026252
-0.00294933
0.00406584
5.7132e-05
-9.70115e-05
0.000216142
-0.000424865
0.00046957
-0.000823066
0.000810952
-0.00125451
0.00123427
-0.0016962
0.00173398
-0.00213233
0.00230522
-0.00255218
0.00294361
-0.00294947
0.0036414
-0.00332299
-0.00367402
0.0043661
6.81639e-05
-0.000165175
0.000253498
-0.000610199
0.000543333
-0.0011129
0.00092621
-0.00163739
0.00139072
-0.00216071
0.00192514
-0.00266675
0.00251713
-0.00314417
0.00315284
-0.00358519
0.00381373
-0.00398388
-0.00433006
0.00446977
7.84437e-05
-0.000243619
0.000287199
-0.000818955
0.000607366
-0.00143307
0.00102144
-0.00205147
0.00151194
-0.00265121
0.00206105
-0.00321586
0.00265071
-0.00373383
0.00326232
-0.00419679
0.00387571
-0.00459727
-0.00492268
0.00446833
8.80308e-05
-0.00033165
0.000317156
-0.00104808
0.000661467
-0.00177738
0.00109697
-0.00248697
0.00160024
-0.00315448
0.00214849
-0.00376411
0.00272006
-0.0043054
0.00329489
-0.00477162
0.00385462
-0.00515701
-0.00545127
0.00438321
9.68435e-05
-0.000428493
0.00034292
-0.00129416
0.000704735
-0.00213919
0.00115174
-0.00293398
0.0016552
-0.00365793
0.00218863
-0.00429754
0.00272875
-0.00484551
0.0032561
-0.00529897
0.00375549
-0.0056564
-0.00591255
0.00421678
0.000104609
-0.000533103
0.000363558
-0.00155311
0.000735432
-0.00251107
0.00118342
-0.00338197
0.0016744
-0.00414891
0.00217971
-0.00480286
0.00267611
-0.00534191
0.00314627
-0.00576913
0.00357892
-0.00608906
-0.00630297
0.00396934
0.000110912
-0.000644015
0.000377807
-0.00182
0.000751368
-0.00288463
0.0011892
-0.0038198
0.00165507
-0.00461477
0.0021197
-0.00526749
0.00256144
-0.00578365
0.00296622
-0.00617391
0.00332709
-0.00644993
-0.00662007
0.00364419
0.000115269
-0.000759284
0.000384317
-0.00208905
0.000750417
-0.00325073
0.0011667
-0.00423608
0.00159534
-0.00504341
0.00200807
-0.00568022
0.00238614
-0.00616172
0.00271948
-0.00650725
0.00300552
-0.00673598
-0.00686305
0.00324851
0.000117205
-0.000876489
0.000381878
-0.00235372
0.000730922
-0.00359977
0.00111451
-0.00461967
0.00149494
-0.00542384
0.00184646
-0.00603174
0.00215422
-0.00646948
0.0024125
-0.00676553
0.0026228
-0.00694628
-0.00703285
0.0027926
0.000116312
-0.000992801
0.000369585
-0.00260699
0.000691962
-0.00392215
0.00103252
-0.00496023
0.00135543
-0.00574676
0.00163872
-0.00631503
0.00187204
-0.0067028
0.00205398
-0.00694747
0.00218955
-0.00708185
-0.00713178
0.00228849
0.000112243
-0.00110504
0.00034685
-0.0028416
0.000633341
-0.00420864
0.000921761
-0.00524865
0.00117981
-0.00600481
0.00139023
-0.00652545
0.00154738
-0.00685995
0.00165377
-0.00705386
0.00171713
-0.00714522
-0.00716323
0.00174858
0.000104786
-0.00120983
0.000313533
-0.00305035
0.000555697
-0.00445081
0.000784432
-0.00547738
0.000972374
-0.00619275
0.00110753
-0.0066606
0.00118881
-0.00694123
0.00122199
-0.00708703
0.00121671
-0.00713994
-0.00713117
0.00118465
9.38361e-05
-0.00130367
0.000269858
-0.00322637
0.000460299
-0.00464125
0.000623473
-0.00564055
0.000738036
-0.00630731
0.00079747
-0.00672004
0.000804759
-0.00694852
0.000768149
-0.00705042
0.000698376
-0.00707016
-0.00703987
0.000607071
7.94047e-05
-0.00138307
0.000216399
-0.00336336
0.00034894
-0.00477379
0.000442314
-0.00573393
0.000481939
-0.00634694
0.000466657
-0.00670476
0.000402897
-0.00688476
0.00030053
-0.00694806
0.000170617
-0.00694025
-0.00689359
2.43381e-05
6.16284e-05
-0.0014447
0.000154058
-0.00345579
0.000223824
-0.00484355
0.000244656
-0.00575476
0.000209104
-0.00631139
0.000121049
-0.0066167
-1.03132e-05
-0.0067534
-0.000174276
-0.00678409
-0.000360133
-0.00675439
-0.00669644
-0.000557276
4.07859e-05
-0.00148548
8.40777e-05
-0.00349909
8.7551e-05
-0.00484703
3.4403e-05
-0.00570161
-7.56626e-05
-0.00620132
-0.000234187
-0.00645818
-0.000429799
-0.00655778
-0.000651577
-0.00656232
-0.000889712
-0.00651626
-0.0064518
-0.00113436
1.73246e-05
-0.00150281
8.07991e-06
-0.00348984
-5.68367e-05
-0.00478211
-0.000184254
-0.0055742
-0.000367643
-0.00601793
-0.000594514
-0.00623131
-0.000851748
-0.00630055
-0.00112855
-0.00628551
-0.00141648
-0.00622832
-0.00615971
-0.00170857
-8.09712e-06
-0.00149471
-7.18488e-05
-0.00342609
-0.000205722
-0.00464824
-0.000406667
-0.00537325
-0.000662108
-0.00576249
-0.000956287
-0.00593713
-0.00127462
-0.00598221
-0.00160627
-0.00595387
-0.00194427
-0.00589032
-0.00581285
-0.00229113
-3.45446e-05
-0.00146017
-0.000152974
-0.00330766
-0.000354438
-0.00444677
-0.000626739
-0.00510095
-0.000952755
-0.00543647
-0.0013152
-0.00557469
-0.0016993
-0.00559811
-0.00209477
-0.00555839
-0.00249804
-0.00548705
-0.0054193
-0.00289159
-6.08106e-05
-0.00139936
-0.000231871
-0.0031366
-0.00049676
-0.00418188
-0.000834817
-0.00476289
-0.00122581
-0.00504548
-0.00165327
-0.00514722
-0.0021057
-0.00514568
-0.00257577
-0.00508833
-0.00306255
-0.00500027
-0.00487939
-0.00360247
-8.58521e-05
-0.0013135
-0.000305598
-0.00291685
-0.000627114
-0.00386037
-0.00102103
-0.00436897
-0.00146289
-0.00460362
-0.00193422
-0.00467589
-0.00242193
-0.00465798
-0.00291706
-0.0045932
-0.00341354
-0.00450379
-0.00439773
-0.0038952
-0.000109064
-0.00120444
-0.000372869
-0.00265305
-0.000744296
-0.00348894
-0.00118589
-0.00392738
-0.00166936
-0.00412015
-0.00217469
-0.00417056
-0.0026884
-0.00414426
-0.0032016
-0.00408
-0.00370722
-0.00399817
-0.00390919
-0.00419576
-0.000130134
-0.00107431
-0.000433178
-0.00235001
-0.000848327
-0.00307379
-0.00133112
-0.00344459
-0.00185037
-0.0036009
-0.0023854
-0.00363553
-0.00292314
-0.00360652
-0.00345552
-0.00354762
-0.00397712
-0.00347657
-0.00340284
-0.00448347
-0.000148826
-0.00092548
-0.000486156
-0.00201268
-0.000939117
-0.00262083
-0.0014574
-0.0029263
-0.00200774
-0.00305057
-0.00256932
-0.00307394
-0.00312989
-0.00304596
-0.00368253
-0.00299498
-0.0042234
-0.0029357
-0.00287592
-0.00475032
-0.000164914
-0.000760566
-0.000531396
-0.00164619
-0.0010163
-0.00213593
-0.00156458
-0.00237802
-0.00214147
-0.00247368
-0.00272634
-0.00248907
-0.00330777
-0.00246453
-0.00387993
-0.00242282
-0.00444011
-0.00237552
-0.00232873
-0.00498731
-0.000178162
-0.000582404
-0.000568422
-0.00125593
-0.00107927
-0.00162509
-0.00165195
-0.00180533
-0.00225067
-0.00187496
-0.00285503
-0.0018847
-0.00345439
-0.00186518
-0.00404375
-0.00183346
-0.00462116
-0.00179811
-0.00176359
-0.0051863
-0.000188343
-0.000394061
-0.00059674
-0.000847538
-0.00112731
-0.00109451
-0.00171859
-0.00121406
-0.00233406
-0.0012595
-0.00295359
-0.00126518
-0.00356709
-0.00125167
-0.0041702
-0.00123036
-0.00476144
-0.00120686
-0.00118412
-0.00534092
-0.000195256
-0.000198805
-0.000615904
-0.000426891
-0.00115978
-0.000550635
-0.00176361
-0.000610227
-0.00239044
-0.000632669
-0.00302033
-0.000635283
-0.0036436
-0.000628401
-0.00425625
-0.000617707
-0.00485711
-0.000605991
-0.00059471
-0.00544652
-0.000198753
-5.16153e-08
-0.000625577
-6.66473e-08
-0.00117615
-6.03323e-08
-0.00178631
-7.28024e-08
-0.00241888
-9.79407e-08
-0.00305403
-1.26836e-07
-0.00368228
-1.54442e-07
-0.00429981
-1.78155e-07
-0.0049056
-2.00022e-07
-2.22817e-07
-0.00550009
-0.000198755
0.000198703
-0.000625582
0.000426761
-0.00117616
0.000550518
-0.00178632
0.000610086
-0.00241889
0.000632477
-0.00305405
0.000635032
-0.0036823
0.000628094
-0.00429983
0.000617352
-0.00490562
0.000605592
0.000594265
-0.00550011
-0.000195261
0.000393964
-0.000615918
0.000847418
-0.00115981
0.00109441
-0.00176365
0.00121393
-0.00239048
0.00125931
-0.00302039
0.00126493
-0.00364366
0.00125137
-0.00425631
0.00123
-0.00485718
0.00120646
0.00118367
-0.00544659
-0.000188351
0.000582316
-0.000596764
0.00125583
-0.00112736
0.001625
-0.00171865
0.00180522
-0.00233414
0.0018748
-0.00295368
0.00188448
-0.0035672
0.00186489
-0.00417031
0.00183312
-0.00476156
0.00179771
0.00176315
-0.00534103
-0.000178173
0.000760489
-0.000568454
0.00164611
-0.00107932
0.00213587
-0.00165204
0.00237794
-0.00225078
0.00247354
-0.00285517
0.00248887
-0.00345454
0.00246426
-0.00404391
0.00242249
-0.00462133
0.00237513
0.00232829
-0.00518646
-0.000164926
0.000925415
-0.000531434
0.00201262
-0.00101637
0.0026208
-0.00156469
0.00292625
-0.00214161
0.00305046
-0.00272651
0.00307377
-0.00330796
0.00304571
-0.00388014
0.00299466
-0.00444033
0.00293532
0.00287548
-0.00498752
-0.00014884
0.00107425
-0.000486199
0.00234998
-0.000939197
0.0030738
-0.00145752
0.00344458
-0.0020079
0.00360083
-0.00256952
0.00363539
-0.00313011
0.0036063
-0.00368278
0.00354733
-0.00422366
0.00347621
0.0034024
-0.00475058
-0.000130147
0.0012044
-0.000433221
0.00265305
-0.000848411
0.00348899
-0.00133125
0.00392742
-0.00185055
0.00412013
-0.00238562
0.00417046
-0.00292339
0.00414408
-0.00345581
0.00407974
-0.00397742
0.00399782
0.00390875
-0.00448378
-0.000109076
0.00131348
-0.000372908
0.00291688
-0.000744377
0.00386046
-0.00118602
0.00436906
-0.00166954
0.00460365
-0.00217492
0.00467584
-0.00268868
0.00465784
-0.00320191
0.00459297
-0.00370755
0.00450346
0.0043973
-0.0041961
-8.58601e-05
0.00139934
-0.000305629
0.00313665
-0.000627184
0.00418202
-0.00102115
0.00476302
-0.00146306
0.00504556
-0.00193445
0.00514723
-0.0024222
0.0051456
-0.00291738
0.00508815
-0.00341388
0.00499996
0.004879
-0.00389557
-6.08136e-05
0.00146015
-0.00023189
0.00330773
-0.000496812
0.00444694
-0.000834914
0.00510113
-0.00122596
0.00543661
-0.00165347
0.00557474
-0.00210595
0.00559807
-0.00257606
0.00555826
-0.00306288
0.00548678
0.00541902
-0.0036029
-3.45415e-05
0.00149469
-0.000152977
0.00342617
-0.000354464
0.00464842
-0.000626801
0.00537346
-0.000952865
0.00576267
-0.00131536
0.00593724
-0.00169952
0.00598223
-0.00209504
0.00595379
-0.00249833
0.00589006
0.00581253
-0.00289184
-8.08761e-06
0.00150278
-7.18335e-05
0.00348991
-0.000205715
0.00478231
-0.000406683
0.00557443
-0.000662161
0.00601815
-0.000956383
0.00623146
-0.00127477
0.00630062
-0.00160647
0.00628548
-0.00194455
0.00622814
0.00615943
-0.00229144
1.734e-05
0.00148544
8.11467e-06
0.00349914
-5.67923e-05
0.00484721
-0.000184215
0.00570186
-0.000367624
0.00620155
-0.000594525
0.00645836
-0.000851797
0.00655789
-0.00112864
0.00656233
-0.00141663
0.00651613
0.00645156
-0.00170877
4.08059e-05
0.00144463
8.41311e-05
0.00345581
8.76346e-05
0.00484371
3.45036e-05
0.00575499
-7.55604e-05
0.00631162
-0.000234097
0.0066169
-0.000429732
0.00675352
-0.000651541
0.00678414
-0.000889721
0.00675431
0.00669625
-0.00113441
6.16517e-05
0.00138298
0.000154128
0.00336334
0.000223945
0.00477389
0.000244819
0.00573411
0.000209294
0.00634714
0.00012125
0.00670494
-1.01156e-05
0.00688489
-0.000174094
0.00694812
-0.000359981
0.0069402
0.00689343
-0.000557159
7.943e-05
0.00130355
0.000216482
0.00322628
0.000349096
0.00464128
0.000442539
0.00564067
0.000482218
0.00630746
0.000466975
0.00672019
0.000403235
0.00694863
0.000300873
0.00705048
0.000170947
0.00707012
0.00703973
2.46451e-05
9.38618e-05
0.00120969
0.000269951
0.00305019
0.000460484
0.00445075
0.000623753
0.0054774
0.000738401
0.00619282
0.000797904
0.00666068
0.000805242
0.00694129
0.000768663
0.00708706
0.000698898
0.00713989
0.00713104
0.000607586
0.00010481
0.00110488
0.00031363
0.00284138
0.000555901
0.00420847
0.000784757
0.00524854
0.000972816
0.00600476
0.00110808
0.00652542
0.00118944
0.00685993
0.00122268
0.00705382
0.00121743
0.00714513
0.00716309
0.00118539
0.000112264
0.000992617
0.000346945
0.00260669
0.000633555
0.00392186
0.000922117
0.00495998
0.00118032
0.00574656
0.00139087
0.00631486
0.00154814
0.00670266
0.00165463
0.00694734
0.00171806
0.0070817
0.0071316
0.00174955
0.000116329
0.000876288
0.000369672
0.00235335
0.000692175
0.00359936
0.00103289
0.00461927
0.00135597
0.00542347
0.00163943
0.0060314
0.00187291
0.00646918
0.002055
0.00676525
0.00219068
0.00694602
0.00703258
0.0022897
0.000117216
0.000759072
0.000381952
0.00208861
0.00073112
0.00325019
0.00111488
0.00423551
0.0014955
0.00504284
0.00184723
0.00567968
0.00215519
0.00616122
0.00241365
0.00650679
0.00262411
0.00673556
0.00686266
0.00279403
0.000115273
0.000643799
0.000384373
0.00181951
0.000750589
0.00288398
0.00116704
0.00381906
0.00159588
0.004614
0.00200885
0.00526672
0.00238715
0.00578291
0.00272072
0.00617322
0.00300698
0.00644931
0.0066195
0.00325014
0.000110908
0.000532891
0.000377841
0.00155258
0.000751503
0.00251031
0.0011895
0.00338107
0.00165557
0.00414792
0.00212045
0.00480184
0.00256246
0.00534091
0.00296751
0.00576817
0.00332864
0.00608817
0.00630217
0.00364596
0.000104598
0.000428294
0.000363569
0.00129361
0.000735525
0.00213836
0.00118366
0.00293294
0.00167484
0.00365674
0.0021804
0.00429628
0.00267708
0.00484422
0.00314754
0.00529771
0.0035805
0.00565521
0.00591147
0.00397121
9.68259e-05
0.000331468
0.000342909
0.00104753
0.000704785
0.00177648
0.00115192
0.00248581
0.00165555
0.00315311
0.00218923
0.0037626
0.00272963
0.00430382
0.00325731
0.00477003
0.00375705
0.00515548
0.00544985
0.00421866
8.80089e-05
0.000243459
0.000317126
0.000818411
0.000661475
0.00143213
0.00109707
0.00205021
0.0016005
0.00264968
0.00214897
0.00321414
0.00272082
0.00373197
0.00329598
0.00419487
0.00385608
0.00459538
0.0049209
0.00438503
7.84192e-05
0.00016504
0.000287155
0.000609675
0.000607336
0.00111195
0.00102148
0.00163606
0.00151209
0.00215906
0.0020614
0.00266483
0.00265132
0.00314205
0.00326324
0.00358294
0.00387701
0.00398161
0.00432788
0.00447002
6.8138e-05
9.69016e-05
0.000253441
0.000424372
0.000543269
0.000822126
0.000926176
0.00125316
0.00139077
0.00169447
0.00192533
0.00213027
0.00251754
0.00254984
0.00315356
0.00294693
0.0038148
0.00332037
0.00367145
0.00447124
5.71051e-05
3.97964e-05
0.000216074
0.000265403
0.000469473
0.000568728
0.00081085
0.00091178
0.0012342
0.00127112
0.001734
0.00163046
0.00230541
0.00197844
0.00294403
0.0023083
0.00364214
0.00262226
0.00294637
0.00436722
4.53297e-05
-5.5333e-06
0.000175403
0.00013533
0.000386649
0.000357482
0.000675676
0.000622753
0.00103939
0.000907408
0.00147557
0.00119428
0.00198405
0.00146996
0.00256957
0.00172278
0.00324865
0.00194318
0.00212861
0.00406641
3.3244e-05
-3.87773e-05
0.00013318
3.53935e-05
0.000298804
0.000191857
0.000527553
0.000394005
0.00081536
0.000619601
0.00115636
0.000853276
0.00154223
0.00108409
0.00196043
0.00130459
0.00239266
0.00151095
0.00170852
0.00281275
2.17821e-05
-6.05594e-05
9.29122e-05
-3.57366e-05
0.000214784
6.99857e-05
0.000385987
0.000222802
0.000602959
0.000402628
0.000860109
0.000596126
0.00115001
0.000794184
0.00146421
0.000990394
0.00179651
0.00117865
0.00134856
0.00215647
1.16993e-05
-7.22587e-05
5.72959e-05
-8.13332e-05
0.00014076
-1.34779e-05
0.000262636
0.000100926
0.000421404
0.00024386
0.000614165
0.000403364
0.000837381
0.000570968
0.00108796
0.000739818
0.00136455
0.000902057
0.00104465
0.00166846
3.30268e-06
-7.55614e-05
2.74133e-05
-0.000105444
7.88223e-05
-6.48869e-05
0.000160262
1.94861e-05
0.000272486
0.000131636
0.000415192
0.000260658
0.000587769
0.000398391
0.000789917
0.00053767
0.00102161
0.000670368
0.000785608
0.00128065
-3.4223e-06
-7.21391e-05
3.26759e-06
-0.000112134
2.87818e-05
-9.0401e-05
7.78433e-05
-2.95754e-05
0.000153105
5.6375e-05
0.000256094
0.000157669
0.000387791
0.000266693
0.000548843
0.000376618
0.000739046
0.000480164
0.000569072
0.000955582
-8.65152e-06
-6.34875e-05
-1.56758e-05
-0.000105109
-1.05738e-05
-9.5503e-05
1.29548e-05
-5.3104e-05
5.8906e-05
1.04238e-05
0.000129864
8.67107e-05
0.000227444
0.000169113
0.000352345
0.000251717
0.000503882
0.000328628
0.00039387
0.000679084
-1.25994e-05
-5.08882e-05
-3.00866e-05
-8.76221e-05
-4.06429e-05
-8.49467e-05
-3.68512e-05
-5.68958e-05
-1.38884e-05
-1.2539e-05
3.13188e-05
4.15036e-05
0.000100491
9.99409e-05
0.000194064
0.000158144
0.000310939
0.000211753
0.000256691
0.000448118
-1.54417e-05
-3.54465e-05
-4.05191e-05
-6.25447e-05
-6.25165e-05
-6.29492e-05
-7.33031e-05
-4.61092e-05
-6.76099e-05
-1.82322e-05
-4.2208e-05
1.61016e-05
4.50322e-06
5.32297e-05
7.26479e-05
8.99995e-05
0.000160831
0.00012357
0.000151417
0.000266105
-1.72923e-05
-1.81542e-05
-4.73296e-05
-3.25074e-05
-7.68518e-05
-3.34271e-05
-9.73255e-05
-2.56355e-05
-0.000103274
-1.22839e-05
-9.14608e-05
4.28852e-06
-6.04467e-05
2.22157e-05
-1.03552e-05
3.9908e-05
5.72341e-05
5.59803e-05
6.92141e-05
0.000139437
-1.82082e-05
-5.07027e-05
-8.39691e-05
-0.000109293
-0.000121122
-0.000116244
-9.33234e-05
-5.26144e-05
4.21331e-06
7.43107e-05
0.00199995
-0.00194195
1.64288e-05
0.00421385
-0.00222169
7.79518e-06
0.00581544
-0.00160507
3.47762e-06
0.00662665
-0.000812095
8.85358e-07
0.00701498
-0.000386151
-2.18161e-06
0.00716073
-0.000142423
-3.32616e-06
0.00719219
-3.1299e-05
-1.59762e-07
0.00716657
2.94794e-05
-3.86316e-06
0.00711639
5.29406e-05
-2.75876e-06
6.75367e-05
-1.38085e-06
0.00208927
-0.0038914
0.0042342
-0.00436662
0.00580559
-0.00317645
0.0066076
-0.00161411
0.00699465
-0.000773199
0.00714289
-0.000290664
0.00717828
-6.66857e-05
0.00715717
5.0592e-05
0.00711169
9.84205e-05
0.000128899
0.00225798
-0.00588262
0.00427185
-0.0063805
0.00578463
-0.00468923
0.00656909
-0.00239857
0.00695393
-0.00115804
0.00710727
-0.000443998
0.00715053
-0.000109948
0.00713841
6.27061e-05
0.00710232
0.000134515
0.000180704
0.00248815
-0.00792176
0.00432127
-0.00821362
0.00575042
-0.00611837
0.00651049
-0.00315864
0.0068928
-0.00154035
0.00705399
-0.000605191
0.00710909
-0.000165044
0.00711042
6.13673e-05
0.00708834
0.000156597
0.000218247
0.00275579
-0.00999738
0.00437449
-0.00983232
0.00569987
-0.00744376
0.00643084
-0.00388961
0.00681116
-0.00192067
0.00698323
-0.000777265
0.00705416
-0.000235967
0.00707335
4.21702e-05
0.00706984
0.000160111
0.000236909
0.00303407
-0.0120746
0.00442193
-0.0112202
0.00562943
-0.00865126
0.00632908
-0.00458926
0.00670899
-0.00230057
0.00689525
-0.000963535
0.00698602
-0.000326733
0.00702741
7.80591e-07
0.00704691
0.000140608
0.00023218
0.00329461
-0.0140872
0.00445246
-0.012378
0.00553517
-0.00973397
0.00620413
-0.00525822
0.0065863
-0.00268275
0.00679039
-0.00116762
0.00690503
-0.000441374
0.00697285
-6.70438e-05
0.0070197
9.37644e-05
0.000199694
0.00350918
-0.0159266
0.00445331
-0.0133222
0.005413
-0.0106937
0.00605496
-0.00590018
0.00644325
-0.00307104
0.00666907
-0.00139344
0.00681161
-0.000583918
0.00691
-0.000165429
0.00698835
1.54112e-05
0.000135249
0.00367079
-0.0174398
0.00441643
-0.0140678
0.00526038
-0.0115376
0.00588089
-0.00652069
0.0062801
-0.00347025
0.00653183
-0.00164516
0.00670627
-0.000758364
0.0068392
-0.000298357
0.00695305
-9.84423e-05
3.4836e-05
0.00379246
-0.0184187
0.0043538
-0.0146291
0.00507839
-0.0122622
0.0056825
-0.00712479
0.00609703
-0.00388478
0.00637923
-0.00192737
0.00658953
-0.000968666
0.00676086
-0.000469684
0.00691398
-0.000251557
-0.000105372
0.0451697
-0.010865
-0.0527235
0.0426092
-0.0120686
0.0411129
-0.010766
0.041392
-0.00740384
0.0418426
-0.00433542
0.0422537
-0.00233846
0.0425224
-0.00123731
0.0426892
-0.000636572
0.0427918
-0.000354073
-0.000155991
0.0501352
-0.0043903
-0.0566098
0.0469118
-0.00884523
0.0441781
-0.00803226
0.0429156
-0.00614129
0.0425823
-0.00400211
0.042596
-0.00235216
0.0426849
-0.00132621
0.0427692
-0.000720911
0.0428341
-0.000418966
-0.000190901
0.0503653
-0.000537098
-0.0542186
0.047304
-0.00578392
0.0450411
-0.0057693
0.0436481
-0.00474826
0.043053
-0.00340704
0.0428663
-0.00216552
0.0428342
-0.00129402
0.0428505
-0.000737286
0.0428776
-0.000446012
-0.000208784
0.0490967
0.00125831
-0.0508922
0.0468693
-0.00355646
0.0451709
-0.00407092
0.0439875
-0.00356485
0.0433505
-0.00277001
0.0430709
-0.00188597
0.0429622
-0.00118532
0.0429268
-0.000701899
0.0429201
-0.000439273
-0.000210326
0.0478204
0.0018613
-0.0484234
0.0463023
-0.00203835
0.0450667
-0.00283534
0.0441338
-0.002632
0.0435397
-0.00217583
0.0432229
-0.00156927
0.0430672
-0.00102953
0.0429941
-0.000628882
0.0429595
-0.000404629
-0.000197395
0.0467867
0.00184654
-0.0467719
0.0458289
-0.00108057
0.0449241
-0.0019305
0.0441914
-0.00189928
0.0436613
-0.00164581
0.0433352
-0.00124313
0.0431507
-0.000845034
0.0430509
-0.000529054
0.0429942
-0.000347922
-0.000172314
0.046027
0.00152698
-0.0457074
0.0454638
-0.000517324
0.0447955
-0.00126224
0.0442078
-0.00131153
0.0437387
-0.00117677
0.0434163
-0.000920663
0.0432148
-0.000643572
0.0430963
-0.000410606
0.0430229
-0.000274519
-0.00013756
0.0455022
0.00106583
-0.045041
0.0452015
-0.000216682
0.0446955
-0.000756189
0.0442063
-0.000822399
0.0437859
-0.000756385
0.043472
-0.000606685
0.0432611
-0.000432729
0.0431303
-0.000279828
0.0430451
-0.000189229
-9.56295e-05
0.0451736
0.000543422
-0.0446512
0.0450308
-7.38444e-05
0.0446271
-0.000352488
0.0441995
-0.000394833
0.0438125
-0.000369355
0.0435067
-0.000300939
0.0432912
-0.000217224
0.043153
-0.00014162
0.0430601
-9.63558e-05
-4.89835e-05
0.0450146
-0.0444712
0.0449408
0.0445883
0.0441935
0.0438241
0.0435232
0.0433059
0.0431643
0.043068
0.0572661
0.0020288
-0.0565023
0.057891
0.00262362
0.058333
0.00320223
0.058546
0.00375626
0.0584856
0.00427716
0.0581121
0.00475673
0.0573926
0.00518784
0.0562975
0.0055649
0.0547788
0.00588482
0.00612115
0.0513252
0.00144717
-0.0507435
0.051953
0.0019958
0.0526149
0.00254032
0.0532953
0.00307589
0.0539753
0.00359712
0.0546339
0.00409818
0.0552486
0.00457305
0.0557977
0.0050159
0.0562609
0.00542156
0.00577224
0.047727
0.00102414
-0.047304
0.0482267
0.00149606
0.0488005
0.00196661
0.0494435
0.00243285
0.050149
0.00289158
0.0509079
0.00333935
0.0517085
0.00377241
0.0525377
0.00418674
0.0533813
0.00457793
0.00493498
0.0450926
0.000743557
-0.044812
0.045449
0.00113966
0.0458816
0.00153401
0.0463902
0.0019243
0.0469736
0.00230815
0.0476298
0.00268312
0.0483555
0.0030467
0.049146
0.00339629
0.049995
0.00372895
0.00403779
0.0435063
0.000542161
-0.0433049
0.0437788
0.000867141
0.0441225
0.00119036
0.0445369
0.00150992
0.0450211
0.00182387
0.045574
0.00213027
0.0461935
0.00242714
0.0468773
0.00271249
0.0476222
0.00298405
0.00323664
0.0424509
0.000390561
-0.0422993
0.0426705
0.000647528
0.042958
0.0009029
0.0433127
0.00115514
0.0437339
0.0014027
0.0442201
0.00164404
0.0447697
0.00187762
0.0453802
0.0021019
0.0460492
0.00231513
0.00251387
0.0417918
0.000270487
-0.0416717
0.0419776
0.000461737
0.0422288
0.000651726
0.0425446
0.000839305
0.042924
0.00102331
0.0433654
0.00120258
0.0438671
0.00137597
0.0444267
0.00154233
0.0450414
0.00170038
0.00184785
0.0413729
0.000170269
-0.0412727
0.0415375
0.000297136
0.0417661
0.000423153
0.0420578
0.00054755
0.0424116
0.000669553
0.0428258
0.000788396
0.0432984
0.000903316
0.0438272
0.00101355
0.0444093
0.00111828
0.00121614
0.0411296
8.20512e-05
-0.0410414
0.0412814
0.00014533
0.0414963
0.000208196
0.0417736
0.000270265
0.042112
0.00033115
0.04251
0.000390467
0.0429654
0.000447837
0.0434761
0.000502881
0.0440392
0.00055519
0.000604133
0.0410158
-0.0409337
0.0411611
0.0413693
0.0416395
0.0419707
0.0423612
0.042809
0.0433119
0.0438671
0.0484087
-0.00345585
-0.0478445
0.049131
-0.00301341
0.0499625
-0.00254009
0.050863
-0.0020349
0.0518058
-0.00150007
0.0527733
-0.000943149
0.0537486
-0.000368217
0.0547119
0.000221329
0.0556394
0.000821069
0.00142563
0.0480934
-0.00350534
-0.0480439
0.0481833
-0.00310326
0.0483132
-0.00267003
0.0484893
-0.00221093
0.0487172
-0.00172797
0.049001
-0.00122701
0.0493443
-0.000711538
0.0497494
-0.000183759
0.0502166
0.000353927
0.000898655
0.0468625
-0.00323285
-0.047135
0.0466419
-0.00288269
0.0464789
-0.00250704
0.0463788
-0.00211078
0.0463472
-0.00169644
0.0463876
-0.00126732
0.0465018
-0.00082577
0.0466918
-0.000373713
0.0469589
8.68063e-05
0.000553553
0.0454806
-0.00284282
-0.0458706
0.0451456
-0.00254774
0.0448696
-0.00223099
0.0446559
-0.00189711
0.0445077
-0.00154819
0.0444269
-0.00118658
0.0444154
-0.00081423
0.0444747
-0.000433032
0.0446064
-4.49468e-05
0.000347964
0.0445265
-0.00240726
-0.044962
0.0441425
-0.00216382
0.0438148
-0.00190331
0.0435465
-0.00162877
0.0433402
-0.0013419
0.0431981
-0.00104448
0.0431221
-0.00073818
0.0431137
-0.000424636
0.0431743
-0.000105549
0.000217322
0.0438524
-0.00194535
-0.0443143
0.0434408
-0.00175223
0.0430834
-0.00154589
0.0427831
-0.00132852
0.0425426
-0.00110136
0.0423639
-0.000865789
0.0422488
-0.000623144
0.042199
-0.000374773
0.0422155
-0.000122069
0.000133534
0.043424
-0.00146909
-0.0439002
0.0429969
-0.00132511
0.0426225
-0.00117151
0.0423036
-0.00100969
0.0420429
-0.000840575
0.0418422
-0.000665153
0.0417035
-0.000484429
0.0416282
-0.000299432
0.0416173
-0.000111217
7.91286e-05
0.0431526
-0.000983414
-0.0436382
0.0427154
-0.000887939
0.04233
-0.000786132
0.0419992
-0.000678866
0.0417253
-0.000566744
0.0415106
-0.000450415
0.0413567
-0.000330546
0.0412651
-0.000207824
0.0412369
-8.296e-05
4.33199e-05
0.0429969
-0.000492554
-0.0434878
0.042554
-0.000445054
0.0421623
-0.000394411
0.0418245
-0.000341037
0.041543
-0.000285228
0.0413199
-0.000227303
0.0411569
-0.000167595
0.0410555
-0.000106447
0.0410168
-4.42118e-05
1.87451e-05
0.0429262
-0.0434188
0.0424812
0.0420868
0.0417457
0.0414605
0.0412332
0.0410656
0.0409592
0.040915
0.0429497
0.000168976
-0.000189707
0.0429999
0.000504653
-0.0005549
0.0430847
0.000844472
-0.000929271
0.0432222
0.00119608
-0.00133359
0.0434432
0.00156467
-0.00178565
0.0437922
0.00195415
-0.00230319
0.0443296
0.00236619
-0.00290353
0.0451289
0.00280306
-0.00360244
0.0462885
0.00323914
-0.00439868
0.00376907
-0.00532504
0.0429666
0.000131296
0.0430769
0.000394397
0.043263
0.000658297
0.0435356
0.000923528
0.0439096
0.00119068
0.0444041
0.00145966
0.0450412
0.00172911
0.0458454
0.00199883
0.0468319
0.00225265
0.00255701
0.0429665
9.37523e-05
0.0430777
0.000283144
0.0432625
0.000473473
0.0435248
0.000661276
0.04387
0.000845485
0.0443051
0.00102454
0.0448381
0.0011961
0.0454788
0.0013582
0.0462305
0.0015009
0.00165255
0.042958
6.46524e-05
0.0430452
0.000195962
0.0431906
0.000328067
0.0433948
0.000457086
0.0436586
0.000581718
0.0439826
0.000700488
0.0443671
0.000811668
0.0448114
0.000913891
0.04531
0.00100232
0.00109189
0.0429497
4.38778e-05
0.0430125
0.000133158
0.0431177
0.000222892
0.0432648
0.00031002
0.043453
0.000393443
0.0436815
0.000472013
0.0439487
0.000544514
0.0442526
0.000609955
0.0445892
0.000665746
0.000719038
0.0429435
2.9282e-05
0.0429878
8.88986e-05
0.0430619
0.000148752
0.0431653
0.000206695
0.0432967
0.000261949
0.043455
0.000313724
0.0436383
0.000361247
0.0438443
0.000403908
0.0440697
0.0004404
0.000474465
0.0429393
1.89199e-05
0.0429707
5.7446e-05
0.0430234
9.60867e-05
0.0430967
0.000133438
0.0431896
0.00016899
0.0433011
0.000202236
0.0434297
0.000232692
0.0435736
0.000259981
0.0437306
0.000283401
0.00030483
0.0429366
1.12951e-05
0.0429597
3.42897e-05
0.0429985
5.73337e-05
0.0430523
7.95976e-05
0.0431205
0.000100782
0.0432022
0.000120589
0.0432961
0.000138745
0.043401
0.000155039
0.0435153
0.000169119
0.000181931
0.0429349
5.27698e-06
0.0429532
1.60217e-05
0.0429838
2.67784e-05
0.0430262
3.71694e-05
0.0430799
4.70577e-05
0.0431442
5.63065e-05
0.0432182
6.47908e-05
0.0433008