1.45 	0 	0 	-0.00809372 	-0.00257109 	3.78622e-21
2.35 	0 	0 	0.0613875 	-0.0066332 	2.29081e-21
