/*--------------------------------*- C++ -*----------------------------------*\
  =========                 |
  \\      /  F ield         | OpenFOAM: The Open Source CFD Toolbox
   \\    /   O peration     | Website:  https://openfoam.org
    \\  /    A nd           | Version:  6.0
     \\/     M anipulation  |
\*---------------------------------------------------------------------------*/
FoamFile
{
    version     2.0;
    format      ascii;
    class       volScalarField;
    location    "1.5";
    object      p;
}
// * * * * * * * * * * * * * * * * * * * * * * * * * * * * * * * * * * * * * //

dimensions      [1 -1 -2 0 0 0 0];

internalField   nonuniform List<scalar> 
3000
(
0.669647
0.550645
0.525978
0.529262
0.548394
0.620907
0.898318
1.6882
4.97299
4.98366
0.669626
0.55062
0.525869
0.529137
0.548227
0.620804
0.896359
1.67415
4.94557
4.97145
0.669527
0.550589
0.525613
0.52882
0.547679
0.619439
0.892648
1.66758
4.92242
4.94153
0.669377
0.55053
0.525193
0.52831
0.546852
0.617728
0.887662
1.65488
4.89539
4.89579
0.669134
0.550456
0.524538
0.527503
0.545485
0.614563
0.88022
1.63142
4.82973
4.82594
0.668794
0.550347
0.523609
0.526376
0.543668
0.610765
0.869684
1.5993
4.71888
4.72204
0.668316
0.55015
0.522282
0.524822
0.541297
0.605938
0.855403
1.55971
4.5632
4.57637
0.667597
0.549678
0.520546
0.52287
0.538444
0.599933
0.83738
1.513
4.34586
4.37066
0.666618
0.54897
0.518263
0.520328
0.534789
0.592358
0.813343
1.44702
4.04829
4.0825
0.665362
0.548085
0.515366
0.517091
0.530065
0.582324
0.779305
1.35075
3.6141
3.63974
1.07188
1.07302
1.0812
1.11621
1.21745
1.47675
2.14373
4.24329
12.3622
11.8417
1.07185
1.07294
1.08102
1.11581
1.2166
1.47463
2.13859
4.22818
12.3068
11.9541
1.07174
1.07276
1.08063
1.11503
1.21498
1.47118
2.13008
4.19535
12.216
11.8609
1.07157
1.07246
1.08001
1.11378
1.21242
1.46565
2.11693
4.14854
12.0554
11.6502
1.07129
1.07199
1.07907
1.11191
1.20867
1.45785
2.09771
4.08447
11.8089
11.3601
1.07089
1.07131
1.0777
1.10927
1.20346
1.44676
2.0709
3.99683
11.4593
10.9886
1.07023
1.07028
1.07583
1.10578
1.19657
1.43183
2.0346
3.87789
10.9963
10.5168
1.06864
1.06838
1.07338
1.10159
1.18801
1.4127
1.98685
3.71891
10.3869
9.92554
1.06639
1.06577
1.07017
1.09626
1.17707
1.38774
1.92383
3.51778
9.6035
9.18307
1.06361
1.06256
1.06621
1.08967
1.16341
1.35582
1.84056
3.2494
8.55562
8.19418
1.0916
1.17959
1.22011
1.30186
1.47475
1.86431
2.83552
5.83738
17.3287
16.6541
1.09159
1.17951
1.21991
1.3014
1.47372
1.86196
2.8297
5.818
17.2777
16.6049
1.09156
1.17931
1.21949
1.30049
1.47169
1.85728
2.81763
5.77475
17.1478
16.4099
1.09153
1.17897
1.2188
1.29902
1.46844
1.84982
2.79846
5.70697
16.881
16.0224
1.09147
1.17839
1.21774
1.29687
1.46379
1.83913
2.77093
5.61129
16.4839
15.5233
1.09137
1.17744
1.2162
1.2939
1.45741
1.82442
2.7329
5.48099
15.9504
14.9262
1.09117
1.1759
1.21468
1.29025
1.44897
1.8046
2.68155
5.30821
15.2667
14.2015
1.0906
1.17346
1.2134
1.28594
1.43818
1.77868
2.61408
5.08479
14.3965
13.342
1.08976
1.17021
1.21194
1.2806
1.42453
1.74552
2.52763
4.80611
13.3093
12.3077
1.0887
1.16631
1.21027
1.27413
1.40773
1.70428
2.41843
4.45222
11.9031
11.0192
1.04944
1.14864
1.19922
1.30041
1.51251
1.98345
3.14742
6.7567
20.4904
19.5107
1.04944
1.14857
1.19906
1.3
1.51151
1.98106
3.14124
6.73569
20.441
19.3875
1.04944
1.14838
1.19884
1.29918
1.5094
1.9759
3.12762
6.68832
20.2836
19.0706
1.04943
1.14803
1.19849
1.29788
1.50602
1.96762
3.10553
6.60877
19.9479
18.541
1.04942
1.14744
1.19796
1.296
1.50119
1.95573
3.07356
6.493
19.4487
17.8878
1.04941
1.14643
1.19727
1.29348
1.49466
1.93952
3.02964
6.33611
18.7989
17.1323
1.04935
1.1448
1.19682
1.29053
1.48622
1.91793
2.97096
6.13142
17.9821
16.2427
1.04918
1.14238
1.19682
1.2872
1.47558
1.88994
2.89465
5.87156
16.9634
15.2175
1.04893
1.13921
1.19708
1.2832
1.46223
1.85444
2.79809
5.55036
15.7117
14.0154
1.04862
1.13548
1.19751
1.27836
1.44584
1.81071
2.67846
5.15225
14.121
12.595
1.01915
1.09723
1.15376
1.26509
1.49526
2.00247
3.25638
7.17351
22.042
20.8235
1.01914
1.09716
1.15372
1.26476
1.49429
2.00001
3.25002
7.15217
21.9922
20.6753
1.01911
1.09699
1.15375
1.26413
1.49225
1.99466
3.23594
7.10317
21.8201
20.2884
1.01905
1.09667
1.15382
1.26314
1.489
1.98611
3.2128
7.01808
21.4501
19.6737
1.01894
1.09612
1.15395
1.26176
1.48438
1.9739
3.17891
6.89245
20.903
18.934
1.01877
1.09518
1.15429
1.26003
1.47822
1.95732
3.13261
6.72318
20.2004
18.0958
1.01849
1.09371
1.15506
1.25803
1.47028
1.93543
3.07124
6.50385
19.3256
17.1198
1.01811
1.09163
1.15646
1.25577
1.46023
1.90717
2.99198
6.22736
18.2422
16.0148
1.01761
1.08896
1.15848
1.25312
1.44763
1.87138
2.89201
5.88716
16.9173
14.7239
1.01704
1.08587
1.16102
1.24988
1.43212
1.8273
2.76884
5.4705
15.2486
13.254
1.01915
1.0972
1.15373
1.26509
1.49531
2.00264
3.25689
7.17504
22.0407
20.8249
1.01913
1.09714
1.15369
1.26475
1.49433
2.00014
3.25046
7.15344
21.9908
20.6768
1.0191
1.09697
1.15372
1.26411
1.49226
1.99475
3.23622
7.10401
21.819
20.2897
1.01904
1.09665
1.15379
1.26312
1.48899
1.98613
3.21291
7.01843
21.4494
19.6749
1.01894
1.0961
1.15392
1.26174
1.48436
1.97389
3.17892
6.89252
20.9025
18.9349
1.01876
1.09516
1.15427
1.26001
1.4782
1.95731
3.13262
6.72323
20.2001
18.0965
1.01849
1.09369
1.15505
1.25801
1.47026
1.93543
3.07127
6.50396
19.3255
17.1202
1.0181
1.09162
1.15644
1.25576
1.46022
1.90717
2.99201
6.22749
18.2422
16.0149
1.01761
1.08895
1.15847
1.25311
1.44762
1.87138
2.89203
5.88726
16.9175
14.7238
1.01704
1.08586
1.16101
1.24987
1.43211
1.8273
2.76884
5.47056
15.2491
13.254
1.04943
1.14855
1.19914
1.30037
1.51257
1.98379
3.14862
6.76114
20.4876
19.5134
1.04942
1.14848
1.19897
1.29996
1.51157
1.98137
3.14237
6.73967
20.4387
19.3903
1.04942
1.14829
1.19876
1.29913
1.50942
1.97608
3.1283
6.69069
20.2822
19.0726
1.04942
1.14796
1.19841
1.29781
1.50599
1.96765
3.10574
6.60934
19.9475
18.5432
1.04941
1.14737
1.19789
1.29593
1.50113
1.95569
3.07351
6.49281
19.4485
17.8893
1.0494
1.14638
1.19722
1.29342
1.49461
1.93947
3.02962
6.33617
18.7988
17.1334
1.04934
1.14476
1.19677
1.29048
1.48618
1.91791
2.97101
6.13183
17.9823
16.2431
1.04918
1.14234
1.19678
1.28716
1.47554
1.88992
2.8947
5.87194
16.9638
15.2175
1.04893
1.13918
1.19704
1.28316
1.46219
1.85442
2.79811
5.5506
15.7123
14.0152
1.04861
1.13545
1.19748
1.27833
1.44581
1.81068
2.67844
5.15233
14.1221
12.5952
1.09155
1.17946
1.21999
1.30174
1.47466
1.86436
2.83613
5.84304
17.3285
16.6558
1.09154
1.17938
1.21979
1.3013
1.47369
1.86217
2.83058
5.82454
17.2799
16.6029
1.09151
1.17919
1.21937
1.30039
1.47164
1.85739
2.81812
5.77754
17.1509
16.4075
1.09147
1.17885
1.21869
1.29893
1.46838
1.84984
2.79854
5.70647
16.884
16.024
1.09142
1.1783
1.21765
1.29678
1.4637
1.83906
2.77078
5.61002
16.4855
15.5239
1.09134
1.17737
1.21613
1.29382
1.45732
1.82433
2.73279
5.48087
15.9516
14.9264
1.09114
1.17584
1.21461
1.29017
1.44888
1.8045
2.6815
5.30904
15.2678
14.2014
1.09058
1.17341
1.21334
1.28587
1.4381
1.77858
2.614
5.08533
14.3975
13.3411
1.08974
1.17017
1.2119
1.28055
1.42446
1.74543
2.52753
4.80627
13.3104
12.3066
1.08869
1.16628
1.21023
1.27409
1.40767
1.70419
2.4183
4.45207
11.9045
11.0185
1.07176
1.07288
1.081
1.1159
1.21694
1.47594
2.14171
4.24318
12.3694
11.8432
1.07171
1.0728
1.08082
1.11552
1.21615
1.47459
2.13691
4.23143
12.3203
11.9318
1.07159
1.07262
1.08046
1.1148
1.21465
1.47108
2.12938
4.19497
12.2265
11.8497
1.07143
1.07233
1.07988
1.11361
1.2122
1.46568
2.11673
4.14626
12.0634
11.6492
1.07119
1.0719
1.07896
1.11178
1.20851
1.45782
2.09768
4.08272
11.8126
11.3582
1.07082
1.07123
1.07761
1.10915
1.2033
1.44666
2.07062
3.99648
11.4612
10.988
1.07017
1.07022
1.07575
1.10567
1.19641
1.43163
2.03408
3.87852
10.9968
10.5177
1.06859
1.06832
1.07331
1.1015
1.18786
1.41244
1.98628
3.71889
10.3865
9.9249
1.06635
1.06573
1.07011
1.09619
1.17695
1.38754
1.92341
3.5174
9.60295
9.18192
1.06357
1.06252
1.06617
1.08961
1.16332
1.35565
1.8402
3.24872
8.55535
8.19247
0.669545
0.550616
0.525744
0.528963
0.547815
0.619261
0.894873
1.66357
4.99245
4.9811
0.669504
0.550597
0.525597
0.528768
0.547406
0.617951
0.893067
1.64601
4.95838
4.96621
0.669407
0.550563
0.525409
0.528554
0.547135
0.617662
0.890958
1.66047
4.93079
4.93771
0.669261
0.550508
0.525048
0.528123
0.546475
0.616428
0.887024
1.65698
4.8992
4.89758
0.669052
0.55043
0.524438
0.527379
0.545261
0.613907
0.880211
1.63627
4.83119
4.82804
0.668733
0.550325
0.523522
0.526268
0.543466
0.610169
0.869365
1.59809
4.71835
4.72304
0.668274
0.550131
0.52221
0.524732
0.541134
0.60551
0.854911
1.55476
4.56025
4.57681
0.667564
0.549661
0.52049
0.522801
0.538323
0.599629
0.836666
1.50911
4.34284
4.37056
0.666593
0.548955
0.518219
0.520274
0.534696
0.592126
0.812821
1.44425
4.04552
4.08173
0.665342
0.548073
0.515332
0.51705
0.529997
0.582166
0.778942
1.34923
3.61216
3.63841
0.661314
0.545377
0.506095
0.506583
0.514309
0.548641
0.674452
1.06394
2.23553
2.1149
0.657588
0.540761
0.493964
0.488026
0.491378
0.508663
0.57022
0.794069
1.38849
1.36877
0.654843
0.530758
0.481716
0.464184
0.464528
0.469447
0.490883
0.564253
0.748473
1.13753
0.651162
0.530115
0.47912
0.442325
0.426033
0.426216
0.429703
0.445722
0.495683
0.610881
0.652357
0.528906
0.478311
0.441618
0.414753
0.41136
0.412238
0.417544
0.436579
0.492057
0.652858
0.528424
0.478103
0.441238
0.411407
0.405329
0.405512
0.408034
0.418813
0.452511
0.651522
0.528884
0.477677
0.440105
0.412755
0.392065
0.389185
0.389437
0.391719
0.400996
0.651858
0.528581
0.477761
0.43998
0.412561
0.391814
0.38486
0.384931
0.386437
0.394564
0.651007
0.528783
0.477614
0.440385
0.411339
0.39151
0.380278
0.376055
0.37608
0.377295
0.652054
0.528307
0.477733
0.440112
0.410927
0.39197
0.377998
0.375203
0.370683
0.359202
1.05523
1.05292
1.05429
1.07012
1.12395
1.26633
1.617
2.56951
5.41791
5.07024
1.04551
1.04139
1.03225
1.03977
1.07141
1.16032
1.38318
1.94268
3.45998
3.38124
1.03093
1.02364
1.00415
1.00249
1.01085
1.04174
1.12366
1.31671
1.76814
2.77589
1.02694
1.01978
1.00043
0.961021
0.949389
0.953522
0.968814
1.00797
1.09452
1.24303
1.02692
1.01932
0.999296
0.958607
0.932245
0.933553
0.94167
0.966108
1.02653
1.16288
1.02697
1.01921
0.998952
0.957824
0.926011
0.925543
0.930163
0.947114
0.991805
1.09826
1.02589
1.01829
0.998001
0.956604
0.925978
0.904139
0.904435
0.908429
0.921701
0.955702
1.02599
1.01826
0.997705
0.955589
0.925385
0.901805
0.898998
0.901608
0.912234
0.938938
1.02545
1.01787
0.997472
0.95574
0.922859
0.90139
0.888471
0.888871
0.892254
0.903668
1.02593
1.01812
0.997403
0.955039
0.922474
0.901193
0.886034
0.885872
0.887705
0.894818
1.08555
1.15521
1.20479
1.25487
1.35893
1.58626
2.11448
3.51974
7.63858
7.11536
1.08211
1.14412
1.18987
1.22462
1.2962
1.45046
1.79955
2.66961
5.0112
4.86139
1.07211
1.13614
1.16342
1.19514
1.22558
1.28838
1.42248
1.71871
2.36408
3.881
1.07081
1.12948
1.16515
1.16964
1.17873
1.19433
1.22545
1.27506
1.37461
1.58582
1.07055
1.12893
1.16452
1.16713
1.17123
1.18075
1.20107
1.24419
1.33688
1.54185
1.07055
1.12872
1.16429
1.16649
1.16882
1.17543
1.1905
1.22371
1.29666
1.45899
1.07028
1.12775
1.16353
1.1653
1.16533
1.16628
1.17062
1.18196
1.20781
1.26429
1.07025
1.12794
1.16318
1.16391
1.16374
1.1643
1.16753
1.17658
1.1979
1.24538
1.0701
1.12763
1.1625
1.16245
1.16164
1.16166
1.16268
1.16684
1.17716
1.20023
1.07014
1.12799
1.16221
1.16213
1.16126
1.16099
1.16182
1.16568
1.17583
1.19899
1.04773
1.12515
1.19794
1.26322
1.39669
1.68136
2.33192
4.05789
9.10807
8.44
1.04887
1.11533
1.19057
1.23847
1.33458
1.53466
1.97601
3.07336
6.06886
5.85632
1.04236
1.11638
1.16732
1.23066
1.27262
1.3566
1.52999
1.90589
2.70561
4.58017
1.04288
1.10746
1.17454
1.22037
1.25501
1.28403
1.33088
1.38805
1.5039
1.75498
1.04281
1.10664
1.17468
1.21888
1.25058
1.27937
1.30663
1.36163
1.47616
1.72547
1.04287
1.10636
1.17461
1.21845
1.2497
1.27694
1.29902
1.34342
1.43581
1.63638
1.04293
1.10577
1.17414
1.21772
1.24681
1.27293
1.29075
1.30979
1.34572
1.41932
1.04285
1.106
1.17384
1.21694
1.24552
1.27168
1.28891
1.30643
1.3363
1.3973
1.04287
1.10582
1.1734
1.21572
1.2446
1.26939
1.28661
1.30327
1.31984
1.3522
1.04279
1.10607
1.17296
1.21562
1.2444
1.26875
1.2865
1.30299
1.31971
1.35128
1.0155
1.07752
1.16732
1.23896
1.38456
1.69447
2.40403
4.29495
9.84157
9.09439
1.0195
1.06856
1.16657
1.21925
1.32482
1.54465
2.03028
3.24434
6.59333
6.3512
1.01524
1.07662
1.14426
1.22408
1.27065
1.3639
1.55655
1.97533
2.85928
4.9236
1.0162
1.06665
1.1539
1.22013
1.27097
1.30852
1.36496
1.42622
1.55091
1.8219
1.01629
1.06585
1.15434
1.21942
1.26662
1.30936
1.33937
1.39935
1.52359
1.79376
1.0164
1.06554
1.15439
1.21911
1.26635
1.30821
1.33445
1.38332
1.48454
1.70298
1.01653
1.0654
1.15415
1.2186
1.26444
1.30577
1.33363
1.3581
1.39858
1.48028
1.01646
1.06552
1.15393
1.21844
1.26364
1.3049
1.33223
1.35608
1.38938
1.45654
1.01656
1.06536
1.15376
1.21762
1.26352
1.30344
1.33028
1.35746
1.37814
1.41455
1.01653
1.06537
1.15323
1.21769
1.26343
1.30301
1.3305
1.35739
1.37825
1.41326
1.0155
1.07751
1.16731
1.23895
1.38455
1.69446
2.40402
4.29496
9.8417
9.09446
1.0195
1.06856
1.16657
1.21924
1.32481
1.54463
2.03024
3.24428
6.59348
6.35129
1.01524
1.07662
1.14426
1.22407
1.27065
1.3639
1.55654
1.97533
2.85929
4.92359
1.0162
1.06665
1.1539
1.22013
1.27097
1.30852
1.36495
1.42621
1.55089
1.82187
1.01629
1.06585
1.15434
1.21942
1.26662
1.30936
1.33937
1.39934
1.52357
1.79372
1.0164
1.06554
1.15439
1.21911
1.26635
1.30821
1.33444
1.3833
1.48447
1.70282
1.01653
1.0654
1.15415
1.21859
1.26443
1.30577
1.33361
1.35808
1.39849
1.48008
1.01645
1.06555
1.15391
1.21842
1.26357
1.30487
1.33215
1.35592
1.38914
1.45621
1.01655
1.0654
1.15374
1.21761
1.26349
1.30346
1.33025
1.35745
1.37831
1.41474
1.01653
1.06537
1.15324
1.21769
1.26344
1.303
1.33051
1.35739
1.37827
1.41338
1.04773
1.12514
1.19792
1.2632
1.39667
1.68133
2.33188
4.05785
9.10829
8.44011
1.04887
1.11533
1.19055
1.23846
1.33457
1.53463
1.97595
3.07329
6.06916
5.85649
1.04236
1.11638
1.16732
1.23065
1.27261
1.35659
1.52997
1.90586
2.70555
4.58
1.04288
1.10745
1.17453
1.22036
1.25501
1.28403
1.33088
1.38804
1.50388
1.75493
1.04281
1.10664
1.17468
1.21888
1.25058
1.27937
1.30662
1.3616
1.47611
1.72535
1.04287
1.10636
1.17461
1.21845
1.24969
1.27694
1.29899
1.34336
1.43565
1.63602
1.04293
1.10577
1.17414
1.21769
1.24677
1.27291
1.29069
1.30972
1.3455
1.41882
1.04283
1.10608
1.17381
1.21686
1.24537
1.27158
1.2887
1.30603
1.33559
1.3962
1.04283
1.10589
1.17337
1.2157
1.24454
1.26942
1.28656
1.30333
1.3202
1.3528
1.04279
1.10609
1.17298
1.21564
1.24443
1.26875
1.28653
1.30303
1.31971
1.35151
1.08554
1.15519
1.20476
1.25484
1.3589
1.5862
2.11439
3.51955
7.63866
7.1152
1.08211
1.14411
1.18986
1.2246
1.29618
1.45042
1.7995
2.66956
5.01136
4.86141
1.07211
1.13614
1.16343
1.19513
1.22556
1.28835
1.42245
1.71865
2.36394
3.88065
1.07081
1.12948
1.16515
1.16964
1.17873
1.19433
1.22544
1.27505
1.37459
1.58578
1.07055
1.12893
1.16452
1.16713
1.17123
1.18074
1.20105
1.24415
1.33681
1.5417
1.07056
1.12872
1.1643
1.16649
1.16881
1.1754
1.19045
1.2236
1.29644
1.45851
1.07028
1.12775
1.16353
1.16527
1.16528
1.16622
1.17054
1.18183
1.20756
1.26383
1.07025
1.12801
1.16315
1.16374
1.16356
1.1641
1.16721
1.17599
1.19676
1.24331
1.07008
1.12768
1.16247
1.16243
1.16162
1.16166
1.16274
1.16704
1.17768
1.20139
1.07013
1.12801
1.16223
1.16214
1.16128
1.16102
1.16189
1.16585
1.17619
1.19979
1.05521
1.05289
1.05427
1.07009
1.12391
1.26625
1.61686
2.56912
5.41719
5.06945
1.0455
1.04138
1.03223
1.03975
1.07139
1.16028
1.38312
1.94257
3.45989
3.38104
1.03093
1.02364
1.00415
1.00247
1.01083
1.04171
1.12363
1.31668
1.76812
2.77555
1.02694
1.01977
1.00043
0.961023
0.949385
0.953517
0.96881
1.00796
1.09452
1.24305
1.02692
1.01932
0.999296
0.95861
0.932229
0.933535
0.941646
0.96607
1.02647
1.16275
1.02697
1.01921
0.998953
0.957818
0.926016
0.925477
0.930087
0.947004
0.991602
1.09784
1.02588
1.01828
0.998
0.956611
0.925934
0.904054
0.904346
0.908327
0.921577
0.955574
1.02603
1.01829
0.997694
0.95547
0.925311
0.901587
0.898437
0.900912
0.911155
0.936844
1.02545
1.01786
0.997453
0.955694
0.922904
0.901282
0.888701
0.889394
0.893412
0.906198
1.02595
1.01813
0.997399
0.955012
0.922511
0.901204
0.886271
0.886433
0.889541
0.899006
0.661304
0.54537
0.506079
0.506565
0.514282
0.548585
0.674299
1.0636
2.23452
2.11415
0.657586
0.540751
0.493953
0.488016
0.491367
0.508645
0.570173
0.793957
1.38823
1.36861
0.654845
0.530756
0.481716
0.464172
0.464515
0.469431
0.49086
0.564196
0.748411
1.13744
0.651156
0.530115
0.47912
0.442325
0.426029
0.426211
0.429696
0.445708
0.495659
0.610855
0.652356
0.528901
0.478309
0.441621
0.41474
0.41135
0.412228
0.41753
0.436552
0.492007
0.652847
0.528434
0.478112
0.441232
0.411427
0.405278
0.405458
0.40797
0.418716
0.452309
0.651501
0.528884
0.477675
0.440125
0.412755
0.39203
0.389156
0.389408
0.391687
0.400938
0.651926
0.528547
0.477815
0.439941
0.412666
0.391534
0.384539
0.38465
0.386219
0.394514
0.651085
0.528717
0.477585
0.440308
0.411359
0.391375
0.38025
0.377428
0.377879
0.380579
0.652134
0.528254
0.477715
0.440063
0.410939
0.392007
0.37782
0.375322
0.374639
0.373026
1.0747
0.612063
0.437205
0.431228
0.451997
0.462914
0.468586
0.466765
0.44953
0.445397
1.08479
0.665026
0.501648
0.499525
0.496463
0.483006
0.484072
0.466348
0.454464
0.462257
1.06581
0.799594
0.685383
0.587925
0.496976
0.448198
0.421334
0.417596
0.409254
0.383266
0.995943
0.94117
0.800131
0.626707
0.527597
0.474718
0.464946
0.470436
0.512159
0.747529
0.880399
0.907591
0.867889
0.765926
0.613475
0.566376
0.570785
0.616938
0.732844
0.733957
0.755319
0.852484
0.849482
0.814886
0.724065
0.718135
0.745722
0.784006
0.772547
0.749068
0.486491
0.775299
0.823796
0.863149
0.884611
0.936639
0.934079
0.90625
0.841545
0.748566
0.441736
0.689937
0.798102
1.03407
1.01967
1.01249
0.99932
0.958068
0.874036
0.773051
0.391757
0.490032
0.737936
1.28855
1.28518
1.25855
1.17682
0.995844
0.88355
0.789894
0.278073
0.478621
0.755904
1.33298
1.32992
1.30774
1.22905
1.0237
0.893784
0.799435
2.54694
1.50707
1.11098
1.10296
1.14703
1.18573
1.21028
1.20158
1.17226
1.16258
2.59266
1.62895
1.27829
1.27643
1.25975
1.20971
1.21005
1.18588
1.16352
1.19827
2.56805
1.92222
1.75405
1.50896
1.2908
1.16535
1.08523
1.03653
0.994158
0.878699
2.41548
2.27913
1.9371
1.57055
1.33788
1.21698
1.18915
1.20267
1.30592
1.81433
2.24826
2.22527
2.12274
1.88648
1.53096
1.43719
1.45479
1.60225
1.82338
1.81102
1.88478
2.14898
2.113
2.01388
1.80385
1.83844
1.98165
1.96966
1.92533
1.84676
1.15932
1.98584
2.07878
2.19212
2.25883
2.37934
2.34302
2.23683
2.03715
1.86442
1.11817
1.75907
2.01268
2.58711
2.57374
2.55212
2.50244
2.36356
2.11385
1.91445
0.969675
1.24639
1.86896
3.24196
3.22347
3.123
2.85122
2.44298
2.17537
1.96326
0.975255
1.24494
1.88698
3.30613
3.29694
3.21131
2.95209
2.47287
2.19279
1.97514
3.49903
2.10519
1.58493
1.57974
1.64443
1.70592
1.7409
1.72263
1.6901
1.69567
3.57423
2.26563
1.8259
1.8331
1.80243
1.72233
1.71118
1.69953
1.68742
1.79178
3.55881
2.64973
2.47698
2.13448
1.85638
1.68188
1.56399
1.46491
1.38162
1.15098
3.37489
3.17524
2.67783
2.21349
1.9005
1.73591
1.69434
1.7167
1.88501
2.54684
3.13357
3.10913
2.97469
2.64963
2.15379
2.04452
2.08428
2.34908
2.59634
2.57806
2.63179
3.02395
2.97618
2.8418
2.56361
2.63381
2.90974
2.85425
2.70808
2.61007
1.61432
2.85105
2.95185
3.10347
3.23175
3.38608
3.32591
3.15643
2.8403
2.63961
1.53153
2.52379
2.87959
3.68923
3.6797
3.65228
3.56435
3.33835
2.96466
2.71744
1.32986
1.78614
2.69943
4.6565
4.60808
4.41066
3.96269
3.45152
3.07499
2.79227
1.32916
1.75358
2.66822
4.74041
4.71291
4.53765
4.08937
3.48497
3.10503
2.812
4.06684
2.47199
1.88919
1.88858
1.96535
2.04437
2.08226
2.05047
2.00913
2.04141
4.16682
2.65461
2.17854
2.19729
2.15335
2.05
2.02261
2.03184
2.05517
2.18642
4.15873
3.09283
2.91482
2.52801
2.22211
2.01847
1.87421
1.73388
1.6068
1.3317
3.9699
3.72518
3.11998
2.61617
2.2581
2.06821
2.01677
2.04554
2.27532
3.0056
3.67583
3.65125
3.49841
3.11972
2.53892
2.43164
2.49105
2.86047
3.08069
3.05757
3.08028
3.56887
3.5157
3.36189
3.04785
3.14566
3.51837
3.43358
3.19543
3.08412
1.86974
3.40186
3.50991
3.68077
3.85675
4.02686
3.94856
3.73141
3.34503
3.12294
1.75736
3.01818
3.43651
4.39692
4.39199
4.37431
4.25483
3.9558
3.50446
3.2278
1.52848
2.14804
3.21859
5.57655
5.49233
5.15415
4.65221
4.07995
3.63837
3.318
1.51683
2.05542
3.15996
5.69089
5.61863
5.34922
4.78129
4.11832
3.67995
3.34586
4.33207
2.64607
2.03815
2.04039
2.12406
2.21148
2.24868
2.20029
2.1446
2.20178
4.44644
2.83912
2.35144
2.37696
2.32583
2.20971
2.17119
2.19891
2.26412
2.38097
4.44222
3.3035
3.12169
2.71814
2.40163
2.18459
2.02631
1.86321
1.70783
1.43178
4.25564
3.98673
3.32608
2.81022
2.43245
2.23091
2.17444
2.20679
2.4856
3.22637
3.9344
3.90894
3.74562
3.34157
2.72383
2.62164
2.69267
3.12305
3.30231
3.28137
3.29038
3.82939
3.77351
3.6132
3.28561
3.39818
3.81522
3.71883
3.4242
3.30508
1.98014
3.66269
3.79387
3.96157
4.16104
4.33907
4.24977
4.00659
3.59556
3.34938
1.85436
3.2451
3.71556
4.74334
4.73909
4.71856
4.59027
4.25745
3.7666
3.47501
1.61407
2.31228
3.4695
6.03072
5.90448
5.49244
4.99022
4.37942
3.90764
3.5723
1.59822
2.20159
3.40516
6.14549
6.04207
5.7274
5.11605
4.4234
3.95697
3.60547
4.33187
2.64605
2.03827
2.0403
2.12345
2.2114
2.24809
2.19937
2.1418
2.19751
4.44625
2.83914
2.35137
2.37693
2.32582
2.20979
2.17054
2.19781
2.26278
2.3807
4.44207
3.30355
3.1218
2.71843
2.402
2.18468
2.02604
1.8629
1.71026
1.43209
4.25557
3.98665
3.32606
2.81056
2.43331
2.23087
2.17483
2.20715
2.48616
3.23083
3.9342
3.90882
3.74576
3.34246
2.72763
2.62397
2.69417
3.12503
3.30167
3.2802
3.28973
3.82877
3.77409
3.6162
3.29142
3.40263
3.81043
3.71389
3.42056
3.30044
1.97935
3.66146
3.80445
3.96329
4.15693
4.33594
4.24614
4.00312
3.60285
3.34874
1.85446
3.24683
3.72046
4.74192
4.73931
4.71905
4.59059
4.25657
3.76655
3.47543
1.614
2.30615
3.4916
6.0335
5.89464
5.48295
4.98966
4.37911
3.9063
3.57251
1.59904
2.20629
3.41964
6.14007
6.03114
5.71945
5.11378
4.42369
3.9557
3.60577
4.06623
2.47199
1.88957
1.88833
1.96395
2.04402
2.08031
2.04764
2.00055
2.0304
4.1663
2.65468
2.17835
2.19708
2.15324
2.04996
2.02045
2.02865
2.05167
2.17622
4.15831
3.09298
2.915
2.52904
2.22316
2.01879
1.87325
1.73353
1.61326
1.34381
3.96973
3.725
3.11991
2.61713
2.26055
2.06809
2.01778
2.04651
2.27683
3.01595
3.67524
3.65094
3.49883
3.12198
2.54934
2.43853
2.49542
2.86591
3.07857
3.05371
3.0787
3.56718
3.5168
3.36891
3.06333
3.15751
3.50539
3.42203
3.18223
3.07225
1.86765
3.39758
3.53358
3.68518
3.84667
4.01583
3.93756
3.72381
3.35984
3.12239
1.7563
3.02105
3.4533
4.39953
4.39182
4.37566
4.25742
3.95616
3.50302
3.22864
1.5298
2.14678
3.22589
5.60481
5.48916
5.12463
4.64739
4.07925
3.63478
3.31824
1.51888
2.06847
3.17926
5.68552
5.59531
5.32381
4.77279
4.11941
3.67682
3.34647
3.49815
2.1053
1.58552
1.57938
1.6433
1.70516
1.73784
1.71834
1.67807
1.68243
3.57351
2.26581
1.82566
1.8325
1.8019
1.72141
1.70765
1.69456
1.68088
1.74623
3.55829
2.64992
2.47677
2.13652
1.85791
1.68253
1.56237
1.46586
1.3916
1.2065
3.3747
3.1751
2.67788
2.21496
1.90406
1.73573
1.69585
1.71812
1.88583
2.56248
3.13282
3.10876
2.97531
2.65235
2.16796
2.05548
2.09213
2.35628
2.59361
2.57204
2.62968
3.02228
2.97918
2.85086
2.58242
2.64849
2.89344
2.83721
2.68594
2.59786
1.61251
2.84398
2.96793
3.10916
3.2193
3.36346
3.306
3.14639
2.85523
2.64013
1.52676
2.52117
2.89517
3.69936
3.6816
3.65715
3.5693
3.34054
2.96156
2.71811
1.33338
1.78422
2.69294
4.70671
4.64127
4.38836
3.93692
3.44982
3.07076
2.79239
1.33199
1.76751
2.67406
4.75765
4.70628
4.5032
4.05865
3.48649
3.10003
2.81186
2.54633
1.50738
1.11172
1.10272
1.14715
1.18467
1.20711
1.19774
1.16014
1.15112
2.59214
1.62932
1.27826
1.27587
1.25853
1.2075
1.2063
1.18142
1.15771
1.16181
2.5677
1.9225
1.75372
1.51133
1.29248
1.16649
1.08372
1.03901
1.00468
0.925733
2.41542
2.2791
1.93732
1.57223
1.3417
1.21705
1.19125
1.20465
1.30491
1.83056
2.24747
2.22506
2.12378
1.88915
1.54442
1.44945
1.46648
1.60877
1.82167
1.80634
1.88207
2.14914
2.11607
2.0225
1.81915
1.85086
1.9708
1.94906
1.90338
1.84043
1.16055
1.98248
2.08772
2.19753
2.24785
2.34803
2.31637
2.22463
2.04767
1.86522
1.11106
1.73312
2.01997
2.59787
2.5784
2.55783
2.50385
2.36253
2.11217
1.9151
0.97881
1.2577
1.88548
3.28658
3.26824
3.14124
2.80982
2.43986
2.17253
1.96375
0.980252
1.25673
1.88387
3.32542
3.31165
3.19575
2.89928
2.47443
2.18899
1.9751
1.07495
0.612879
0.438195
0.431886
0.453018
0.462515
0.467741
0.465846
0.442996
0.439662
1.08501
0.665916
0.502344
0.500117
0.495723
0.480974
0.482128
0.464979
0.453042
0.447987
1.06598
0.800612
0.686035
0.590225
0.49868
0.450007
0.421307
0.419952
0.415784
0.405246
0.996071
0.941446
0.800726
0.628233
0.530278
0.475789
0.467335
0.472726
0.510985
0.751099
0.880064
0.907934
0.868787
0.767791
0.620527
0.573727
0.578314
0.62021
0.732584
0.732366
0.753657
0.853687
0.851233
0.819342
0.732134
0.72374
0.746799
0.768628
0.764531
0.747214
0.485526
0.776948
0.825253
0.864641
0.877767
0.91633
0.916689
0.896978
0.845132
0.749231
0.441773
0.668274
0.803672
1.03864
1.0236
1.01407
0.997382
0.956231
0.875833
0.773839
0.407871
0.509341
0.756665
1.31025
1.31134
1.27892
1.16192
0.994714
0.883822
0.790902
0.346945
0.493421
0.754352
1.3382
1.34375
1.31361
1.20569
1.01852
0.893688
0.800156
)
;

boundaryField
{
    inlet
    {
        type            fixedValue;
        value           uniform 1;
    }
    outlet
    {
        type            waveTransmissive;
        gamma           1.4;
        fieldInf        1;
        lInf            3;
        value           nonuniform List<scalar> 
100
(
0.526946
0.489606
0.377422
0.657975
0.726002
0.756085
0.770085
0.78962
0.802301
0.811667
1.27952
1.17297
0.867671
1.56508
1.72935
1.8096
1.8478
1.89589
1.93788
1.94919
1.82775
1.66725
1.19897
2.21325
2.43798
2.54282
2.59334
2.67242
2.74011
2.75971
2.188
1.98268
1.4096
2.63629
2.88386
3.00123
3.06122
3.16504
3.24945
3.27759
2.36628
2.13268
1.51192
2.84083
3.09658
3.22081
3.2864
3.40323
3.49626
3.5297
2.36304
2.13323
1.51076
2.83967
3.09524
3.2198
3.28692
3.40398
3.4967
3.53004
2.17947
1.98247
1.40787
2.63301
2.88081
2.99794
3.06275
3.16704
3.25052
3.27862
1.81637
1.66176
1.20274
2.21391
2.43608
2.53739
2.59567
2.67504
2.74154
2.76071
1.26916
1.16685
0.872511
1.56863
1.73247
1.80336
1.85048
1.89862
1.93966
1.9508
0.521936
0.486555
0.380543
0.659316
0.727625
0.752362
0.772312
0.791659
0.803826
0.813408
)
;
    }
    top
    {
        type            symmetryPlane;
    }
    bottom
    {
        type            symmetryPlane;
    }
    step
    {
        type            zeroGradient;
    }
    defaultFaces
    {
        type            empty;
    }
}


// ************************************************************************* //
