/*--------------------------------*- C++ -*----------------------------------*\
  =========                 |
  \\      /  F ield         | OpenFOAM: The Open Source CFD Toolbox
   \\    /   O peration     | Website:  https://openfoam.org
    \\  /    A nd           | Version:  6.0
     \\/     M anipulation  |
\*---------------------------------------------------------------------------*/
FoamFile
{
    version     2.0;
    format      ascii;
    class       volVectorField;
    location    "1.5";
    object      U;
}
// * * * * * * * * * * * * * * * * * * * * * * * * * * * * * * * * * * * * * //

dimensions      [0 1 -1 0 0 0 0];

internalField   nonuniform List<vector> 
3000
(
(3.09253 8.04812e-06 -0.0762619)
(3.11491 2.07944e-05 -0.0830049)
(3.11867 7.61176e-05 -0.085136)
(3.11445 0.000140094 -0.0864715)
(3.09485 0.00022553 -0.0910552)
(3.00402 0.00021537 -0.103672)
(2.57016 0.00253081 -0.159281)
(1.59837 0.00912264 -0.278407)
(0.340251 0.023673 -0.316093)
(0.338942 0.0312371 -0.309235)
(3.09253 4.47776e-05 -0.0762608)
(3.11493 7.34296e-05 -0.083003)
(3.11871 0.000266174 -0.0851324)
(3.11449 0.000513606 -0.0864606)
(3.09486 0.000965461 -0.0910106)
(3.00426 0.00216298 -0.103691)
(2.57561 0.00827036 -0.16038)
(1.60974 0.0173717 -0.272943)
(0.370897 0.0569618 -0.315899)
(0.35224 0.0887798 -0.306161)
(3.09255 8.99772e-05 -0.0762757)
(3.11496 0.000132973 -0.0829745)
(3.11879 0.000491245 -0.0851398)
(3.11463 0.000960975 -0.0864325)
(3.09528 0.0018493 -0.0909502)
(3.00582 0.00431323 -0.103496)
(2.57985 0.0139072 -0.157513)
(1.61262 0.0257871 -0.273718)
(0.368428 0.088014 -0.317044)
(0.363676 0.141647 -0.299663)
(3.09257 0.000138516 -0.0762907)
(3.11502 0.000199125 -0.0829361)
(3.11893 0.00076375 -0.0851453)
(3.11485 0.00150341 -0.0863918)
(3.09576 0.00288981 -0.0908499)
(3.00737 0.00649881 -0.103281)
(2.5867 0.020741 -0.156939)
(1.6138 0.048553 -0.272712)
(0.347708 0.14234 -0.317307)
(0.364162 0.203748 -0.296382)
(3.09261 0.000206469 -0.0763186)
(3.11511 0.000290725 -0.0828678)
(3.11915 0.00112627 -0.0851618)
(3.11521 0.00221725 -0.086328)
(3.09664 0.00424362 -0.0907281)
(3.01012 0.00950477 -0.102673)
(2.59713 0.0299928 -0.158632)
(1.6315 0.0715871 -0.26916)
(0.361544 0.210537 -0.31332)
(0.370157 0.279211 -0.292221)
(3.09266 0.000291699 -0.0763555)
(3.11524 0.000435147 -0.0827768)
(3.11946 0.00163108 -0.0851803)
(3.1157 0.00315058 -0.0862439)
(3.09774 0.0058383 -0.0905311)
(3.0137 0.0125553 -0.102155)
(2.61241 0.0405954 -0.157028)
(1.66783 0.090433 -0.265043)
(0.386086 0.28516 -0.308852)
(0.37945 0.368646 -0.287712)
(3.09274 0.00042711 -0.0763916)
(3.11544 0.000741764 -0.0826629)
(3.1199 0.00236712 -0.0852012)
(3.11634 0.00434939 -0.086139)
(3.09914 0.00768635 -0.0902705)
(3.01848 0.0160533 -0.10154)
(2.63295 0.0523832 -0.152766)
(1.70977 0.112227 -0.260843)
(0.416896 0.37202 -0.304539)
(0.391145 0.475559 -0.28272)
(3.09288 0.000605154 -0.0763853)
(3.11573 0.00115879 -0.0825337)
(3.12047 0.00329201 -0.0852076)
(3.11712 0.00582402 -0.0860342)
(3.10082 0.00994874 -0.0899953)
(3.0246 0.0202477 -0.100607)
(2.65962 0.0670425 -0.14972)
(1.74787 0.147622 -0.258367)
(0.454297 0.479219 -0.299208)
(0.40521 0.605139 -0.276506)
(3.09308 0.000796073 -0.0763653)
(3.11614 0.00154159 -0.0823736)
(3.1212 0.00429315 -0.0852117)
(3.11811 0.00754269 -0.0859065)
(3.10294 0.0128246 -0.0896363)
(3.03255 0.0260073 -0.0994654)
(2.69687 0.0875655 -0.14535)
(1.8088 0.203752 -0.253268)
(0.507654 0.619367 -0.292419)
(0.42378 0.772252 -0.269062)
(3.09333 0.00102408 -0.0763465)
(3.11664 0.00194373 -0.0821693)
(3.12213 0.00545564 -0.085226)
(3.11938 0.00962556 -0.0857522)
(3.10572 0.0165158 -0.0891743)
(3.04351 0.0337688 -0.0980591)
(2.75074 0.108525 -0.137806)
(1.91022 0.264363 -0.244419)
(0.587341 0.782649 -0.282777)
(0.437372 0.982131 -0.257955)
(3.00392 1.16351e-05 -0.01332)
(3.01131 3.87809e-05 -0.0199162)
(3.01115 0.000103832 -0.0219659)
(3.00271 0.000245859 -0.0240865)
(2.96872 0.000543127 -0.0277376)
(2.86758 0.00122082 -0.0341823)
(2.51556 0.00311083 -0.0487801)
(0.827923 0.0110325 -0.103417)
(-0.280109 0.0214668 -0.100288)
(0.497992 -0.0857475 -0.0905612)
(3.00393 5.38863e-05 -0.0133204)
(3.01134 0.000142214 -0.0199152)
(3.0112 0.000341602 -0.0219651)
(3.00284 0.000769447 -0.0240805)
(2.96911 0.0016623 -0.0277137)
(2.86775 0.00360896 -0.0341643)
(2.51644 0.00861357 -0.0487524)
(0.860696 0.0308927 -0.102986)
(-0.336457 0.0751996 -0.101937)
(0.104732 0.0372317 -0.0943589)
(3.00395 0.000101505 -0.0133237)
(3.01141 0.000255465 -0.019912)
(3.01129 0.000602912 -0.0219657)
(3.00305 0.00134785 -0.0240722)
(2.96951 0.00288894 -0.0276944)
(2.86941 0.00614108 -0.0340955)
(2.52259 0.0142696 -0.0485262)
(0.862682 0.050799 -0.10271)
(-0.345908 0.135544 -0.101862)
(0.101554 0.165047 -0.0932891)
(3.00399 0.000152692 -0.0133285)
(3.01153 0.000386357 -0.0199059)
(3.01144 0.000921575 -0.021966)
(3.0034 0.0020671 -0.0240588)
(2.97037 0.0044134 -0.0276496)
(2.87119 0.00930873 -0.0340046)
(2.52841 0.0217071 -0.0482385)
(0.884634 0.0734723 -0.101994)
(-0.327821 0.203778 -0.100754)
(0.103229 0.282546 -0.0914773)
(3.00404 0.00023256 -0.0133366)
(3.0117 0.000586391 -0.0198947)
(3.01165 0.00138055 -0.0219673)
(3.00391 0.00304159 -0.024042)
(2.97151 0.00638731 -0.0275995)
(2.87449 0.0133437 -0.03386)
(2.53835 0.0308785 -0.0477514)
(0.938561 0.101403 -0.100796)
(-0.28338 0.28184 -0.0994039)
(0.103094 0.395752 -0.0894451)
(3.00411 0.000364319 -0.0133478)
(3.01195 0.000899586 -0.0198754)
(3.01196 0.00201741 -0.0219689)
(3.00463 0.00428121 -0.0240211)
(2.9732 0.00879717 -0.0275249)
(2.87857 0.0182682 -0.0336749)
(2.55112 0.0420714 -0.0471935)
(0.992708 0.136516 -0.0995513)
(-0.233465 0.370527 -0.0978156)
(0.105562 0.512782 -0.0872294)
(3.00425 0.000736667 -0.013362)
(3.0123 0.00164355 -0.0198439)
(3.01241 0.00313107 -0.0219913)
(3.00562 0.00595859 -0.0240022)
(2.97547 0.0117034 -0.0274232)
(2.88417 0.0240123 -0.0334126)
(2.56887 0.0555876 -0.0464436)
(1.06321 0.179887 -0.0978019)
(-0.173471 0.472012 -0.0961297)
(0.109493 0.63982 -0.0847266)
(3.00461 0.00122788 -0.0133791)
(3.01281 0.002608 -0.0198)
(3.01302 0.0045405 -0.0220357)
(3.00682 0.00802235 -0.0239764)
(2.97828 0.015235 -0.0272792)
(2.89173 0.031072 -0.0330369)
(2.59306 0.0724717 -0.0453466)
(1.16314 0.230802 -0.0950628)
(-0.0953271 0.588231 -0.0939575)
(0.11324 0.780957 -0.0819942)
(3.00511 0.00160836 -0.0134011)
(3.01348 0.00338499 -0.0197458)
(3.01382 0.0058204 -0.0221013)
(3.00837 0.0101683 -0.023949)
(2.98197 0.0192582 -0.0270918)
(2.90149 0.0396772 -0.032555)
(2.62388 0.0938283 -0.0440155)
(1.30316 0.293863 -0.0914768)
(0.00796642 0.726927 -0.0914536)
(0.117341 0.945573 -0.0791367)
(3.00573 0.00197121 -0.01343)
(3.01432 0.00412641 -0.0196822)
(3.01481 0.00708609 -0.0221894)
(3.01028 0.0123459 -0.0239228)
(2.98666 0.0232738 -0.0268664)
(2.91423 0.0478596 -0.0319717)
(2.66633 0.111524 -0.0423932)
(1.51936 0.336803 -0.0862643)
(0.152221 0.876052 -0.0886672)
(0.127792 1.1335 -0.0765057)
(2.97279 5.44923e-06 0.000718067)
(2.96471 3.39993e-05 -0.0022651)
(2.95804 0.000100143 -0.00344228)
(2.93825 0.000242832 -0.00515798)
(2.88857 0.000553578 -0.00771943)
(2.76112 0.00126353 -0.0118743)
(2.36921 0.00305899 -0.020526)
(0.850102 0.00967315 -0.0438576)
(-0.318723 0.0262205 -0.0460232)
(-0.216939 0.0445563 -0.0457936)
(2.9728 2.10579e-05 0.000717185)
(2.96474 0.000118773 -0.00226536)
(2.9581 0.000320523 -0.00344332)
(2.93839 0.000744938 -0.00515844)
(2.88888 0.00166603 -0.00771795)
(2.76175 0.00376481 -0.0118755)
(2.37105 0.0091474 -0.0205146)
(0.855493 0.0290511 -0.0438379)
(-0.323249 0.0746417 -0.0461039)
(-0.170241 0.116361 -0.0442482)
(2.97282 3.56217e-05 0.000713638)
(2.9648 0.000220341 -0.00226554)
(2.95824 0.000574615 -0.00344874)
(2.93868 0.00130758 -0.00515919)
(2.8895 0.00289612 -0.00771022)
(2.76335 0.00651872 -0.0118479)
(2.37662 0.0158317 -0.020417)
(0.872908 0.0497624 -0.0437818)
(-0.31349 0.13978 -0.045879)
(-0.154384 0.224855 -0.0430746)
(2.97286 5.01824e-05 0.000708291)
(2.96491 0.000356198 -0.00226451)
(2.95846 0.000907201 -0.00345763)
(2.93914 0.0020175 -0.0051606)
(2.89053 0.00440226 -0.00769665)
(2.76579 0.00983582 -0.0118047)
(2.38439 0.0237521 -0.0202604)
(0.901528 0.0727906 -0.0435194)
(-0.288574 0.214638 -0.0452504)
(-0.136444 0.342976 -0.0418113)
(2.97293 7.86419e-05 0.000699748)
(2.96508 0.00057983 -0.00226107)
(2.95879 0.00139671 -0.00347123)
(2.93982 0.00296879 -0.00516442)
(2.892 0.00630078 -0.00767985)
(2.76939 0.0138997 -0.0117377)
(2.39558 0.0333971 -0.0200396)
(0.942919 0.100868 -0.0430174)
(-0.250605 0.29469 -0.0445547)
(-0.115685 0.456587 -0.0403674)
(2.97304 0.000143261 0.00068748)
(2.96534 0.000955292 -0.00225261)
(2.95925 0.00193186 -0.00349355)
(2.94075 0.00398128 -0.00517397)
(2.89406 0.0084565 -0.00766078)
(2.77442 0.0187719 -0.0116569)
(2.41126 0.0452613 -0.0197417)
(1.00055 0.135218 -0.0423561)
(-0.199502 0.38116 -0.0438146)
(-0.0920765 0.571952 -0.0390471)
(2.97322 0.000341518 0.000668202)
(2.96567 0.00165343 -0.00223674)
(2.95978 0.00260488 -0.0035373)
(2.94192 0.00511592 -0.00519649)
(2.89673 0.0109435 -0.00764172)
(2.78102 0.0245943 -0.0115553)
(2.43198 0.0596739 -0.0193632)
(1.07663 0.175827 -0.0415274)
(-0.135058 0.47711 -0.0431543)
(-0.0647951 0.693148 -0.0375251)
(2.97355 0.000605856 0.000622541)
(2.96606 0.0024952 -0.00222433)
(2.96031 0.00348827 -0.00361102)
(2.94332 0.0065737 -0.00523003)
(2.90008 0.0140105 -0.00761565)
(2.78953 0.0316469 -0.0114194)
(2.45861 0.0769241 -0.0188882)
(1.17376 0.222139 -0.0406309)
(-0.0560349 0.585289 -0.0424264)
(-0.0340393 0.823777 -0.0361931)
(2.97399 0.000809633 0.00055895)
(2.96655 0.00318856 -0.00221197)
(2.96095 0.00434768 -0.00371458)
(2.94508 0.00814521 -0.00527893)
(2.90439 0.0174397 -0.00758785)
(2.80046 0.0396906 -0.0112625)
(2.49199 0.0970973 -0.018357)
(1.29494 0.277124 -0.0394513)
(0.0395008 0.71273 -0.04188)
(-3.16377e-05 0.971073 -0.0347436)
(2.97452 0.000987929 0.000480128)
(2.96714 0.00378103 -0.00220181)
(2.96171 0.00521557 -0.00384566)
(2.94724 0.00978721 -0.00534245)
(2.90975 0.0208952 -0.00755972)
(2.81438 0.0473787 -0.0110949)
(2.53546 0.115055 -0.0177842)
(1.46166 0.322163 -0.0383259)
(0.162013 0.855344 -0.0413809)
(0.0367481 1.13897 -0.034056)
(2.97616 1.817e-06 0.00240905)
(2.95974 2.80474e-05 0.00255118)
(2.94448 8.1013e-05 0.00200205)
(2.91383 0.000212119 0.00105819)
(2.84797 0.000520666 -0.000544068)
(2.69355 0.00123538 -0.00321202)
(2.25184 0.00303056 -0.00828496)
(0.660399 0.00907976 -0.02034)
(-0.526955 0.0237079 -0.022314)
(-0.323002 0.0620339 -0.0210538)
(2.97617 4.50764e-06 0.0024091)
(2.95976 9.65638e-05 0.00255087)
(2.94454 0.000227441 0.00199707)
(2.91397 0.000622271 0.00105459)
(2.84831 0.00158077 -0.000545844)
(2.69435 0.00381174 -0.00321083)
(2.25405 0.0094451 -0.00827751)
(0.663125 0.0282258 -0.0203441)
(-0.52916 0.0734263 -0.0223086)
(-0.303293 0.1519 -0.0205938)
(2.97619 5.49513e-06 0.00240915)
(2.95981 0.000189976 0.0025503)
(2.94465 0.000392168 0.00198373)
(2.91427 0.00107709 0.0010469)
(2.84901 0.00276603 -0.000545839)
(2.69607 0.00671191 -0.00319892)
(2.25915 0.0167473 -0.00824626)
(0.675675 0.0507909 -0.0203439)
(-0.517882 0.142994 -0.022181)
(-0.27818 0.269803 -0.019808)
(2.97624 6.73809e-06 0.00240974)
(2.95989 0.000328567 0.00254998)
(2.94483 0.000639484 0.00196108)
(2.91475 0.00166734 0.00103364)
(2.85014 0.00419115 -0.000546271)
(2.69884 0.0100985 -0.00317957)
(2.26763 0.0252059 -0.00818143)
(0.703964 0.0768746 -0.0202308)
(-0.489576 0.223257 -0.0219281)
(-0.253822 0.392029 -0.0190159)
(2.97631 1.33967e-05 0.00241109)
(2.96002 0.000557683 0.00255023)
(2.94509 0.000990521 0.00192563)
(2.91543 0.00241375 0.00101227)
(2.85177 0.00591306 -0.000548249)
(2.70291 0.0141456 -0.00315216)
(2.28027 0.0353179 -0.00807397)
(0.74819 0.107003 -0.0199919)
(-0.446834 0.306557 -0.0216241)
(-0.226854 0.508655 -0.0181882)
(2.97643 3.63265e-05 0.00241345)
(2.96022 0.000931774 0.00255152)
(2.94544 0.00135309 0.0018693)
(2.91635 0.00313446 0.000977414)
(2.854 0.00775978 -0.000555146)
(2.70859 0.0188465 -0.00311942)
(2.29787 0.0474522 -0.00793443)
(0.807877 0.142035 -0.0196924)
(-0.392 0.393476 -0.0213605)
(-0.19752 0.625109 -0.017431)
(2.97663 9.80729e-05 0.00241536)
(2.96046 0.00148869 0.00255218)
(2.94582 0.00171244 0.00179988)
(2.91752 0.00378882 0.000930589)
(2.85696 0.00971401 -0.000569807)
(2.71613 0.0242816 -0.00308556)
(2.3208 0.061881 -0.00777168)
(0.883445 0.182653 -0.0193523)
(-0.325536 0.488355 -0.0211515)
(-0.166119 0.745801 -0.0166244)
(2.97694 0.000179883 0.00240898)
(2.96075 0.00211103 0.00254535)
(2.9462 0.00214205 0.00171826)
(2.91896 0.00460183 0.000872087)
(2.8608 0.0120813 -0.000591447)
(2.72591 0.0307582 -0.00304918)
(2.34987 0.0788464 -0.00758795)
(0.977708 0.229048 -0.0190074)
(-0.246298 0.594195 -0.0209878)
(-0.133298 0.874425 -0.0159296)
(2.97735 0.000245415 0.00239701)
(2.9611 0.00263619 0.00253318)
(2.94663 0.00255872 0.00161253)
(2.92077 0.00554042 0.000795545)
(2.86566 0.0148188 -0.000622169)
(2.73836 0.0381344 -0.00301112)
(2.38627 0.0982254 -0.00738627)
(1.09615 0.282841 -0.0185878)
(-0.151893 0.717636 -0.0209393)
(-0.0995497 1.01554 -0.0151948)
(2.97784 0.000292661 0.00238032)
(2.9615 0.00302769 0.00251492)
(2.94714 0.00300539 0.00148433)
(2.92298 0.00666802 0.000703006)
(2.87167 0.0178839 -0.000659956)
(2.75392 0.0459129 -0.00297313)
(2.43269 0.117515 -0.00718341)
(1.25778 0.332694 -0.018242)
(-0.0332878 0.86148 -0.0210627)
(-0.0648607 1.17356 -0.0151072)
(2.98598 4.66551e-06 0.00102745)
(2.9697 2.91673e-05 0.00165204)
(2.9507 4.15875e-05 0.00141723)
(2.91436 0.000148813 0.00104466)
(2.8404 0.000444258 0.000464963)
(2.67181 0.00116277 -0.000449681)
(2.19733 0.00294291 -0.00214319)
(0.539106 0.00868032 -0.00606867)
(-0.656402 0.022429 -0.00671727)
(-0.423913 0.075517 -0.00621085)
(2.98599 1.60332e-05 0.00102774)
(2.96971 0.000100885 0.00165191)
(2.95074 0.000107223 0.00141352)
(2.9145 0.000423781 0.00104257)
(2.84073 0.00134634 0.000464571)
(2.6726 0.00361646 -0.000447553)
(2.19949 0.00928102 -0.00214055)
(0.541154 0.0275758 -0.00606807)
(-0.655186 0.0729737 -0.0067184)
(-0.394507 0.171836 -0.00611369)
(2.98602 3.26053e-05 0.00102864)
(2.96973 0.000205467 0.00165154)
(2.95081 0.000183839 0.00140568)
(2.91479 0.000722697 0.00103754)
(2.84146 0.00234851 0.000463587)
(2.67434 0.00638342 -0.000442486)
(2.20448 0.0166468 -0.00213353)
(0.553009 0.0510761 -0.00605951)
(-0.641504 0.144021 -0.00668317)
(-0.364007 0.296805 -0.00584746)
(2.98606 5.80574e-05 0.00103047)
(2.96976 0.000366083 0.00165103)
(2.95093 0.000317352 0.00139231)
(2.91524 0.00110726 0.00102868)
(2.84262 0.00352387 0.0004612)
(2.6772 0.0095497 -0.000435506)
(2.2133 0.0252204 -0.00211578)
(0.582263 0.0787872 -0.00600801)
(-0.610428 0.22612 -0.00661982)
(-0.334525 0.423817 -0.00555796)
(2.98614 9.84924e-05 0.00103374)
(2.96982 0.000622697 0.00165037)
(2.95108 0.000491212 0.00137127)
(2.91589 0.00153461 0.00101435)
(2.84429 0.00485371 0.000456332)
(2.68141 0.01322 -0.000428119)
(2.22651 0.0352438 -0.00208179)
(0.628207 0.109805 -0.00591535)
(-0.564913 0.310345 -0.00654877)
(-0.301629 0.54372 -0.00526216)
(2.98627 0.000158542 0.00103901)
(2.9699 0.00100379 0.00164925)
(2.95126 0.000663868 0.00133859)
(2.91675 0.00192228 0.000991557)
(2.84656 0.006275 0.000447219)
(2.68718 0.017478 -0.000421173)
(2.24451 0.0470763 -0.00204189)
(0.688005 0.144988 -0.00582756)
(-0.508717 0.397119 -0.00649924)
(-0.266913 0.662147 -0.0050077)
(2.98647 0.000234015 0.00104623)
(2.97 0.00148431 0.00164588)
(2.95143 0.000800228 0.00129921)
(2.91784 0.00224418 0.000963623)
(2.84955 0.00780208 0.000434491)
(2.6949 0.0224345 -0.00041617)
(2.26809 0.0611107 -0.00199914)
(0.763418 0.18556 -0.00573518)
(-0.441388 0.491348 -0.00646827)
(-0.230047 0.784249 -0.00472221)
(2.98676 0.000313076 0.00105387)
(2.97011 0.00198796 0.00163737)
(2.95157 0.000902144 0.00125414)
(2.91919 0.00257882 0.000932193)
(2.8534 0.00958764 0.000419493)
(2.7049 0.0283018 -0.000412426)
(2.29808 0.0775983 -0.00195402)
(0.857755 0.231928 -0.00564217)
(-0.361862 0.596164 -0.00645408)
(-0.192894 0.913216 -0.004505)
(2.98713 0.000379575 0.00106217)
(2.97021 0.00241062 0.00162469)
(2.9517 0.000955088 0.00119724)
(2.92086 0.00296867 0.000892452)
(2.85829 0.0116813 0.000400351)
(2.71762 0.0350543 -0.000408777)
(2.33557 0.09647 -0.00190375)
(0.975922 0.285258 -0.00553519)
(-0.267317 0.717717 -0.00647389)
(-0.154848 1.05383 -0.00421939)
(2.98756 0.000422163 0.0010709)
(2.97031 0.00268816 0.00160781)
(2.95184 0.00107547 0.00112939)
(2.92293 0.00365358 0.000845377)
(2.86434 0.0143524 0.000378297)
(2.73345 0.0428116 -0.000404465)
(2.38283 0.11679 -0.00185336)
(1.1337 0.33853 -0.0054609)
(-0.150749 0.863031 -0.00656402)
(-0.118151 1.21094 -0.00422821)
(2.98599 4.56281e-06 -0.00102671)
(2.96971 2.84512e-05 -0.00164823)
(2.95071 4.21101e-05 -0.00141408)
(2.91437 0.000149739 -0.00104342)
(2.84039 0.000444703 -0.000467884)
(2.67178 0.00116238 0.000437765)
(2.19727 0.00293821 0.00210946)
(0.539585 0.00865891 0.00598097)
(-0.65588 0.0222836 0.00673576)
(-0.422424 0.0755945 0.00619151)
(2.986 1.57797e-05 -0.00102701)
(2.96972 9.90945e-05 -0.00164815)
(2.95075 0.000105878 -0.00140986)
(2.9145 0.000423236 -0.00104105)
(2.84073 0.00134779 -0.000467156)
(2.67258 0.00362376 0.000436915)
(2.19943 0.00929958 0.00210975)
(0.541548 0.0275759 0.00599084)
(-0.654723 0.0727322 0.00673485)
(-0.393018 0.171995 0.00609286)
(2.98602 3.22235e-05 -0.00102791)
(2.96974 0.000202819 -0.00164797)
(2.95082 0.000178817 -0.00140206)
(2.91479 0.000718417 -0.00103547)
(2.84146 0.00235057 -0.000464402)
(2.67432 0.00640367 0.000436293)
(2.20442 0.0167122 0.00211459)
(0.553248 0.051189 0.00601173)
(-0.641167 0.143774 0.00669454)
(-0.362932 0.296948 0.00583073)
(2.98607 5.75691e-05 -0.00102979)
(2.96977 0.000362606 -0.00164784)
(2.95094 0.000310524 -0.00138898)
(2.91525 0.00110012 -0.00102621)
(2.84263 0.00352223 -0.000460218)
(2.6772 0.00956581 0.000434098)
(2.21327 0.0252851 0.00210965)
(0.582381 0.0789398 0.00599408)
(-0.610229 0.225928 0.00662497)
(-0.333905 0.42398 0.00554125)
(2.98614 9.79773e-05 -0.00103317)
(2.96983 0.000618993 -0.00164771)
(2.95109 0.00048417 -0.00136837)
(2.9159 0.00152534 -0.00101176)
(2.8443 0.00484472 -0.000454287)
(2.68141 0.0132164 0.000429514)
(2.2265 0.0352593 0.00208254)
(0.628253 0.109867 0.00591707)
(-0.564805 0.31022 0.00655205)
(-0.301287 0.543902 0.00525034)
(2.98627 0.000158082 -0.00103856)
(2.96991 0.00100052 -0.00164709)
(2.95127 0.000657894 -0.00133609)
(2.91676 0.00191346 -0.000989245)
(2.84656 0.0062631 -0.000445245)
(2.68719 0.0174628 0.00042266)
(2.2445 0.0470587 0.00204233)
(0.688026 0.144978 0.00582592)
(-0.508644 0.397034 0.00650108)
(-0.266726 0.662365 0.00499882)
(2.98648 0.000233683 -0.00104586)
(2.97001 0.00148188 -0.00164417)
(2.95144 0.000795514 -0.00129701)
(2.91784 0.00223698 -0.000961671)
(2.84955 0.00779225 -0.000432987)
(2.6949 0.022422 0.000416839)
(2.26807 0.0610972 0.00199756)
(0.763436 0.185549 0.0057272)
(-0.441321 0.491288 0.00646829)
(-0.229966 0.784492 0.0047185)
(2.98676 0.000312853 -0.00105352)
(2.97011 0.00198632 -0.00163598)
(2.95158 0.000898231 -0.00125229)
(2.91919 0.0025728 -0.00093056)
(2.8534 0.00958043 -0.000418268)
(2.7049 0.0282956 0.000412834)
(2.29807 0.0775988 0.00195227)
(0.857758 0.231943 0.00563392)
(-0.361802 0.596117 0.00645196)
(-0.192848 0.913508 0.00450457)
(2.98714 0.000379398 -0.00106186)
(2.97022 0.00240938 -0.00162354)
(2.9517 0.000951874 -0.00119573)
(2.92087 0.00296389 -0.000891075)
(2.8583 0.0116761 -0.000399229)
(2.71762 0.0350514 0.00040938)
(2.33556 0.0964761 0.00190297)
(0.9759 0.285285 0.00552975)
(-0.267275 0.717675 0.00646884)
(-0.1548 1.05419 0.00422129)
(2.98756 0.000421994 -0.00107063)
(2.97032 0.00268706 -0.00160682)
(2.95184 0.00107284 -0.00112813)
(2.92293 0.00364967 -0.000844168)
(2.86434 0.014348 -0.000377189)
(2.73345 0.0428083 0.000405356)
(2.38283 0.116793 0.00185362)
(1.13365 0.338552 0.00545845)
(-0.150736 0.86301 0.0065548)
(-0.118097 1.21141 0.00422879)
(2.97618 1.37426e-06 -0.00240747)
(2.95976 2.60433e-05 -0.00254818)
(2.9445 7.98197e-05 -0.00199909)
(2.91383 0.000207913 -0.00105484)
(2.84795 0.000510871 0.000547667)
(2.69346 0.00121902 0.00321458)
(2.2516 0.00298548 0.00828111)
(0.661304 0.00884651 0.0202672)
(-0.526205 0.0229917 0.0223173)
(-0.317857 0.0619409 0.021049)
(2.97619 3.66872e-06 -0.00240741)
(2.95979 9.15394e-05 -0.00254775)
(2.94456 0.000220631 -0.00199439)
(2.91398 0.000611534 -0.00105198)
(2.84829 0.00156777 0.000547574)
(2.69427 0.00380705 0.00320893)
(2.25376 0.0094604 0.00826732)
(0.663937 0.0281838 0.0202501)
(-0.528194 0.0725324 0.0222986)
(-0.299078 0.152458 0.0206034)
(2.97621 4.44547e-06 -0.00240742)
(2.95983 0.000182684 -0.00254733)
(2.94467 0.00037867 -0.00198121)
(2.91428 0.0010621 -0.00104452)
(2.84901 0.00276037 0.000547514)
(2.69602 0.00674475 0.00319823)
(2.25893 0.0169128 0.00824126)
(0.675942 0.0513374 0.0203076)
(-0.517321 0.142277 0.022166)
(-0.275643 0.270409 0.0198195)
(2.97625 4.77953e-06 -0.00240807)
(2.95991 0.000317591 -0.00254731)
(2.94485 0.000620105 -0.00195881)
(2.91476 0.00164562 -0.00103158)
(2.85015 0.00417953 0.000547702)
(2.69884 0.0101266 0.00317948)
(2.26762 0.0253679 0.00818151)
(0.704112 0.0774571 0.0202418)
(-0.489343 0.222812 0.0219119)
(-0.252191 0.392704 0.0190071)
(2.97632 1.0857e-05 -0.0024098)
(2.96004 0.000545 -0.00254811)
(2.94511 0.000968844 -0.00192372)
(2.91544 0.00238685 -0.00101036)
(2.85178 0.00588781 0.000550026)
(2.70293 0.0141345 0.00315357)
(2.2803 0.0353496 0.00807711)
(0.748178 0.107148 0.0200134)
(-0.446815 0.306314 0.0216146)
(-0.225818 0.509411 0.0181835)
(2.97644 3.43755e-05 -0.00241248)
(2.96024 0.000921055 -0.00254982)
(2.94546 0.00133555 -0.0018677)
(2.91636 0.00310996 -0.000975636)
(2.85402 0.00772873 0.000557057)
(2.70859 0.0188079 0.00312126)
(2.29784 0.0473975 0.00793697)
(0.807803 0.141923 0.0196953)
(-0.392032 0.393315 0.0213534)
(-0.196925 0.625903 0.0174311)
(2.97664 9.72463e-05 -0.00241462)
(2.96048 0.00148139 -0.00255086)
(2.94583 0.00169977 -0.00179845)
(2.91753 0.00377002 -0.000928938)
(2.85698 0.00968856 0.000571758)
(2.71614 0.024249 0.00308772)
(2.32075 0.0618427 0.00777347)
(0.883325 0.182605 0.01934)
(-0.325555 0.488265 0.0211449)
(-0.165792 0.746621 0.0166253)
(2.97695 0.000179469 -0.0024083)
(2.96076 0.00210622 -0.00254424)
(2.94621 0.00213168 -0.00171706)
(2.91897 0.00458659 -0.000870631)
(2.86081 0.0120624 0.000593322)
(2.72592 0.0307391 0.00305158)
(2.34983 0.0788438 0.00759032)
(0.977567 0.229114 0.0189998)
(-0.246324 0.594165 0.0209824)
(-0.133133 0.875197 0.0159356)
(2.97736 0.000244729 -0.00239643)
(2.96111 0.00263205 -0.00253227)
(2.94664 0.0025497 -0.00161155)
(2.92078 0.00552759 -0.000794339)
(2.86567 0.0148039 0.00062375)
(2.73837 0.0381222 0.0030132)
(2.38626 0.0982351 0.00738872)
(1.09598 0.282944 0.0185866)
(-0.151958 0.717635 0.0209338)
(-0.0994718 1.01621 0.0152008)
(2.97785 0.000291854 -0.00237982)
(2.9615 0.00302405 -0.00251417)
(2.94715 0.00299797 -0.0014835)
(2.92299 0.00665744 -0.000701974)
(2.87168 0.0178711 0.000661356)
(2.75393 0.0459006 0.00297512)
(2.43269 0.117516 0.00718631)
(1.25762 0.332767 0.0182462)
(-0.0334111 0.861524 0.0210559)
(-0.0648184 1.17415 0.0151109)
(2.97281 4.83776e-06 -0.000714494)
(2.96474 3.07731e-05 0.00226672)
(2.95807 9.19166e-05 0.00344609)
(2.93827 0.000226413 0.0051659)
(2.88854 0.000522182 0.00773534)
(2.76107 0.00119083 0.0119022)
(2.36888 0.00291258 0.0205954)
(0.848887 0.00864987 0.0439028)
(-0.320679 0.0259094 0.0460831)
(-0.203326 0.0453866 0.0458572)
(2.97282 2.00771e-05 -0.000713166)
(2.96477 0.000111433 0.00226717)
(2.95813 0.000302794 0.00344688)
(2.93841 0.000712063 0.00516586)
(2.88884 0.00161161 0.00773224)
(2.76177 0.00367211 0.0118823)
(2.37057 0.00900181 0.0205746)
(0.853034 0.028743 0.043818)
(-0.324064 0.073596 0.0461156)
(-0.1689 0.120446 0.0444777)
(2.97284 3.44034e-05 -0.000709602)
(2.96483 0.000211124 0.00226728)
(2.95826 0.000554999 0.00345144)
(2.93869 0.00127485 0.00516447)
(2.88947 0.00285094 0.00771998)
(2.76336 0.00647804 0.0118537)
(2.37643 0.0158782 0.0204469)
(0.870544 0.0511925 0.0438085)
(-0.315631 0.139607 0.0458709)
(-0.153628 0.2276 0.0432373)
(2.97288 4.36874e-05 -0.000704357)
(2.96494 0.00033698 0.00226612)
(2.95848 0.000876019 0.00345958)
(2.93916 0.00197548 0.00516392)
(2.89051 0.00435449 0.00770247)
(2.76589 0.00980188 0.0118036)
(2.3849 0.0238185 0.0202639)
(0.901886 0.0738884 0.0435707)
(-0.290205 0.215036 0.0452181)
(-0.135353 0.3449 0.0418851)
(2.97294 6.83723e-05 -0.000696912)
(2.9651 0.000554109 0.00226221)
(2.95881 0.00135818 0.0034726)
(2.93983 0.00292128 0.00516663)
(2.89201 0.00625117 0.00768321)
(2.76946 0.013863 0.0117372)
(2.39591 0.0333841 0.0200376)
(0.94332 0.100813 0.0430528)
(-0.251992 0.295027 0.044538)
(-0.115243 0.458617 0.0404208)
(2.97305 0.000135389 -0.000685378)
(2.96536 0.000934813 0.00225347)
(2.95927 0.00190207 0.00349473)
(2.94077 0.00394373 0.00517605)
(2.89407 0.00841393 0.0076642)
(2.77446 0.018729 0.0116581)
(2.4113 0.0451956 0.019748)
(0.99982 0.134787 0.0423702)
(-0.200987 0.381363 0.0438068)
(-0.0922026 0.574093 0.0390849)
(2.97323 0.000337578 -0.000666711)
(2.96568 0.00164111 0.00223739)
(2.95979 0.0025857 0.00353823)
(2.94194 0.00508922 0.00519848)
(2.89674 0.0109091 0.00764536)
(2.78103 0.0245549 0.0115601)
(2.43181 0.0596297 0.0193783)
(1.07503 0.175789 0.0415281)
(-0.136614 0.477349 0.0431551)
(-0.0653375 0.695385 0.0375418)
(2.97355 0.000603789 -0.000621213)
(2.96607 0.00248751 0.00222499)
(2.96032 0.00347357 0.00361177)
(2.94334 0.00655088 0.00523171)
(2.9001 0.0139779 0.00761905)
(2.78954 0.0316036 0.0114259)
(2.45848 0.0768883 0.0189039)
(1.17244 0.222382 0.0406444)
(-0.0574233 0.585565 0.0424325)
(-0.0348429 0.82595 0.0362156)
(2.97399 0.000806991 -0.000557883)
(2.96656 0.00318084 0.00221252)
(2.96096 0.00433368 0.00371518)
(2.9451 0.0081242 0.00528022)
(2.9044 0.0174103 0.00759044)
(2.80048 0.0396516 0.0112672)
(2.49194 0.0970677 0.0183679)
(1.29409 0.27737 0.0394693)
(0.0383479 0.712979 0.041888)
(-0.00098573 0.973024 0.034767)
(2.97453 0.000985509 -0.000479266)
(2.96715 0.00377448 0.00220224)
(2.96172 0.00520407 0.00384614)
(2.94726 0.00977003 0.00534344)
(2.90977 0.020871 0.00756167)
(2.81441 0.0473457 0.0110986)
(2.53548 0.115022 0.0177922)
(1.46114 0.322299 0.0383479)
(0.161033 0.855595 0.0413884)
(0.0356939 1.1407 0.0340833)
(3.00394 1.26872e-05 0.0133229)
(3.01136 3.566e-05 0.0199147)
(3.01117 9.64981e-05 0.0219735)
(3.00272 0.000234927 0.0240988)
(2.96865 0.000530489 0.0277697)
(2.86809 0.00107491 0.0342313)
(2.51726 0.00298787 0.0488873)
(0.801097 0.0101801 0.104515)
(-0.311694 0.0269541 0.100376)
(0.473222 -0.0308876 0.0909326)
(3.00395 5.5092e-05 0.013324)
(3.01139 0.000135538 0.0199133)
(3.01121 0.000317814 0.0219742)
(3.00283 0.000718307 0.0240953)
(2.96886 0.00156785 0.027764)
(2.86924 0.0033305 0.0341897)
(2.52001 0.00801351 0.0486364)
(0.909815 0.0289086 0.102777)
(-0.311097 0.0759017 0.102209)
(0.145335 0.0578228 0.0938248)
(3.00397 0.000101236 0.0133273)
(3.01146 0.000248007 0.0199103)
(3.0113 0.000571404 0.0219722)
(3.00304 0.00127075 0.0240826)
(2.96932 0.00273463 0.0277286)
(2.87019 0.00587912 0.0341197)
(2.52485 0.013489 0.0484808)
(0.859128 0.0505113 0.102931)
(-0.34259 0.138051 0.102007)
(0.133293 0.165255 0.0929495)
(3.004 0.000139107 0.0133321)
(3.01157 0.000360811 0.0199045)
(3.01144 0.000874171 0.0219704)
(3.00338 0.00198022 0.0240658)
(2.97015 0.00425442 0.0276778)
(2.87203 0.00900313 0.0340098)
(2.53146 0.0210959 0.0481543)
(0.870476 0.0733046 0.102154)
(-0.333844 0.206754 0.100863)
(0.125608 0.278116 0.0912438)
(3.00405 0.000209729 0.013339)
(3.01173 0.000547936 0.0198939)
(3.01166 0.00132473 0.0219699)
(3.00391 0.00296058 0.0240462)
(2.97142 0.00625898 0.0276133)
(2.87484 0.013119 0.0338656)
(2.53969 0.0306107 0.047701)
(0.93114 0.10053 0.100759)
(-0.289201 0.284065 0.0995269)
(0.118314 0.39261 0.0893393)
(3.00412 0.000347276 0.0133494)
(3.01198 0.000870102 0.0198748)
(3.01197 0.00197557 0.021971)
(3.00464 0.00422469 0.0240245)
(2.97316 0.0087209 0.0275358)
(2.87891 0.0181614 0.0336789)
(2.55202 0.0420399 0.0471606)
(0.992493 0.135883 0.0995799)
(-0.236175 0.371887 0.0979441)
(0.116205 0.510494 0.087213)
(3.00426 0.00072726 0.013363)
(3.01232 0.00162704 0.0198434)
(3.01242 0.00310426 0.0219929)
(3.00563 0.00591571 0.0240048)
(2.97549 0.0116365 0.0274299)
(2.88438 0.0239225 0.0334193)
(2.56923 0.055505 0.0464465)
(1.06418 0.179437 0.0979464)
(-0.175097 0.472911 0.0962783)
(0.117334 0.638498 0.0847984)
(3.00462 0.00122278 0.0133799)
(3.01282 0.00259812 0.0197997)
(3.01303 0.0045215 0.0220368)
(3.00684 0.00798649 0.0239782)
(2.9783 0.0151703 0.0272835)
(2.89186 0.0309551 0.0330444)
(2.59327 0.0722642 0.0453745)
(1.16141 0.230839 0.0952538)
(-0.0975525 0.589047 0.0940986)
(0.119172 0.780577 0.0820546)
(3.00512 0.00160277 0.0134016)
(3.01349 0.0033741 0.0197455)
(3.01383 0.00580162 0.0221021)
(3.00839 0.0101358 0.0239503)
(2.98199 0.0192001 0.0270949)
(2.9016 0.0395584 0.0325604)
(2.62409 0.0936113 0.0440311)
(1.30141 0.293986 0.0916311)
(0.00552167 0.72763 0.091582)
(0.121864 0.945711 0.0792141)
(3.00574 0.00196669 0.0134304)
(3.01433 0.00411748 0.019682)
(3.01482 0.00707079 0.0221899)
(3.01029 0.01232 0.0239236)
(2.98668 0.0232291 0.0268684)
(2.91432 0.0477735 0.031975)
(2.66654 0.111361 0.0424021)
(1.51845 0.336826 0.0863259)
(0.150046 0.876665 0.0887718)
(0.131391 1.1338 0.0765661)
(3.09254 1.19967e-05 0.0762739)
(3.11494 1.95862e-05 0.0829841)
(3.11875 9.20651e-05 0.0851512)
(3.11459 0.000187218 0.086472)
(3.09531 0.000384849 0.0910568)
(3.00557 0.000928638 0.103556)
(2.57294 0.00282156 0.16024)
(1.62846 0.0166462 0.273333)
(0.31174 0.0334077 0.319465)
(0.333213 0.0372179 0.30982)
(3.09255 4.8911e-05 0.076275)
(3.11496 7.22697e-05 0.0829705)
(3.1188 0.00025133 0.0851587)
(3.11467 0.000489929 0.086453)
(3.09555 0.000943562 0.0910695)
(3.00619 0.00220536 0.102929)
(2.5772 0.0072884 0.170707)
(1.6178 0.0120592 0.264911)
(0.336114 0.0658436 0.316818)
(0.338809 0.0878518 0.304806)
(3.09257 8.98975e-05 0.0762902)
(3.11499 0.000131052 0.0829459)
(3.11886 0.000432056 0.0851562)
(3.11477 0.00083192 0.0864291)
(3.09578 0.00155342 0.0909801)