/*--------------------------------*- C++ -*----------------------------------*\
  =========                 |
  \\      /  F ield         | OpenFOAM: The Open Source CFD Toolbox
   \\    /   O peration     | Website:  https://openfoam.org
    \\  /    A nd           | Version:  6.0
     \\/     M anipulation  |
\*---------------------------------------------------------------------------*/
FoamFile
{
    version     2.0;
    format      ascii;
    class       surfaceScalarField;
    location    "0.3";
    object      phi;
}
// * * * * * * * * * * * * * * * * * * * * * * * * * * * * * * * * * * * * * //

dimensions      [0 3 -1 0 0 0 0];

internalField   nonuniform List<scalar> 
370
(
1.79436e-08
-1.79429e-08
-9.83123e-08
1.16256e-07
-3.0178e-07
2.03467e-07
-5.42219e-07
2.40439e-07
-8.05868e-07
2.63648e-07
-1.10142e-06
2.95551e-07
-1.44949e-06
3.48074e-07
-1.87829e-06
4.28793e-07
-2.41994e-06
5.41658e-07
-3.10238e-06
6.82436e-07
-3.93121e-06
8.28834e-07
-4.85881e-06
9.27597e-07
-5.74755e-06
8.88742e-07
-6.35251e-06
6.04953e-07
-6.36108e-06
8.57575e-09
-5.51629e-06
-8.44795e-07
-3.81569e-06
-1.70059e-06
-1.723e-06
-2.09269e-06
-1.94407e-07
-1.5286e-06
-1.94407e-07
-1.62611e-07
1.44667e-07
-6.09453e-07
5.63098e-07
-1.21982e-06
8.13829e-07
-1.91052e-06
9.31143e-07
-2.65656e-06
1.00969e-06
-3.47197e-06
1.11096e-06
-4.39237e-06
1.26847e-06
-5.46156e-06
1.49799e-06
-6.71489e-06
1.79498e-06
-8.15373e-06
2.12128e-06
-9.71196e-06
2.38707e-06
-1.1225e-05
2.44062e-06
-1.24218e-05
2.08551e-06
-1.29572e-05
1.14041e-06
-1.24855e-05
-4.63165e-07
-1.07668e-05
-2.56349e-06
-7.82459e-06
-4.64278e-06
-4.18303e-06
-5.73425e-06
-1.07343e-06
-4.6382e-06
-1.26784e-06
-3.93502e-07
5.38169e-07
-1.21425e-06
1.38385e-06
-2.21944e-06
1.81902e-06
-3.29232e-06
2.00403e-06
-4.40111e-06
2.11848e-06
-5.55871e-06
2.26855e-06
-6.79821e-06
2.50797e-06
-8.15445e-06
2.85423e-06
-9.64269e-06
3.28323e-06
-1.12333e-05
3.71191e-06
-1.28296e-05
3.98338e-06
-1.42607e-05
3.8717e-06
-1.52967e-05
3.1215e-06
-1.56792e-05
1.52288e-06
-1.51474e-05
-9.94978e-07
-1.34576e-05
-4.25326e-06
-1.04513e-05
-7.64903e-06
-6.29466e-06
-9.89094e-06
-2.0149e-06
-8.91796e-06
-3.28274e-06
-6.30968e-07
1.16914e-06
-1.80823e-06
2.56111e-06
-3.13879e-06
3.14958e-06
-4.46555e-06
3.33079e-06
-5.74959e-06
3.40252e-06
-6.99858e-06
3.51754e-06
-8.23655e-06
3.74594e-06
-9.48752e-06
4.1052e-06
-1.07601e-05
4.5558e-06
-1.2033e-05
4.98481e-06
-1.32474e-05
5.19781e-06
-1.4311e-05
4.93525e-06
-1.51089e-05
3.9194e-06
-1.55068e-05
1.92081e-06
-1.53279e-05
-1.17382e-06
-1.43049e-05
-5.27628e-06
-1.20544e-05
-9.89955e-06
-8.22842e-06
-1.37169e-05
-3.23537e-06
-1.3911e-05
-6.51811e-06
-8.74284e-07
2.04342e-06
-2.35718e-06
4.04401e-06
-3.89173e-06
4.68413e-06
-5.29242e-06
4.73148e-06
-6.52522e-06
4.63532e-06
-7.59849e-06
4.59081e-06
-8.53166e-06
4.67911e-06
-9.34632e-06
4.91986e-06
-1.00614e-05
5.27089e-06
-1.06906e-05
5.61405e-06
-1.12439e-05
5.75105e-06
-1.17312e-05
5.42255e-06
-1.21623e-05
4.35051e-06
-1.25292e-05
2.28767e-06
-1.27611e-05
-9.41924e-07
-1.2644e-05
-5.3933e-06
-1.17011e-05
-1.08425e-05
-9.14106e-06
-1.6277e-05
-4.44215e-06
-1.86099e-05
-1.09603e-05
-1.15691e-06
3.20033e-06
-2.88057e-06
5.76767e-06
-4.44029e-06
6.24384e-06
-5.67923e-06
5.97043e-06
-6.60884e-06
5.56493e-06
-7.25898e-06
5.24095e-06
-7.65593e-06
5.07606e-06
-7.82464e-06
5.08857e-06
-7.79535e-06
5.2416e-06
-7.61243e-06
5.43113e-06
-7.34309e-06
5.48172e-06
-7.08134e-06
5.16079e-06
-6.94132e-06
4.21049e-06
-7.03471e-06
2.38106e-06
-7.4277e-06
-5.48927e-07
-8.05801e-06
-4.76299e-06
-8.5593e-06
-1.03412e-05
-7.97041e-06
-1.68659e-05
-4.88591e-06
-2.16944e-05
-1.58462e-05
-1.57295e-06
4.77328e-06
-3.43037e-06
7.62509e-06
-4.69007e-06
7.50353e-06
-5.39858e-06
6.67894e-06
-5.69707e-06
5.86342e-06
-5.67061e-06
5.21449e-06
-5.36351e-06
4.76896e-06
-4.8021e-06
4.52716e-06
-4.01357e-06
4.45306e-06
-3.04564e-06
4.46321e-06
-1.98467e-06
4.42074e-06
-9.64881e-07
4.14101e-06
-1.64764e-07
3.41037e-06
2.11391e-07
2.0049e-06
-3.73327e-08
-3.00203e-07
-1.04609e-06
-3.75424e-06
-2.72588e-06
-8.66138e-06
-4.30284e-06
-1.52889e-05
-3.85842e-06
-2.21388e-05
-1.97046e-05
-2.34161e-06
7.11489e-06
-3.87101e-06
9.1545e-06
-4.01532e-06
7.64784e-06
-3.46807e-06
6.13169e-06
-2.61633e-06
5.01168e-06
-1.59093e-06
4.18909e-06
-4.26969e-07
3.60501e-06
8.71612e-07
3.22858e-06
2.30718e-06
3.0175e-06
3.86366e-06
2.90672e-06
5.48082e-06
2.80358e-06
7.03619e-06
2.58563e-06
8.33789e-06
2.10867e-06
9.13139e-06
1.2114e-06
9.11101e-06
-2.7982e-07
7.95552e-06
-2.59876e-06
5.41437e-06
-6.12022e-06
1.7603e-06
-1.16349e-05
-1.09556e-06
-1.9283e-05
-2.08001e-05
-3.44967e-06
1.05646e-05
-1.85943e-06
7.56425e-06
1.15104e-06
4.63737e-06
3.90318e-06
3.37955e-06
6.30193e-06
2.61293e-06
8.44577e-06
2.04525e-06
1.04056e-05
1.64515e-06
1.22481e-05
1.38609e-06
1.40357e-05
1.2299e-06
1.58066e-05
1.13581e-06
1.75516e-05
1.05862e-06
1.91939e-05
9.43337e-07
2.05743e-05
7.28217e-07
2.14425e-05
3.43252e-07
2.1446e-05
-2.83304e-07
2.01181e-05
-1.27093e-06
1.68841e-05
-2.88618e-06
1.12456e-05
-5.99635e-06
3.98664e-06
-1.2024e-05
-1.68135e-05
1.05646e-05
1.81288e-05
2.27662e-05
2.61457e-05
2.87587e-05
3.08039e-05
3.24491e-05
3.38352e-05
3.50651e-05
3.62009e-05
3.72595e-05
3.82028e-05
3.8931e-05
3.92743e-05
3.8991e-05
3.77201e-05
3.48339e-05
2.88375e-05
1.68135e-05
)
;

boundaryField
{
    movingWall
    {
        type            calculated;
        value           uniform 0;
    }
    fixedWalls
    {
        type            calculated;
        value           uniform 0;
    }
    frontAndBack
    {
        type            empty;
        value           nonuniform 0();
    }
}


// ************************************************************************* //
