/*--------------------------------*- C++ -*----------------------------------*\
  =========                 |
  \\      /  F ield         | OpenFOAM: The Open Source CFD Toolbox
   \\    /   O peration     | Website:  https://openfoam.org
    \\  /    A nd           | Version:  6.0
     \\/     M anipulation  |
\*---------------------------------------------------------------------------*/
FoamFile
{
    version     2.0;
    format      ascii;
    class       volVectorField;
    location    "0.3";
    object      U;
}
// * * * * * * * * * * * * * * * * * * * * * * * * * * * * * * * * * * * * * //

dimensions      [0 1 -1 0 0 0 0];

internalField   nonuniform List<vector> 
200
(
(0.000427606 -0.000522457 0)
(-0.000365832 0.000455288 0)
(-0.00372729 0.00117282 0)
(-0.0083061 0.00146869 0)
(-0.0133694 0.00164288 0)
(-0.0189096 0.00188863 0)
(-0.0252561 0.00231076 0)
(-0.032919 0.00299299 0)
(-0.0425341 0.00402007 0)
(-0.0547628 0.00544831 0)
(-0.0700437 0.00720572 0)
(-0.0880835 0.00891471 0)
(-0.107081 0.00972253 0)
(-0.123003 0.00837612 0)
(-0.129759 0.00380427 0)
(-0.121187 -0.00383288 0)
(-0.0947058 -0.0121271 0)
(-0.0550946 -0.0162781 0)
(-0.0168339 -0.011483 0)
(-0.000207993 -0.000418382 0)
(-0.00102076 0.000509063 0)
(-0.00664872 0.00525806 0)
(-0.0176483 0.00837797 0)
(-0.0310213 0.0098577 0)
(-0.0454338 0.0108487 0)
(-0.0609272 0.0121327 0)
(-0.0780934 0.0141551 0)
(-0.097796 0.017189 0)
(-0.120936 0.0213295 0)
(-0.148053 0.0263034 0)
(-0.17871 0.0311231 0)
(-0.21071 0.0337439 0)
(-0.239483 0.0311171 0)
(-0.258218 0.0200888 0)
(-0.259237 -0.000824163 0)
(-0.236467 -0.0293048 0)
(-0.18821 -0.0573669 0)
(-0.119977 -0.0707174 0)
(-0.048996 -0.0537657 0)
(-0.0074869 -0.0110854 0)
(-0.00305663 0.00601763 0)
(-0.0145794 0.0179519 0)
(-0.0335852 0.0247402 0)
(-0.0549313 0.0279169 0)
(-0.07681 0.0300387 0)
(-0.0993355 0.0327465 0)
(-0.123107 0.0369257 0)
(-0.148897 0.0429345 0)
(-0.177347 0.0505022 0)
(-0.208498 0.0583842 0)
(-0.24125 0.0639985 0)
(-0.272925 0.0633862 0)
(-0.299186 0.0518774 0)
(-0.314512 0.0255918 0)
(-0.31314 -0.0165158 0)
(-0.290015 -0.0703393 0)
(-0.241657 -0.123788 0)
(-0.168407 -0.153828 0)
(-0.0816696 -0.12932 0)
(-0.0168303 -0.0411622 0)
(-0.00524081 0.016311 0)
(-0.0226776 0.0382296 0)
(-0.0489143 0.0486593 0)
(-0.076254 0.0527104 0)
(-0.102432 0.0549838 0)
(-0.127626 0.0580628 0)
(-0.152309 0.0632011 0)
(-0.177035 0.0707291 0)
(-0.20225 0.0799282 0)
(-0.227982 0.0886761 0)
(-0.253556 0.093237 0)
(-0.277431 0.0885414 0)
(-0.297259 0.069152 0)
(-0.310107 0.0307714 0)
(-0.312499 -0.0280516 0)
(-0.29985 -0.103822 0)
(-0.26587 -0.184289 0)
(-0.204475 -0.24182 0)
(-0.117633 -0.22763 0)
(-0.0307444 -0.0929537 0)
(-0.00765488 0.0313929 0)
(-0.0306993 0.0651514 0)
(-0.0624792 0.0779022 0)
(-0.0927269 0.0807787 0)
(-0.119072 0.0810879 0)
(-0.141965 0.0823382 0)
(-0.161821 0.086069 0)
(-0.179083 0.0926223 0)
(-0.194236 0.10108 0)
(-0.207729 0.108961 0)
(-0.219912 0.112125 0)
(-0.230982 0.105184 0)
(-0.240952 0.0824338 0)
(-0.249576 0.0390391 0)
(-0.255845 -0.027851 0)
(-0.256573 -0.117547 0)
(-0.244644 -0.221751 0)
(-0.20953 -0.314579 0)
(-0.142582 -0.334054 0)
(-0.046398 -0.171858 0)
(-0.0108272 0.0516787 0)
(-0.0393711 0.097559 0)
(-0.0741686 0.109611 0)
(-0.102945 0.108168 0)
(-0.124408 0.103738 0)
(-0.139918 0.100541 0)
(-0.150124 0.100248 0)
(-0.155514 0.103255 0)
(-0.156672 0.108726 0)
(-0.15442 0.11434 0)
(-0.149963 0.116221 0)
(-0.144926 0.109298 0)
(-0.141269 0.0880374 0)
(-0.141057 0.0472394 0)
(-0.145914 -0.0174289 0)
(-0.155576 -0.10883 0)
(-0.165484 -0.22557 0)
(-0.164673 -0.351326 0)
(-0.135355 -0.423475 0)
(-0.0526262 -0.275486 0)
(-0.0161086 0.0791607 0)
(-0.050577 0.13396 0)
(-0.0837511 0.139462 0)
(-0.103521 0.129475 0)
(-0.112807 0.117551 0)
(-0.11502 0.107894 0)
(-0.111357 0.101839 0)
(-0.102421 0.0996372 0)
(-0.0887257 0.100577 0)
(-0.0710332 0.102774 0)
(-0.0507128 0.103064 0)
(-0.0299619 0.0971999 0)
(-0.0118066 0.0803401 0)
(0.000132635 0.0475411 0)
(0.0020142 -0.00605266 0)
(-0.00922436 -0.0856136 0)
(-0.0342284 -0.196584 0)
(-0.0668352 -0.338339 0)
(-0.0849508 -0.465638 0)
(-0.0352972 -0.379705 0)
(-0.0265216 0.120156 0)
(-0.066589 0.169982 0)
(-0.0837667 0.156434 0)
(-0.0775234 0.133205 0)
(-0.0620271 0.113214 0)
(-0.0426646 0.0977465 0)
(-0.0205119 0.0868015 0)
(0.00421463 0.0800968 0)
(0.0315492 0.0768639 0)
(0.0613938 0.0756695 0)
(0.0930152 0.0742815 0)
(0.124652 0.0696695 0)
(0.153263 0.0582446 0)
(0.174657 0.036089 0)
(0.183467 -0.000919374 0)
(0.174104 -0.0579867 0)
(0.140261 -0.143512 0)
(0.0795509 -0.272183 0)
(0.0101105 -0.431436 0)
(0.0162049 -0.433891 0)
(-0.047783 0.194273 0)
(-0.0640966 0.186462 0)
(-0.00921485 0.133831 0)
(0.050735 0.10229 0)
(0.103065 0.08134 0)
(0.148619 0.0658212 0)
(0.189522 0.0545801 0)
(0.227318 0.0470329 0)
(0.263312 0.0424077 0)
(0.298535 0.0397116 0)
(0.333302 0.0376723 0)
(0.366883 0.0346369 0)
(0.396951 0.0286528 0)
(0.419831 0.0174625 0)
(0.429417 -0.00128655 0)
(0.418915 -0.030998 0)
(0.377001 -0.0772744 0)
(0.294167 -0.159418 0)
(0.170391 -0.300043 0)
(0.122963 -0.370531 0)
(0.242641 0.128096 0)
(0.295145 0.113425 0)
(0.400897 0.0787316 0)
(0.489705 0.0558752 0)
(0.552331 0.0411257 0)
(0.598209 0.030789 0)
(0.634255 0.0234033 0)
(0.664049 0.0182547 0)
(0.689788 0.0147887 0)
(0.713029 0.0124985 0)
(0.734528 0.010891 0)
(0.754229 0.00941846 0)
(0.770612 0.00748484 0)
(0.781499 0.0044229 0)
(0.78187 -0.000499439 0)
(0.767747 -0.00805086 0)
(0.726053 -0.0204124 0)
(0.652188 -0.0405472 0)
(0.499383 -0.0880675 0)
(0.372435 -0.139922 0)
)
;

boundaryField
{
    movingWall
    {
        type            fixedValue;
        value           uniform (1 0 0);
    }
    fixedWalls
    {
        type            noSlip;
    }
    frontAndBack
    {
        type            empty;
    }
}


// ************************************************************************* //
