1.275 	2.15223e-18 	-2.76991e-20 	-0.032578 	-0.000473645 	-2.0535e-22
1.825 	2.15223e-18 	-1.39322e-20 	-0.00670481 	-0.00314854 	1.79933e-21
2.375 	2.15223e-18 	-2.66896e-23 	0.141849 	-0.00418988 	-7.35317e-22
