/*--------------------------------*- C++ -*----------------------------------*\
  =========                 |
  \\      /  F ield         | OpenFOAM: The Open Source CFD Toolbox
   \\    /   O peration     | Website:  https://openfoam.org
    \\  /    A nd           | Version:  6.0
     \\/     M anipulation  |
\*---------------------------------------------------------------------------*/
FoamFile
{
    version     2.0;
    format      ascii;
    class       surfaceScalarField;
    location    "8";
    object      phi;
}
// * * * * * * * * * * * * * * * * * * * * * * * * * * * * * * * * * * * * * //

dimensions      [0 3 -1 0 0 0 0];

internalField   nonuniform List<scalar> 
15760
(
-2.27725e-06
2.2735e-06
3.75014e-09
-7.85788e-06
5.57073e-06
9.89967e-09
-1.57695e-05
7.89665e-06
1.50191e-08
-2.52279e-05
9.43907e-06
1.93173e-08
-3.56005e-05
1.03496e-05
2.29386e-08
-4.63804e-05
1.07539e-05
2.59937e-08
-5.71652e-05
1.07562e-05
2.85708e-08
-6.76401e-05
1.04442e-05
3.07408e-08
-7.7565e-05
9.89227e-06
3.25602e-08
-8.67637e-05
9.16464e-06
3.4075e-08
-9.51165e-05
8.31747e-06
3.5325e-08
-0.000102553
7.40037e-06
3.63446e-08
-0.000109048
6.45747e-06
3.71614e-08
-0.000114614
5.52799e-06
3.78006e-08
-0.000119298
4.6466e-06
3.82879e-08
-0.000123181
3.84355e-06
3.86436e-08
-0.000126364
3.14451e-06
3.88875e-08
-0.000128974
2.57058e-06
3.90394e-08
-0.000131152
2.13947e-06
3.91171e-08
1.86632e-06
3.91273e-08
-0.000133058
-2.25753e-06
4.53104e-06
-7.7789e-06
1.10921e-05
-1.55927e-05
1.57104e-05
-2.49161e-05
1.87625e-05
-3.51182e-05
2.05517e-05
-4.56931e-05
2.13288e-05
-5.62391e-05
2.13022e-05
-6.6441e-05
2.06461e-05
-7.60576e-05
1.95089e-05
-8.49113e-05
1.80183e-05
-9.28801e-05
1.62862e-05
-9.98912e-05
1.44115e-05
-0.000105916
1.24823e-05
-0.000110965
1.05774e-05
-0.000115085
8.76638e-06
-0.000118352
7.1105e-06
-0.00012087
5.66185e-06
-0.000122762
4.46349e-06
-0.000124175
3.55181e-06
2.95782e-06
-0.000125266
-2.21784e-06
6.74888e-06
-7.61991e-06
1.64942e-05
-1.52369e-05
2.33274e-05
-2.42893e-05
2.78149e-05
-3.41493e-05
3.04117e-05
-4.43139e-05
3.14934e-05
-5.43823e-05
3.13706e-05
-6.40394e-05
3.03032e-05
-7.30421e-05
2.85116e-05
-8.12094e-05
2.61857e-05
-8.8415e-05
2.34919e-05
-9.45812e-05
2.05777e-05
-9.9674e-05
1.75752e-05
-0.000103699
1.46025e-05
-0.000106698
1.17655e-05
-0.000108745
9.1573e-06
-0.000109941
6.85799e-06
-0.000110412
4.93443e-06
-0.000110304
3.44358e-06
2.4339e-06
-0.00010978
-2.15769e-06
8.90657e-06
-7.37896e-06
2.17154e-05
-1.4698e-05
3.06465e-05
-2.3341e-05
3.64579e-05
-3.26858e-05
3.97565e-05
-4.22337e-05
4.10413e-05
-5.15867e-05
4.07235e-05
-6.04296e-05
3.91461e-05
-6.85172e-05
3.65992e-05
-7.56641e-05
3.33326e-05
-8.17376e-05
2.95654e-05
-8.66524e-05
2.54925e-05
-9.03663e-05
2.12891e-05
-9.28773e-05
1.71135e-05
-9.42199e-05
1.31082e-05
-9.44629e-05
9.40033e-06
-9.37053e-05
6.10038e-06
-9.20727e-05
3.30176e-06
-8.97142e-05
1.08512e-06
-4.8108e-07
-8.67992e-05
-2.07618e-06
1.09827e-05
-7.05261e-06
2.66919e-05
-1.39692e-05
3.75631e-05
-2.20606e-05
4.45493e-05
-3.07134e-05
4.84093e-05
-3.94361e-05
4.9764e-05
-4.78352e-05
4.91227e-05
-5.55972e-05
4.69081e-05
-6.24747e-05
4.34766e-05
-6.8277e-05
3.91349e-05
-7.28635e-05
3.41518e-05
-7.61385e-05
2.87676e-05
-7.8049e-05
2.31995e-05
-7.85814e-05
1.76459e-05
-7.77608e-05
1.22875e-05
-7.5648e-05
7.28752e-06
-7.23376e-05
2.79005e-06
-6.7955e-05
-1.08093e-06
-6.26533e-05
-4.21656e-06
-6.52439e-06
-5.661e-05
-1.97187e-06
1.29546e-05
-6.63548e-06
3.13555e-05
-1.30393e-05
4.39669e-05
-2.04306e-05
5.19405e-05
-2.82087e-05
5.61874e-05
-3.58931e-05
5.74484e-05
-4.30981e-05
5.63277e-05
-4.95136e-05
5.33236e-05
-5.48914e-05
4.88545e-05
-5.90357e-05
4.32791e-05
-6.17963e-05
3.69125e-05
-6.30655e-05
3.00368e-05
-6.27757e-05
2.29097e-05
-6.08986e-05
1.57689e-05
-5.74454e-05
8.83434e-06
-5.24661e-05
2.30822e-06
-4.60484e-05
-3.62766e-06
-3.83159e-05
-8.81346e-06
-2.94266e-05
-1.31058e-05
-1.63825e-05
-1.95685e-05
-1.84257e-06
1.47972e-05
-6.11967e-06
3.56326e-05
-1.18924e-05
4.97396e-05
-1.84257e-05
5.84738e-05
-2.51369e-05
6.28987e-05
-3.15617e-05
6.38731e-05
-3.73262e-05
6.20922e-05
-4.21277e-05
5.81251e-05
-4.57194e-05
5.24462e-05
-4.79014e-05
4.54611e-05
-4.8514e-05
3.75251e-05
-4.74352e-05
2.8958e-05
-4.458e-05
2.00545e-05
-3.99012e-05
1.10901e-05
-3.33917e-05
2.32479e-06
-2.50858e-05
-5.99772e-06
-1.50606e-05
-1.36528e-05
-3.43605e-06
-2.0438e-05
9.62504e-06
-2.61669e-05
-3.06788e-05
2.39214e-05
-1.68517e-06
1.64824e-05
-5.49428e-06
3.94417e-05
-1.05064e-05
5.47518e-05
-1.60106e-05
6.3978e-05
-2.14489e-05
6.8337e-05
-2.63792e-05
6.88033e-05
-3.04457e-05
6.61588e-05
-3.33579e-05
6.10373e-05
-3.4875e-05
5.39633e-05
-3.47954e-05
4.53815e-05
-3.29512e-05
3.56808e-05
-2.92053e-05
2.52121e-05
-2.34526e-05
1.43018e-05
-1.56227e-05
3.26018e-06
-5.68424e-06
-7.61365e-06
6.34981e-06
-1.80318e-05
2.04183e-05
-2.77213e-05
3.64086e-05
-3.64283e-05
5.41542e-05
-4.39125e-05
-4.99624e-05
7.34377e-05
-1.49558e-06
1.79779e-05
-4.74514e-06
4.26912e-05
-8.85286e-06
5.88595e-05
-1.31394e-05
6.82645e-05
-1.70792e-05
7.22769e-05
-2.02602e-05
7.19843e-05
-2.23523e-05
6.82508e-05
-2.30842e-05
6.17693e-05
-2.22273e-05
5.31064e-05
-1.95837e-05
4.27379e-05
-1.49802e-05
3.10773e-05
-8.26602e-06
1.84979e-05
6.85829e-07
5.34992e-06
1.19733e-05
-8.02734e-06
2.56582e-05
-2.12985e-05
4.17566e-05
-3.41302e-05
6.0231e-05
-4.61957e-05
8.09824e-05
-5.71796e-05
0.000103843
-6.67728e-05
-7.46957e-05
0.000128576
-1.2687e-06
1.92466e-05
-3.85496e-06
4.52775e-05
-6.89669e-06
6.19013e-05
-9.75503e-06
7.11228e-05
-1.19456e-05
7.44674e-05
-1.30949e-05
7.31337e-05
-1.29077e-05
6.80636e-05
-1.11414e-05
6.00029e-05
-7.588e-06
4.9553e-05
-2.06168e-06
3.72116e-05
5.60948e-06
2.34062e-05
1.55863e-05
8.5211e-06
2.80167e-05
-7.08048e-06
4.30293e-05
-2.304e-05
6.07231e-05
-3.89922e-05
8.1153e-05
-5.45601e-05
0.000104316
-6.93585e-05
0.000130135
-8.29989e-05
0.000158447
-9.50848e-05
-0.000105244
0.000188995
-9.98625e-07
2.02453e-05
-2.80388e-06
4.70827e-05
-4.59781e-06
6.36952e-05
-5.79147e-06
7.23165e-05
-5.95069e-06
7.46266e-05
-4.75039e-06
7.19334e-05
-1.93988e-06
6.52531e-05
2.68371e-06
5.53793e-05
9.29557e-06
4.29412e-05
1.80581e-05
2.84491e-05
2.9131e-05
1.23333e-05
4.26765e-05
-5.02437e-06
5.88586e-05
-2.32627e-05
7.7837e-05
-4.20184e-05
9.97535e-05
-6.09086e-05
0.000124713
-7.95198e-05
0.000152761
-9.74068e-05
0.000183859
-0.000114097
0.000217857
-0.000129083
-0.000141865
0.000254478
-6.78991e-07
2.09243e-05
-1.57086e-06
4.79746e-05
-1.91351e-06
6.40378e-05
-1.17747e-06
7.15804e-05
1.01243e-06
7.24367e-05
4.9238e-06
6.8022e-05
1.07521e-05
5.94247e-05
1.86484e-05
4.74831e-05
2.87409e-05
3.28487e-05
4.11527e-05
1.60373e-05
5.6015e-05
-2.5291e-06
7.34763e-05
-2.24857e-05
9.37053e-05
-4.34917e-05
0.000116887
-6.51998e-05
0.000143208
-8.72296e-05
0.000172835
-0.000109147
0.00020588
-0.000130453
0.000242366
-0.000150582
0.000282172
-0.000168889
-0.000184698
0.000325005
-3.03629e-07
2.12279e-05
-1.35732e-07
4.78067e-05
1.19735e-06
6.27048e-05
4.15684e-06
6.86209e-05
9.05151e-06
6.75421e-05
1.60839e-05
6.09897e-05
2.53849e-05
5.01237e-05
3.70416e-05
3.58263e-05
5.11199e-05
1.87704e-05
6.76842e-05
-5.27004e-07
8.68151e-05
-2.166e-05
0.000108624
-4.42942e-05
0.000133261
-6.81292e-05
0.000160921
-9.28599e-05
0.000191831
-0.000118139
0.000226224
-0.00014354
0.000264305
-0.000168533
0.000306183
-0.00019246
0.000351804
-0.000214509
-0.00023376
0.000400866
1.32613e-07
2.10953e-05
1.518e-06
4.64213e-05
4.76869e-06
5.94541e-05
1.02706e-05
6.31191e-05
1.82613e-05
5.95514e-05
2.88737e-05
5.03773e-05
4.21681e-05
3.68293e-05
5.81581e-05
1.98363e-05
7.68327e-05
9.58583e-08
9.8177e-05
-2.18714e-05
0.000122194
-4.56769e-05
0.000148924
-7.10246e-05
0.000178466
-9.76714e-05
0.00021099
-0.000125383
0.000246738
-0.000153887
0.000286009
-0.000182812
0.000329116
-0.000211639
0.000376303
-0.000239648
0.00042763
-0.000265836
-0.000288945
0.000482815
6.32857e-07
2.04624e-05
3.39981e-06
4.36544e-05
8.82031e-06
5.40336e-05
1.72003e-05
5.4739e-05
2.87055e-05
4.80462e-05
4.33992e-05
3.56836e-05
6.12705e-05
1.89579e-05
8.22559e-05
-1.14909e-06
0.000106258
-2.39064e-05
0.000133166
-4.87794e-05
0.000162877
-7.53877e-05
0.000195322
-0.000103469
0.000230496
-0.000132845
0.000268488
-0.000163376
0.000309505
-0.000194904
0.000353878
-0.000227184
0.000402029
-0.000259791
0.000454394
-0.000292012
0.000511225
-0.000322668
-0.000350045
0.000572325
1.19716e-06
1.92653e-05
5.50869e-06
3.93429e-05
1.33506e-05
4.61917e-05
2.49474e-05
4.31422e-05
4.03961e-05
3.25976e-05
5.96971e-05
1.63826e-05
8.27753e-05
-4.12038e-06
0.000109496
-2.78699e-05
0.000139678
-5.40882e-05
0.000173107
-8.22083e-05
0.000209555
-0.000111836
0.000248808
-0.000142722
0.000290698
-0.000174735
0.000335153
-0.000207831
0.000382249
-0.000242
0.000432259
-0.000277194
0.000485674
-0.000313206
0.000543151
-0.00034949
0.000605277
-0.000384794
-0.000416772
0.000672004
1.82164e-06
1.74436e-05
7.83026e-06
3.33342e-05
1.83301e-05
3.56919e-05
3.34656e-05
2.80066e-05
5.32727e-05
1.27904e-05
7.77012e-05
-8.04584e-06
0.000106628
-3.30473e-05
0.000139866
-6.11079e-05
0.000177168
-9.13903e-05
0.000218233
-0.000123273
0.000262713
-0.000156316
0.000310232
-0.000190242
0.000360416
-0.000224919
0.000412944
-0.000260358
0.000467625
-0.000296681
0.000524504
-0.000334073
0.000583973
-0.000372675
0.000646845
-0.000412362
0.00071418
-0.000452128
-0.000488876
0.000786284
2.49801e-06
1.49456e-05
1.03351e-05
2.54971e-05
2.36976e-05
2.23294e-05
4.26531e-05
9.05112e-06
6.71865e-05
-1.17429e-05
9.72133e-05
-3.80726e-05
0.000132587
-6.84206e-05
0.000173098
-0.000101619
0.000218473
-0.000136765
0.000268368
-0.000173168
0.000322362
-0.000210311
0.000379958
-0.000247837
0.000440584
-0.000285546
0.00050363
-0.000323404
0.00056851
-0.000361561
0.000634792
-0.000400355
0.000702404
-0.000440287
0.000771937
-0.000481894
0.000844832
-0.000525023
-0.000567239
0.000923194
3.21378e-06
1.17318e-05
1.29795e-05
1.57314e-05
2.93608e-05
5.9481e-06
5.23516e-05
-1.39396e-05
8.18946e-05
-4.12859e-05
0.000117888
-7.40661e-05
0.000160187
-0.000110719
0.000208599
-0.000150031
0.000262878
-0.000191045
0.000322713
-0.000233003
0.000387708
-0.000275307
0.000457365
-0.000317494
0.000531052
-0.000359232
0.000607983
-0.000400335
0.000687215
-0.000440793
0.000767701
-0.000480841
0.000848469
-0.000521056
0.000929072
-0.000562497
0.00101064
-0.000606589
-0.000656903
0.0011003
3.95322e-06
7.77861e-06
1.57082e-05
3.97638e-06
3.52021e-05
-1.35458e-05
6.23549e-05
-4.10924e-05
9.7072e-05
-7.6003e-05
0.000139244
-0.000116238
0.000188746
-0.000160221
0.000245434
-0.000206719
0.000309144
-0.000254755
0.000379682
-0.000303541
0.000456816
-0.000352441
0.000540259
-0.000400936
0.000629641
-0.000448615
0.000724473
-0.000495167
0.000824087
-0.000540408
0.000927595
-0.000584349
0.00103385
-0.000627306
0.00114128
-0.000669935
0.00124867
-0.000713979
-0.000761846
0.00135362
4.69914e-06
3.07947e-06
1.84607e-05
-9.78515e-06
4.10908e-05
-3.6176e-05
7.24306e-05
-7.24322e-05
0.000112343
-0.000115916
0.000160708
-0.000164603
0.00021742
-0.000216933
0.00028239
-0.000271689
0.000355551
-0.000327915
0.000436866
-0.000384856
0.000526346
-0.000441921
0.00062408
-0.000498669
0.00073028
-0.000554816
0.000845379
-0.000610265
0.000970179
-0.000665209
0.00110614
-0.00072031
0.00125587
-0.000777036
0.00142429
-0.000838351
0.00162121
-0.000910899
-0.0010115
0.00187086
5.43508e-06
-2.35561e-06
2.11777e-05
-2.55278e-05
4.68976e-05
-6.18958e-05
8.23458e-05
-0.00010788
0.000127328
-0.000160898
0.000181693
-0.000218968
0.00024533
-0.00028057
0.000318169
-0.000344528
0.000400191
-0.000409937
0.000491442
-0.000476107
0.000592061
-0.00054254
0.000702312
-0.000608921
0.000822639
-0.000675142
0.000953732
-0.000741358
0.00109661
-0.000808088
0.00125269
-0.000876384
0.00142373
-0.000948082
0.00161162
-0.00102624
0.00181673
-0.001116
-0.00122509
0.00203032
6.1474e-06
-8.503e-06
2.38096e-05
-4.319e-05
5.25124e-05
-9.05986e-05
9.19013e-05
-0.000147269
0.000141702
-0.000210698
0.0002017
-0.000278967
0.000271736
-0.000350606
0.000351701
-0.000424493
0.00044154
-0.000499777
0.000541265
-0.000575833
0.000650964
-0.000652239
0.000770815
-0.000728771
0.000901096
-0.000805423
0.00104218
-0.000882442
0.00119449
-0.000960395
0.00135836
-0.00104025
0.00153376
-0.00112349
0.00171972
-0.0012122
0.00191297
-0.00130925
-0.00141756
0.00210544
6.82685e-06
-1.53298e-05
2.63203e-05
-6.26834e-05
5.78543e-05
-0.000122133
0.00010095
-0.000190366
0.000155227
-0.000264975
0.000220374
-0.000344113
0.000296135
-0.000426367
0.000382303
-0.00051066
0.00047871
-0.000596184
0.00058523
-0.000682353
0.000701773
-0.000768781
0.000828269
-0.000855268
0.000964651
-0.000941805
0.00111079
-0.00102859
0.00126643
-0.00111603
0.00143096
-0.00120478
0.00160322
-0.00129575
0.00178109
-0.00139007
0.00196091
-0.00148907
-0.00159377
0.00213712
7.46889e-06
-2.27987e-05
2.86896e-05
-8.39041e-05
6.28754e-05
-0.000156318
0.000109406
-0.000236896
0.000167768
-0.000323337
0.00023752
-0.000413866
0.000318275
-0.000507122
0.000409676
-0.000602062
0.000511392
-0.000697899
0.000623098
-0.00079406
0.000744465
-0.000890147
0.000875128
-0.000985931
0.00101465
-0.00108133
0.00116247
-0.0011764
0.0013178
-0.00127135
0.00147949
-0.00136648
0.00164594
-0.0014622
0.00181481
-0.00155895
0.00198295
-0.00165721
-0.00175722
0.00214641
8.07306e-06
-3.08718e-05
3.09111e-05
-0.000106742
6.75572e-05
-0.000192965
0.000117233
-0.000286571
0.000179271
-0.000385375
0.000253077
-0.000487672
0.000338099
-0.000592144
0.000433809
-0.000697772
0.00053968
-0.00080377
0.000655171
-0.000909551
0.000779705
-0.00101468
0.000912642
-0.00111887
0.00105324
-0.00122193
0.00120061
-0.00132378
0.00135367
-0.0014244
0.00151102
-0.00152384
0.00167096
-0.00162213
0.00183133
-0.00171932
0.00198956
-0.00181544
-0.00191032
0.00214265
8.64167e-06
-3.95135e-05
3.29879e-05
-0.000131088
7.19018e-05
-0.000231879
0.000124432
-0.000339102
0.000189743
-0.000450685
0.000267067
-0.000564997
0.000355676
-0.000680754
0.000454853
-0.000796948
0.000563871
-0.000912789
0.000681978
-0.00102766
0.000808374
-0.00114108
0.000942188
-0.00125268
0.00108245
-0.00136219
0.00122808
-0.00146941
0.00137782
-0.00157414
0.00153024
-0.00167625
0.00168366
-0.00177556
0.00183621
-0.00187187
0.00198577
-0.00196499
-0.00205455
0.00213
9.17827e-06
-4.86917e-05
3.4928e-05
-0.000156838
7.59219e-05
-0.000272872
0.000131025
-0.000394205
0.000199219
-0.000518879
0.000279556
-0.000645334
0.000371121
-0.000772319
0.000473009
-0.000898836
0.000584302
-0.00102408
0.000704053
-0.00114741
0.000831272
-0.0012683
0.000964912
-0.00138632
0.00110385
-0.00150114
0.00124689
-0.00161244
0.00139271
-0.00171996
0.0015399
-0.00182344
0.00168693
-0.00192258
0.00183215
-0.0020171
0.00197382
-0.00210666
-0.0021908
0.00211006
9.6862e-06
-5.83779e-05
3.67395e-05
-0.000183891
7.96312e-05
-0.000315764
0.000137032
-0.000451606
0.000207736
-0.000589583
0.000290606
-0.000728204
0.000384543
-0.000866256
0.000488458
-0.00100275
0.000601254
-0.00113688
0.000721816
-0.00126797
0.000848998
-0.00139548
0.000981621
-0.00151894
0.00111847
-0.00163798
0.00125827
-0.00175224
0.00139972
-0.00186141
0.00154146
-0.00196519
0.00168212
-0.00206324
0.00182027
-0.00215525
0.00195446
-0.00224084
-0.00231951
0.00208317
1.01675e-05
-6.85455e-05
3.84271e-05
-0.000212151
8.30373e-05
-0.000360374
0.000142467
-0.000511036
0.000215315
-0.000662431
0.000300257
-0.000813146
0.000396011
-0.000962011
0.000501314
-0.00110805
0.000614908
-0.00125047
0.00073553
-0.00138859
0.000861915
-0.00152186
0.000992785
-0.00164982
0.00112686
-0.00177206
0.00126287
-0.00188825
0.00139952
-0.00199807
0.00153557
-0.00210123
0.00166976
-0.00219743
0.00180087
-0.00228636
0.0019277
-0.00236767
-0.00244085
0.00204904
1.06224e-05
-7.91679e-05
3.99901e-05
-0.000241519
8.61375e-05
-0.000406522
0.000147325
-0.000572223
0.000221953
-0.000737059
0.000308511
-0.000899704
0.00040554
-0.00105904
0.000511615
-0.00121413
0.000625333
-0.00136419
0.000745311
-0.00150857
0.000870184
-0.00164674
0.000998613
-0.00177824
0.00112929
-0.00190274
0.00126095
-0.0020199
0.00139236
-0.00212949
0.00152237
-0.00223124
0.00164987
-0.00232493
0.00177382
-0.00241031
0.00189324
-0.00248708
-0.00255479
0.00200718
1.10491e-05
-9.0217e-05
4.14215e-05
-0.000271891
8.89171e-05
-0.000454017
0.000151582
-0.000634888
0.000227619
-0.000813096
0.000315331
-0.000987416
0.000413093
-0.0011568
0.000519329
-0.00132037
0.000632509
-0.00147737
0.00075115
-0.00162721
0.000873816
-0.0017694
0.000999129
-0.00190356
0.00112578
-0.00202938
0.00125253
-0.00214665
0.00137822
-0.00225518
0.00150181
-0.00235483
0.00162231
-0.00244544
0.00173888
-0.00252687
0.00185071
-0.00259891
-0.00266118
0.00195709
1.14436e-05
-0.000101661
4.27082e-05
-0.000303156
9.13504e-05
-0.000502659
0.000155198
-0.000698736
0.000232256
-0.000890153
0.000320648
-0.00107581
0.000418588
-0.00125474
0.000524368
-0.00142614
0.000636347
-0.00158935
0.000752961
-0.00174382
0.000872727
-0.00188917
0.00099425
-0.00202508
0.00111624
-0.00215137
0.0012375
-0.00226792
0.00135698
-0.00237466
0.00147372
-0.00247156
0.00158688
-0.0025586
0.00169577
-0.00263576
0.00179979
-0.00270293
-0.00275981
0.00189842
1.18007e-05
-0.000113461
4.38328e-05
-0.000335188
9.34028e-05
-0.000552229
0.000158119
-0.000763452
0.00023579
-0.000967824
0.000324367
-0.00116439
0.000421918
-0.00135229
0.000526612
-0.00153084
0.000636719
-0.00169946
0.000750614
-0.00185772
0.000866788
-0.00200534
0.000983853
-0.00214215
0.00110055
-0.00226807
0.00121576
-0.00238313
0.00132851
-0.00248741
0.00143797
-0.00258102
0.00154343
-0.00266407
0.00164435
-0.00273668
0.0017403
-0.00279887
-0.00285046
0.00183095
1.21137e-05
-0.000125575
4.47739e-05
-0.000367848
9.50336e-05
-0.000602489
0.000160282
-0.000828701
0.000238136
-0.00104568
0.000326385
-0.00125263
0.00042296
-0.00144887
0.000525928
-0.00163381
0.000633486
-0.00180701
0.000743972
-0.00196821
0.000855869
-0.00211724
0.000967816
-0.00225409
0.00107861
-0.00237886
0.00118721
-0.00249173
0.00129275
-0.00259294
0.0013945
-0.00268277
0.00149191
-0.00276148
0.00158458
-0.00282934
0.00167221
-0.0028865
-0.00293292
0.00175468
1.23757e-05
-0.000137951
4.55088e-05
-0.000400981
9.61989e-05
-0.000653179
0.00016162
-0.000894122
0.000239206
-0.00112326
0.000326592
-0.00134002
0.000421592
-0.00154387
0.000522185
-0.0017344
0.000626519
-0.00191135
0.000732913
-0.0020746
0.000839865
-0.00222419
0.000946058
-0.00236029
0.00105036
-0.00248317
0.00115182
-0.0025932
0.00124969
-0.00269081
0.00134335
-0.00277644
0.0014324
-0.00285053
0.00151656
-0.0029135
0.00159569
-0.00296563
-0.00300703
0.00166979
1.25793e-05
-0.00015053
4.6014e-05
-0.000434416
9.68549e-05
-0.00070402
0.000162068
-0.000959335
0.000238912
-0.00120011
0.000324888
-0.001426
0.000417704
-0.00163668
0.000515275
-0.00183197
0.000615717
-0.00201179
0.000717354
-0.00217624
0.000818717
-0.00232555
0.000918554
-0.00246012
0.00101582
-0.00258043
0.00110966
-0.00268704
0.00119944
-0.00278059
0.00128469
-0.00286169
0.00136511
-0.00293095
0.00144056
-0.00298894
0.00151102
-0.0030361
-0.00307264
0.00157664
1.27173e-05
-0.000163247
4.6267e-05
-0.000467965
9.69601e-05
-0.000754713
0.000161564
-0.00102394
0.000237181
-0.00127572
0.000321186
-0.00151
0.000411209
-0.00172671
0.000505117
-0.00192588
0.000601018
-0.00210769
0.00069726
-0.00227248
0.00079243
-0.00242072
0.000885353
-0.00255304
0.00097508
-0.00267016
0.00106088
-0.00277285
0.00114223
-0.00286193
0.00121878
-0.00293824
0.00129036
-0.00300253
0.00135695
-0.00305553
0.00141865
-0.0030978
-0.0031297
0.00147571
1.27829e-05
-0.00017603
4.62474e-05
-0.00050143
9.64775e-05
-0.000804943
0.000160058
-0.00108752
0.000233948
-0.00134961
0.000315422
-0.00159148
0.000402047
-0.00181333
0.000491668
-0.0020155
0.000582406
-0.00219843
0.000672654
-0.00236273
0.000761072
-0.00250914
0.000846577
-0.00263855
0.000928332
-0.00275191
0.00100573
-0.00285024
0.00107835
-0.00293456
0.001146
-0.00300588
0.00120859
-0.00306513
0.00126624
-0.00311317
0.00131913
-0.0031507
-0.00317818
0.00136762
1.27702e-05
-0.0001888
4.5937e-05
-0.000534597
9.5376e-05
-0.000854382
0.000157508
-0.00114965
0.000229168
-0.00142127
0.000307554
-0.00166986
0.000390192
-0.00189597
0.000474927
-0.00210023
0.000559916
-0.00228342
0.000643616
-0.00244643
0.000724777
-0.0025903
0.000802424
-0.0027162
0.000875836
-0.00282532
0.000944526
-0.00291893
0.00100821
-0.00299825
0.0010668
-0.00306446
0.00112033
-0.00311867
0.001169
-0.00316184
0.0012131
-0.0031948
-0.00321813
0.00125304
1.26766e-05
-0.000201477
4.53264e-05
-0.000567246
9.36387e-05
-0.000902695
0.000153892
-0.00120991
0.000222825
-0.00149021
0.000297577
-0.00174461
0.000375661
-0.00197405
0.000454947
-0.00217952
0.000533646
-0.00236212
0.000610299
-0.00252308
0.000683761
-0.00266376
0.000753172
-0.00278561
0.000817938
-0.00289009
0.000877696
-0.00297869
0.000932288
-0.00305284
0.000981727
-0.0031139
0.00102617
-0.00316311
0.00106588
-0.00320156
0.00110125
-0.00323017
-0.00324961
0.00113273
1.24933e-05
-0.00021397
4.43952e-05
-0.000599148
9.12365e-05
-0.000949536
0.00014918
-0.00126785
0.000214892
-0.00155592
0.000285482
-0.0018152
0.000358475
-0.00204705
0.000431786
-0.00225283
0.000503704
-0.00243403
0.00057287
-0.00259225
0.000638253
-0.00272915
0.000699121
-0.00284648
0.000755007
-0.00294598
0.000805674
-0.00302936
0.000851081
-0.00309825
0.000891349
-0.00315417
0.000926725
-0.00319848
0.000957564
-0.0032324
0.000984299
-0.0032569
-0.00327275
0.00100744
1.22198e-05
-0.00022619
4.3141e-05
-0.000630069
8.81679e-05
-0.000994563
0.000143377
-0.00132306
0.000205391
-0.00161793
0.000271319
-0.00188113
0.00033872
-0.00211445
0.00040558
-0.00231969
0.000470282
-0.00249874
0.000531583
-0.00265355
0.000588577
-0.00278614
0.000640662
-0.00289856
0.000687501
-0.00299281
0.000728981
-0.00307084
0.000765172
-0.00313444
0.000796295
-0.00318529
0.000822682
-0.00322487
0.000844752
-0.00325447
0.00086299
-0.00327514
-0.00328769
0.000877936
1.18539e-05
-0.000238044
4.15607e-05
-0.000659776
8.44333e-05
-0.00103744
0.000136496
-0.00137512
0.000194357
-0.00167579
0.000255152
-0.00194193
0.000316504
-0.0021758
0.000376488
-0.00237967
0.0004336
-0.00255585
0.000486722
-0.00270667
0.000535083
-0.0028345
0.000578213
-0.00294169
0.000615904
-0.00303051
0.00064816
-0.00310309
0.000675159
-0.00316144
0.000697209
-0.00320734
0.000714719
-0.00324238
0.000728164
-0.00326791
0.000738068
-0.00328504
-0.00329462
0.000744992
1.13949e-05
-0.000249439
3.9655e-05
-0.000688036
8.00412e-05
-0.00107782
0.000128559
-0.00142364
0.000181838
-0.00172907
0.000237069
-0.00199716
0.000291961
-0.00223069
0.000344699
-0.00243241
0.000393909
-0.00260506
0.000438606
-0.00275137
0.000478157
-0.00287405
0.000512226
-0.00297576
0.000540728
-0.00305901
0.000563779
-0.00312614
0.000581654
-0.00317931
0.000594744
-0.00322043
0.00060352
-0.00325116
0.000608508
-0.0032729
0.000610259
-0.0032868
-0.0032937
0.000609347
1.08429e-05
-0.000260282
3.74286e-05
-0.000714622
7.50075e-05
-0.0011154
0.000119605
-0.00146824
0.000167904
-0.00177737
0.000217179
-0.00204643
0.000265251
-0.00227876
0.000310433
-0.0024776
0.00035149
-0.00264611
0.000387581
-0.00278746
0.000418211
-0.00290468
0.000443173
-0.00300072
0.000462501
-0.00307833
0.000476414
-0.00314006
0.000485276
-0.00318818
0.000489549
-0.0032247
0.000489762
-0.00325137
0.000486475
-0.00326961
0.000480268
-0.00328059
-0.00328515
0.000471715
1.01994e-05
-0.000270481
3.48895e-05
-0.000739312
6.93553e-05
-0.00114987
0.000109681
-0.00150856
0.000152636
-0.00182033
0.000195609
-0.00208941
0.000236553
-0.00231971
0.000273927
-0.00251497
0.000306645
-0.00267883
0.000334012
-0.00281482
0.00035567
-0.00292634
0.000371538
-0.00301659
0.000381759
-0.00308855
0.000386647
-0.00314494
0.000386641
-0.00318817
0.000382268
-0.00322033
0.000374103
-0.0032432
0.000362739
-0.00325825
0.000348771
-0.00326662
-0.00326916
0.000332777
9.46644e-06
-0.000279948
3.20493e-05
-0.000761895
6.31141e-05
-0.00118093
9.88439e-05
-0.00154429
0.000136129
-0.00185761
0.0001725
-0.00212578
0.000206062
-0.00235327
0.000235435
-0.00254434
0.000259688
-0.00270309
0.000278275
-0.00283341
0.00029097
-0.00293904
0.000297811
-0.00302343
0.00029904
-0.00308978
0.000295052
-0.00314096
0.000286356
-0.00317947
0.000273528
-0.0032075
0.000257184
-0.00322686
0.000237944
-0.00323901
0.000216417
-0.00324509
-0.00324592
0.000193179
8.64737e-06
-0.000288595
2.89222e-05
-0.00078217
5.63186e-05
-0.00120833
8.71587e-05
-0.00157513
0.000118488
-0.00188894
0.000148003
-0.00215529
0.000173983
-0.00237925
0.000195219
-0.00256558
0.00021094
-0.00271881
0.000220748
-0.00284322
0.000224545
-0.00294283
0.000222476
-0.00302136
0.000214871
-0.00308218
0.000202195
-0.00312828
0.00018501
-0.00316229
0.000163938
-0.00318643
0.000139623
-0.00320254
0.000112711
-0.0032121
8.38236e-05
-0.00321621
-0.00321563
5.35362e-05
7.74611e-06
-0.000296341
2.55253e-05
-0.000799949
4.90082e-05
-0.00123181
7.46969e-05
-0.00160082
9.98238e-05
-0.00191407
0.000122278
-0.00217775
0.000140527
-0.0023975
0.000153544
-0.0025786
0.000160722
-0.00272599
0.000161807
-0.0028443
0.000156822
-0.00293785
0.000146006
-0.00301055
0.000129766
-0.00306594
0.000108621
-0.00310714
8.31773e-05
-0.00313685
5.40848e-05
-0.00315734
2.20156e-05
-0.00317047
-1.2365e-05
-0.00317772
-4.84205e-05
-0.00318015
-0.00317848
-8.55699e-05
6.76737e-06
-0.000303109
2.18776e-05
-0.000815059
4.12263e-05
-0.00125116
6.15346e-05
-0.00162113
8.02535e-05
-0.00193279
9.54863e-05
-0.00219298
0.000105906
-0.00240792
0.000110673
-0.00258336
0.000109348
-0.00272466
0.000101814
-0.00283677
8.82077e-05
-0.00292424
6.88534e-05
-0.00299119
4.42152e-05
-0.0030413
1.48557e-05
-0.00307778
-1.85953e-05
-0.00310339
-5.5466e-05
-0.00312047
-9.50672e-05
-0.00313087
-0.000136714
-0.00313607
-0.000179752
-0.00313711
-0.00313465
-0.000223584
5.71646e-06
-0.000308825
1.8e-05
-0.000827343
3.3019e-05
-0.00126618
4.77517e-05
-0.00163586
5.98968e-05
-0.00194493
6.77924e-05
-0.00220087
7.03297e-05
-0.00241046
6.68618e-05
-0.00257989
5.71161e-05
-0.00271491
4.11118e-05
-0.00282077
1.90872e-05
-0.00290222
-8.56025e-06
-0.00296355
-4.13218e-05
-0.00300854
-7.86113e-05
-0.00304049
-0.000119789
-0.00306222
-0.000164177
-0.00307608
-0.000211078
-0.00308397
-0.000259791
-0.00308736
-0.000309632
-0.00308727
-0.00308431
-0.000359977
4.59931e-06
-0.000313424
1.39154e-05
-0.000836659
2.44353e-05
-0.0012767
3.34309e-05
-0.00164486
3.88748e-05
-0.00195038
3.93585e-05
-0.00220136
3.40008e-05
-0.0024051
2.23532e-05
-0.00256825
4.30835e-06
-0.00269687
-1.9984e-05
-0.00279647
-5.01903e-05
-0.00287201
-8.58521e-05
-0.00292788
-0.00012643
-0.00296796
-0.00017133
-0.00299559
-0.000219922
-0.00301363
-0.000271542
-0.00302446
-0.000325497
-0.00303002
-0.000381072
-0.00303178
-0.000437548
-0.0030308
-0.00302761
-0.000494246
3.42241e-06
-0.000316847
9.64801e-06
-0.000842885
1.55266e-05
-0.00128258
1.86569e-05
-0.00164799
1.73098e-05
-0.00194903
1.03447e-05
-0.00219439
-2.88388e-06
-0.00239187
-2.26235e-05
-0.00254851
-4.88175e-05
-0.00267068
-8.11899e-05
-0.0027641
-0.000119318
-0.00283388
-0.000162691
-0.00288451
-0.000210749
-0.0029199
-0.000262909
-0.00294343
-0.000318569
-0.00295797
-0.000377102
-0.00296593
-0.000437839
-0.00296928
-0.000500064
-0.00296956
-0.000563014
-0.00296785
-0.0029647
-0.000625921
2.19287e-06
-0.00031904
5.2238e-06
-0.000845916
6.34658e-06
-0.0012837
3.51739e-06
-0.00164516
-4.67487e-06
-0.00194084
-1.90906e-05
-0.00217998
-4.01345e-05
-0.00237083
-6.78528e-05
-0.00252079
-0.000102027
-0.0026365
-0.000142258
-0.00272387
-0.000188038
-0.0027881
-0.000238808
-0.00283374
-0.000293995
-0.00286471
-0.000353037
-0.00288438
-0.000415381
-0.00289562
-0.000480461
-0.00290085
-0.00054767
-0.00290207
-0.000616316
-0.00290091
-0.000685586
-0.00289858
-0.00289571
-0.00075458
9.18452e-07
-0.000319958
6.70594e-07
-0.000845668
-3.048e-06
-0.00127998
-1.18973e-05
-0.00163631
-2.69534e-05
-0.00192578
-4.87888e-05
-0.00215814
-7.75652e-05
-0.00234205
-0.00011313
-0.00248522
-0.000155106
-0.00259453
-0.000202974
-0.002676
-0.000256144
-0.00273493
-0.000314006
-0.00277588
-0.000375975
-0.00280274
-0.000441513
-0.00281885
-0.000510125
-0.00282701
-0.000581339
-0.00282963
-0.000654652
-0.00282876
-0.000729449
-0.00282611
-0.000804897
-0.00282313
-0.00282072
-0.000879886
-3.92353e-07
-0.000319566
-3.9818e-06
-0.000842078
-1.25973e-05
-0.00127137
-2.74925e-05
-0.00162141
-4.93961e-05
-0.00190388
-7.8588e-05
-0.00212895
-0.000114989
-0.00230565
-0.000158252
-0.00244196
-0.000207849
-0.00254493
-0.000263146
-0.0026207
-0.000323469
-0.00267461
-0.000388157
-0.00271119
-0.000456601
-0.0027343
-0.000528276
-0.00274717
-0.000602744
-0.00275254
-0.00067964
-0.00275274
-0.000758617
-0.00274978
-0.000839233
-0.0027455
-0.000920721
-0.00274164
-0.00273976
-0.00100168
-1.73029e-06
-0.000317835
-8.70145e-06
-0.000835107
-2.2238e-05
-0.00125783
-4.31689e-05
-0.00160048
-7.18671e-05
-0.00187518
-0.000108319
-0.0020925
-0.00015221
-0.00226176
-0.000203009
-0.00239116
-0.000260044
-0.00248789
-0.000322579
-0.00255817
-0.000389861
-0.00260733
-0.000461173
-0.00263988
-0.000535872
-0.0026596
-0.000613418
-0.00266963
-0.0006934
-0.00267256
-0.00077554
-0.0026706
-0.000859675
-0.00266565
-0.000945659
-0.00265951
-0.00103301
-0.00265429
-0.00265251
-0.00112025
-3.0854e-06
-0.00031475
-1.34544e-05
-0.000824738
-3.19032e-05
-0.00123938
-5.88222e-05
-0.00157356
-9.42238e-05
-0.00183978
-0.000137804
-0.00204892
-0.00018902
-0.00221054
-0.000247168
-0.00233301
-0.000311453
-0.00242361
-0.000381047
-0.00248858
-0.000455134
-0.00253324
-0.000532952
-0.00256206
-0.000613817
-0.00257874
-0.000697151
-0.00258629
-0.000782515
-0.0025872
-0.000869643
-0.00258347
-0.000958499
-0.00257679
-0.00104931
-0.0025687
-0.00114227
-0.00256133
-0.00255743
-0.00123735
-4.44719e-06
-0.000310303
-1.82054e-05
-0.00081098
-4.15237e-05
-0.00121606
-7.43446e-05
-0.00154074
-0.000116317
-0.0017978
-0.000166853
-0.00199838
-0.00022519
-0.0021522
-0.000290469
-0.00226774
-0.000361785
-0.00235229
-0.000438245
-0.00241212
-0.000518998
-0.00245249
-0.000603266
-0.00247779
-0.000690358
-0.00249164
-0.000779687
-0.00249696
-0.000870786
-0.0024961
-0.000963354
-0.0024909
-0.00105735
-0.0024828
-0.00115328
-0.00247277
-0.00125276
-0.00246186