1.45 	0 	0 	-0.00810478 	-0.00257057 	3.78528e-21
2.35 	0 	0 	0.0613725 	-0.00663233 	2.28934e-21
