1.45 	0 	0 	-0.298102
2.35 	0 	0 	-0.132235
