/*--------------------------------*- C++ -*----------------------------------*\
  =========                 |
  \\      /  F ield         | OpenFOAM: The Open Source CFD Toolbox
   \\    /   O peration     | Website:  https://openfoam.org
    \\  /    A nd           | Version:  6.0
     \\/     M anipulation  |
\*---------------------------------------------------------------------------*/
FoamFile
{
    version     2.0;
    format      ascii;
    class       volScalarField;
    location    "69";
    object      p;
}
// * * * * * * * * * * * * * * * * * * * * * * * * * * * * * * * * * * * * * //

dimensions      [0 2 -2 0 0 0 0];

internalField   nonuniform List<scalar> 
2000
(
-0.348041
-0.353948
-0.355636
-0.354967
-0.353107
-0.350431
-0.347215
-0.343754
-0.340334
-0.336638
-0.350759
-0.356246
-0.357594
-0.356624
-0.354476
-0.351525
-0.348046
-0.344324
-0.34065
-0.336834
-0.356215
-0.360842
-0.3615
-0.35992
-0.357191
-0.353684
-0.349671
-0.345412
-0.341208
-0.337148
-0.364449
-0.367737
-0.367332
-0.364826
-0.361216
-0.356863
-0.352026
-0.346923
-0.341872
-0.337423
-0.375521
-0.376927
-0.375061
-0.371303
-0.366508
-0.361013
-0.355043
-0.348742
-0.342443
-0.3374
-0.389496
-0.388398
-0.384646
-0.379309
-0.373036
-0.366109
-0.358692
-0.350786
-0.342711
-0.336751
-0.406407
-0.402107
-0.396028
-0.388805
-0.380793
-0.372194
-0.363064
-0.353173
-0.342674
-0.335217
-0.426198
-0.417957
-0.409115
-0.399728
-0.389766
-0.37931
-0.368275
-0.356033
-0.34209
-0.331647
-0.448658
-0.435773
-0.423792
-0.412039
-0.399993
-0.38755
-0.374309
-0.358749
-0.338664
-0.321353
-0.473351
-0.455291
-0.439959
-0.425885
-0.412099
-0.398402
-0.384039
-0.366374
-0.341334
-0.317357
-0.499591
-0.476086
-0.457347
-0.441177
-0.426449
-0.413537
-0.402782
-0.394825
-0.394963
-0.414496
-0.526554
-0.49758
-0.475339
-0.456809
-0.440472
-0.42679
-0.416237
-0.409873
-0.412829
-0.4301
-0.553517
-0.519316
-0.493662
-0.47266
-0.454296
-0.438934
-0.426941
-0.419036
-0.418328
-0.426146
-0.579832
-0.54082
-0.512003
-0.488559
-0.467923
-0.45028
-0.435788
-0.424703
-0.418501
-0.417163
-0.604749
-0.561426
-0.529739
-0.503862
-0.480649
-0.460084
-0.442126
-0.426651
-0.41408
-0.404454
-0.62728
-0.580201
-0.545924
-0.517561
-0.491418
-0.467345
-0.445219
-0.424729
-0.405708
-0.38892
-0.646139
-0.595934
-0.559328
-0.528374
-0.498943
-0.470892
-0.444184
-0.418513
-0.393461
-0.370808
-0.659769
-0.607169
-0.56849
-0.534817
-0.501794
-0.469467
-0.438054
-0.4074
-0.377054
-0.349879
-0.666405
-0.61227
-0.571787
-0.535298
-0.498495
-0.461815
-0.425865
-0.390724
-0.356023
-0.325636
-0.664183
-0.609495
-0.567525
-0.528204
-0.487616
-0.446765
-0.406732
-0.367848
-0.329855
-0.297489
-0.651247
-0.597104
-0.554035
-0.512008
-0.467865
-0.423313
-0.379926
-0.338245
-0.298101
-0.264905
-0.62586
-0.573455
-0.529779
-0.485371
-0.438183
-0.390697
-0.34494
-0.30158
-0.260473
-0.227512
-0.586552
-0.537141
-0.493479
-0.447255
-0.397833
-0.348471
-0.301548
-0.257758
-0.216908
-0.185176
-0.532223
-0.487102
-0.444225
-0.397008
-0.346459
-0.296534
-0.24983
-0.20696
-0.16761
-0.138037
-0.462271
-0.422741
-0.381568
-0.334435
-0.284118
-0.235138
-0.190162
-0.149635
-0.113054
-0.0865222
-0.376695
-0.344022
-0.305601
-0.259825
-0.21127
-0.164844
-0.123146
-0.0864024
-0.053876
-0.0312557
-0.276181
-0.251551
-0.217006
-0.173978
-0.128773
-0.0864938
-0.0495525
-0.0179606
0.00920285
0.0269357
-0.162171
-0.146615
-0.117069
-0.0781833
-0.0378621
-0.00122868
0.0295615
0.054572
0.0746413
0.0860222
-0.0368725
-0.0311866
-0.00763777
0.0258867
0.0600774
0.0898988
0.113337
0.129982
0.139916
0.142287
0.0967575
0.0920916
0.108873
0.136202
0.163723
0.186713
0.2032
0.211567
0.210533
0.203804
0.235144
0.219955
0.22936
0.249868
0.270618
0.287731
0.299936
0.305418
0.304371
0.318289
0.374391
0.348757
0.350212
0.363031
0.376051
0.386025
0.392078
0.39332
0.392242
0.405166
0.510556
0.474826
0.468018
0.47257
0.477224
0.479302
0.478239
0.473618
0.467925
0.473029
0.639791
0.594554
0.579489
0.575587
0.571689
0.5657
0.557364
0.546531
0.535272
0.53243
0.758435
0.704502
0.681529
0.669421
0.657255
0.643507
0.628195
0.611359
0.594688
0.584741
0.863103
0.801502
0.77132
0.751676
0.731968
0.711191
0.689604
0.667392
0.645877
0.629721
0.950778
0.882747
0.846375
0.820239
0.794077
0.767327
0.740448
0.713737
0.688162
0.666804
1.01891
0.945869
0.904599
0.873324
0.842078
0.810652
0.779656
0.749469
0.720748
0.695333
1.06548
0.989016
0.944358
0.909526
0.874777
0.840141
0.806333
0.773782
0.742917
0.714717
1.08912
1.01091
0.964523
0.927874
0.89134
0.855073
0.819838
0.786093
0.754141
0.724522
1.08912
1.01091
0.964523
0.927874
0.89134
0.855073
0.819838
0.786093
0.754141
0.724522
1.06548
0.989016
0.944358
0.909526
0.874777
0.840141
0.806333
0.773782
0.742917
0.714717
1.01891
0.945869
0.904599
0.873324
0.842078
0.810652
0.779656
0.749469
0.720748
0.695333
0.950778
0.882747
0.846375
0.820239
0.794077
0.767327
0.740448
0.713737
0.688162
0.666804
0.863103
0.801502
0.77132
0.751676
0.731968
0.711191
0.689604
0.667392
0.645877
0.629721
0.758435
0.704502
0.681529
0.669421
0.657255
0.643507
0.628195
0.611359
0.594688
0.584741
0.639791
0.594554
0.579489
0.575587
0.571689
0.5657
0.557364
0.546531
0.535272
0.53243
0.510556
0.474826
0.468018
0.47257
0.477224
0.479302
0.478239
0.473618
0.467925
0.473029
0.374391
0.348757
0.350212
0.363031
0.376051
0.386025
0.392078
0.39332
0.392242
0.405166
0.235144
0.219955
0.22936
0.249868
0.270618
0.287731
0.299936
0.305417
0.304371
0.318289
0.0967575
0.0920916
0.108873
0.136202
0.163723
0.186713
0.2032
0.211567
0.210533
0.203804
-0.0368726
-0.0311866
-0.00763779
0.0258867
0.0600773
0.0898988
0.113337
0.129982
0.139916
0.142287
-0.162171
-0.146615
-0.117069
-0.0781833
-0.0378621
-0.00122874
0.0295615
0.0545719
0.0746412
0.0860221
-0.276181
-0.251551
-0.217007
-0.173978
-0.128773
-0.0864938
-0.0495525
-0.0179607
0.00920278
0.0269356
-0.376695
-0.344022
-0.305601
-0.259825
-0.21127
-0.164844
-0.123146
-0.0864025
-0.0538761
-0.0312558
-0.462271
-0.422741
-0.381568
-0.334435
-0.284118
-0.235138
-0.190163
-0.149636
-0.113054
-0.0865223
-0.532223
-0.487102
-0.444225
-0.397008
-0.346459
-0.296534
-0.24983
-0.20696
-0.16761
-0.138037
-0.586552
-0.537141
-0.493479
-0.447255
-0.397833
-0.348471
-0.301548
-0.257759
-0.216908
-0.185176
-0.62586
-0.573455
-0.529779
-0.485371
-0.438183
-0.390697
-0.34494
-0.301581
-0.260473
-0.227512
-0.651247
-0.597104
-0.554035
-0.512008
-0.467865
-0.423313
-0.379926
-0.338246
-0.298101
-0.264905
-0.664183
-0.609496
-0.567526
-0.528204
-0.487617
-0.446766
-0.406732
-0.367848
-0.329855
-0.297489
-0.666406
-0.61227
-0.571787
-0.535298
-0.498495
-0.461816
-0.425865
-0.390724
-0.356023
-0.325636
-0.659769
-0.60717
-0.56849
-0.534817
-0.501794
-0.469467
-0.438054
-0.4074
-0.377054
-0.349879
-0.646139
-0.595934
-0.559328
-0.528374
-0.498943
-0.470892
-0.444184
-0.418513
-0.393461
-0.370808
-0.62728
-0.580201
-0.545924
-0.517562
-0.491418
-0.467345
-0.445219
-0.424729
-0.405708
-0.38892
-0.604749
-0.561427
-0.529739
-0.503862
-0.480649
-0.460084
-0.442126
-0.426651
-0.414081
-0.404454
-0.579832
-0.54082
-0.512004
-0.48856
-0.467923
-0.45028
-0.435788
-0.424703
-0.418501
-0.417164
-0.553518
-0.519316
-0.493663
-0.472661
-0.454296
-0.438935
-0.426941
-0.419036
-0.418328
-0.426146
-0.526554
-0.497581
-0.47534
-0.456809
-0.440472
-0.42679
-0.416237
-0.409873
-0.412829
-0.4301
-0.499591
-0.476087
-0.457348
-0.441177
-0.426449
-0.413537
-0.402783
-0.394826
-0.394963
-0.414496
-0.473351
-0.455291
-0.439959
-0.425885
-0.412099
-0.398403
-0.384039
-0.366374
-0.341334
-0.317358
-0.448658
-0.435773
-0.423792
-0.412039
-0.399994
-0.38755
-0.37431
-0.358749
-0.338664
-0.321353
-0.426198
-0.417957
-0.409115
-0.399729
-0.389766
-0.37931
-0.368275
-0.356033
-0.34209
-0.331648
-0.406407
-0.402107
-0.396028
-0.388805
-0.380793
-0.372194
-0.363064
-0.353173
-0.342674
-0.335218
-0.389496
-0.388398
-0.384646
-0.379309
-0.373036
-0.366109
-0.358692
-0.350787
-0.342711
-0.336751
-0.375521
-0.376927
-0.375061
-0.371303
-0.366508
-0.361013
-0.355044
-0.348743
-0.342443
-0.3374
-0.364449
-0.367737
-0.367332
-0.364826
-0.361216
-0.356863
-0.352026
-0.346923
-0.341872
-0.337423
-0.356215
-0.360843
-0.3615
-0.35992
-0.357191
-0.353684
-0.349671
-0.345412
-0.341209
-0.337149
-0.350759
-0.356246
-0.357594
-0.356624
-0.354476
-0.351525
-0.348046
-0.344324
-0.34065
-0.336834
-0.348042
-0.353948
-0.355636
-0.354967
-0.353108
-0.350431
-0.347215
-0.343754
-0.340334
-0.336638
-0.290428
-0.126294
-0.0812216
-0.0303208
-0.0192159
-0.00778228
-0.00434261
-0.000872415
-0.000455503
0.00217196
-0.291659
-0.126842
-0.0814921
-0.0305194
-0.0192837
-0.007842
-0.00437212
-0.000893145
-0.00046462
0.00215607
-0.29405
-0.127923
-0.0820275
-0.0309177
-0.0194193
-0.00796113
-0.0044312
-0.000934545
-0.000482775
0.00212451
-0.297461
-0.129514
-0.0828167
-0.0315178
-0.0196222
-0.00813927
-0.00451965
-0.000996536
-0.000509816
0.00207759
-0.301646
-0.13157
-0.0838332
-0.032318
-0.0198905
-0.00837504
-0.00463697
-0.00107892
-0.000545464
0.00201577
-0.30625
-0.134016
-0.0850279
-0.0333045
-0.0202184
-0.00866485
-0.00478193
-0.00118118
-0.000589364
0.00193969
-0.311142
-0.136921
-0.0864061
-0.0344726
-0.0206064
-0.00900597
-0.004954
-0.00130233
-0.000641719
0.00185092
-0.316845
-0.140936
-0.0882305
-0.035923
-0.0210979
-0.00941183
-0.00515922
-0.00144273
-0.000704067
0.00175226
-0.321622
-0.146442
-0.0906794
-0.0378209
-0.0217435
-0.00990951
-0.00540675
-0.00160774
-0.000774821
0.00164112
-0.313817
-0.148817
-0.0917904
-0.0395223
-0.0222458
-0.0104014
-0.00565143
-0.00179866
-0.000834459
0.00149455
-0.247286
-0.140718
-0.0881703
-0.0427772
-0.0227442
-0.0117331
-0.00636792
-0.00253836
-0.00100014
0.000841357
-0.189192
-0.131709
-0.0821683
-0.0442359
-0.0244775
-0.0141256
-0.00821694
-0.00402205
-0.00176193
-7.8238e-07
-0.147776
-0.11385
-0.0727395
-0.0428055
-0.0259033
-0.0163318
-0.0101524
-0.00561384
-0.00269675
-0.00068087
-0.108183
-0.0929486
-0.0633197
-0.0408366
-0.0269532
-0.0181272
-0.0118274
-0.00704915
-0.00358785
-0.001152
-0.078946
-0.075676
-0.0565193
-0.0395816
-0.0277775
-0.0194728
-0.0131399
-0.00820336
-0.00433543
-0.00145062
-0.0588546
-0.0628288
-0.0515592
-0.0385821
-0.0281889
-0.02032
-0.014067
-0.00905783
-0.00491383
-0.00164426
-0.0458293
-0.0535677
-0.0476974
-0.037612
-0.028277
-0.0208015
-0.0146908
-0.0096661
-0.00534247
-0.00178093
-0.0375851
-0.0471084
-0.0447353
-0.036759
-0.0282323
-0.0210713
-0.0150991
-0.0100831
-0.00564521
-0.00187974
-0.0327633
-0.0430076
-0.0427278
-0.036156
-0.0281761
-0.0212178
-0.0153441
-0.0103425
-0.00583819
-0.00194434
-0.0305328
-0.0410061
-0.0417168
-0.035859
-0.0281523
-0.0212826
-0.0154572
-0.0104645
-0.00593255
-0.00197461
-0.218585
-0.246482
-0.272261
-0.296204
-0.318699
-0.340248
-0.361473
-0.383017
-0.405383
-0.429225
-0.0679397
-0.0780823
-0.087247
-0.095677
-0.103679
-0.111635
-0.120001
-0.129317
-0.140164
-0.15433
-0.0451688
-0.0543507
-0.0631469
-0.0715308
-0.0794648
-0.0869042
-0.0938055
-0.100142
-0.10591
-0.111231
-0.0187457
-0.0244658
-0.0299795
-0.0353058
-0.0404666
-0.0454852
-0.0503847
-0.0551873
-0.0598929
-0.0643808
-0.0130366
-0.0173925
-0.0216239
-0.0257271
-0.0296985
-0.0335341
-0.0372302
-0.0407839
-0.0441758
-0.0473742
-0.00798232
-0.0111996
-0.0143576
-0.0174552
-0.0204918
-0.023467
-0.0263803
-0.0292302
-0.032005
-0.0347083
-0.00685878
-0.0093957
-0.0118963
-0.0143566
-0.016773
-0.0191424
-0.0214622
-0.02373
-0.0259398
-0.0281048
-0.00605785
-0.00811578
-0.0101572
-0.012178
-0.0141745
-0.0161432
-0.0180811
-0.0199851
-0.0218519
-0.0236888
-0.00597029
-0.00774499
-0.00951177
-0.0112661
-0.0130038
-0.014721
-0.0164142
-0.01808
-0.0197165
-0.0213249
-0.00591431
-0.00754031
-0.0091637
-0.0107807
-0.0123879
-0.0139818
-0.0155594
-0.0171178
-0.0186555
-0.0201708
0.168015
0.127028
0.0816798
0.0386106
-0.00312781
-0.0440069
-0.0834102
-0.120755
-0.155774
-0.18838
0.117545
0.0916304
0.0648386
0.0419997
0.0218796
0.00320579
-0.0141046
-0.0298406
-0.0439757
-0.0566252
0.0734251
0.0577271
0.0427741
0.0298619
0.0180106
0.00654392
-0.00460904
-0.0153604
-0.0256869
-0.0356152
0.0531692
0.0440962
0.0354672
0.0277567
0.0204904
0.0133978
0.00648116
-0.000200784
-0.00662677
-0.0128039
0.0376324
0.0316811
0.0259408
0.0206502
0.0155599
0.0105388
0.00559379
0.00075613
-0.00396163
-0.00855906
0.0273708
0.0234819
0.0196366
0.0159989
0.0124563
0.00894096
0.00545421
0.0020128
-0.00137492
-0.00470695
0.0196683
0.0169398
0.0141846
0.011508
0.00886193
0.00621356
0.00356464
0.000926362
-0.00169343
-0.00428989
0.0144878
0.0124928
0.0104475
0.00841438
0.00637689
0.0043214
0.00225027
0.000171039
-0.00190994
-0.00398775
0.0111572
0.00956231
0.00791836
0.00625463
0.00456633
0.00285034
0.00111054
-0.000646929
-0.00241631
-0.00419242
0.00956113
0.0081405
0.00667655
0.00518349
0.00366072
0.00210929
0.000533536
-0.00106138
-0.00267062
-0.0042897
0.33543
0.33473
0.333181
0.330306
0.325322
0.316991
0.303542
0.28258
0.251473
0.206856
0.245532
0.244416
0.24178
0.237195
0.230325
0.22074
0.207868
0.191053
0.169545
0.142791
0.174701
0.173572
0.170905
0.166381
0.159891
0.151327
0.140501
0.127197
0.111009
0.092022
0.123091
0.122206
0.120103
0.116541
0.111501
0.10501
0.0970603
0.0876621
0.0767372
0.0646209
0.0867576
0.0861132
0.0845742
0.0819611
0.0782812
0.0735868
0.067912
0.0612952
0.0537165
0.0453847
0.0615785
0.0611151
0.0600066
0.0581244
0.0554819
0.0521303
0.0481111
0.0434684
0.0382198
0.0325116
0.0444272
0.0440887
0.0432785
0.0419033
0.0399745
0.0375325
0.0346111
0.0312428
0.0274473
0.0233085
0.0331417
0.0328849
0.0322704
0.0312273
0.029765
0.027915
0.0257039
0.0231571
0.0202947
0.0171688
0.0263059
0.0260974
0.0255987
0.0247523
0.0235656
0.0220637
0.0202677
0.0181967
0.0158683
0.0133139
0.0230856
0.022899
0.0224538
0.0216987
0.0206399
0.0192995
0.0176961
0.015846
0.0137659
0.0114788
0.485404
0.487157
0.49349
0.504636
0.520488
0.541347
0.567682
0.600014
0.638881
0.684529
0.483163
0.48489
0.491143
0.502133
0.517736
0.538218
0.563988
0.595483
0.633102
0.676937
0.478732
0.480414
0.486514
0.497201
0.512318
0.53206
0.556719
0.58656
0.62171
0.66196
0.472213
0.473839
0.479729
0.489985
0.504401
0.523067
0.546104
0.573522
0.605029
0.640006
0.463742
0.465319
0.47096
0.480679
0.49421
0.511507
0.532466
0.556756
0.583523
0.611662
0.453489
0.455038
0.460412
0.469513
0.482004
0.497677
0.516165
0.53671
0.557762
0.577662
0.44165
0.443239
0.448366
0.456805
0.468145
0.481991
0.497669
0.513926
0.528424
0.538875
0.428431
0.430247
0.435262
0.443111
0.453327
0.465295
0.477965
0.489445
0.496509
0.496093
0.413902
0.416194
0.421288
0.428674
0.437869
0.448042
0.457692
0.464103
0.462892
0.448813
0.3977
0.400136
0.404803
0.411059
0.418439
0.42599
0.431938
0.433061
0.424596
0.396892
0.3977
0.400135
0.404803
0.411059
0.418439
0.42599
0.431938
0.433061
0.424595
0.396892
0.413902
0.416194
0.421288
0.428674
0.437869
0.448042
0.457692
0.464103
0.462892
0.448813
0.428431
0.430247
0.435262
0.443111
0.453327
0.465295
0.477965
0.489445
0.496509
0.496093
0.44165
0.443239
0.448366
0.456805
0.468145
0.481991
0.497669
0.513925
0.528424
0.538875
0.453489
0.455038
0.460412
0.469513
0.482004
0.497677
0.516165
0.53671
0.557762
0.577662
0.463742
0.465319
0.47096
0.480679
0.49421
0.511507
0.532466
0.556756
0.583523
0.611662
0.472213
0.473839
0.479729
0.489985
0.504401
0.523067
0.546104
0.573522
0.605029
0.640006
0.478732
0.480414
0.486514
0.497201
0.512318
0.53206
0.556719
0.58656
0.62171
0.66196
0.483163
0.48489
0.491143
0.502133
0.517736
0.538218
0.563988
0.595482
0.633102
0.676937
0.485404
0.487157
0.49349
0.504636
0.520488
0.541347
0.567682
0.600014
0.638881
0.684529
0.0230855
0.022899
0.0224538
0.0216987
0.0206399
0.0192994
0.017696
0.0158459
0.0137659
0.0114787
0.0263059
0.0260974
0.0255987
0.0247523
0.0235656
0.0220636
0.0202677
0.0181966
0.0158682
0.0133139
0.0331416
0.0328848
0.0322703
0.0312272
0.029765
0.0279149
0.0257039
0.023157
0.0202946
0.0171687
0.0444272
0.0440886
0.0432785
0.0419032
0.0399744
0.0375325
0.034611
0.0312428
0.0274472
0.0233084
0.0615785
0.0611151
0.0600065
0.0581244
0.0554819
0.0521302
0.0481111
0.0434684
0.0382198
0.0325116
0.0867576
0.0861131
0.0845742
0.0819611
0.0782811
0.0735867
0.067912
0.0612951
0.0537164
0.0453846
0.123091
0.122206
0.120103
0.116541
0.111501
0.10501
0.0970603
0.087662
0.0767372
0.0646209
0.174701
0.173572
0.170905
0.166381
0.159891
0.151327
0.140501
0.127197
0.111009
0.0920219
0.245532
0.244416
0.24178
0.237195
0.230325
0.22074
0.207868
0.191053
0.169545
0.142791
0.33543
0.33473
0.33318
0.330306
0.325322
0.316991
0.303541
0.28258
0.251473
0.206856
0.00956106
0.00814043
0.00667647
0.00518341
0.00366064
0.00210921
0.000533458
-0.00106146
-0.0026707
-0.00428978
0.0111572
0.00956223
0.00791828
0.00625455
0.00456625
0.00285026
0.00111046
-0.000647008
-0.00241639
-0.0041925
0.0144878
0.0124927
0.0104474
0.0084143
0.00637681
0.00432132
0.00225019
0.00017096
-0.00191002
-0.00398783
0.0196682
0.0169397
0.0141845
0.0115079
0.00886185
0.00621348
0.00356456
0.000926282
-0.00169351
-0.00428997
0.0273708
0.0234818
0.0196366
0.0159988
0.0124562
0.00894088
0.00545413
0.00201272
-0.001375
-0.00470703
0.0376323
0.031681
0.0259408
0.0206501
0.0155598
0.0105388
0.0055937
0.000756048
-0.00396171
-0.00855915
0.0531691
0.0440961
0.0354671
0.0277566
0.0204903
0.0133977
0.00648108
-0.000200868
-0.00662685
-0.012804
0.073425
0.057727
0.042774
0.0298618
0.0180105
0.00654383
-0.00460913
-0.0153604
-0.0256869
-0.0356153
0.117545
0.0916303
0.0648385
0.0419997
0.0218795
0.0032057
-0.0141047
-0.0298407
-0.0439758
-0.0566253
0.168015
0.127028
0.0816797
0.0386105
-0.00312791
-0.044007
-0.0834103
-0.120755
-0.155774
-0.188381
-0.00591439
-0.00754039
-0.00916379
-0.0107808
-0.012388
-0.0139819
-0.0155595
-0.0171178
-0.0186556
-0.0201708
-0.00597037
-0.00774507
-0.00951185
-0.0112662
-0.0130039
-0.0147211
-0.0164142
-0.0180801
-0.0197166
-0.0213249
-0.00605794
-0.00811587
-0.0101573
-0.0121781
-0.0141746
-0.0161433
-0.0180812
-0.0199852
-0.021852
-0.0236889
-0.00685887
-0.00939579
-0.0118964
-0.0143567
-0.0167731
-0.0191424
-0.0214623
-0.0237301
-0.0259398
-0.0281049
-0.0079824
-0.0111997
-0.0143577
-0.0174553
-0.0204919
-0.0234671
-0.0263804
-0.0292302
-0.0320051
-0.0347084
-0.0130367
-0.0173926
-0.021624
-0.0257272
-0.0296986
-0.0335341
-0.0372303
-0.040784
-0.0441759
-0.0473743
-0.0187458
-0.0244659
-0.0299796
-0.0353059
-0.0404667
-0.0454853
-0.0503848
-0.0551874
-0.059893
-0.0643809
-0.0451689
-0.0543508
-0.063147
-0.0715309
-0.0794649
-0.0869043
-0.0938056
-0.100142
-0.10591
-0.111231
-0.0679398
-0.0780824
-0.0872471
-0.0956771
-0.10368
-0.111635
-0.120001
-0.129318
-0.140164
-0.154331
-0.218585
-0.246482
-0.272261
-0.296205
-0.318699
-0.340248
-0.361473
-0.383017
-0.405383
-0.429225
-0.0305329
-0.0410061
-0.0417169
-0.0358591
-0.0281524
-0.0212828
-0.0154574
-0.0104646
-0.00593266
-0.00197465
-0.0327634
-0.0430076
-0.0427279
-0.036156
-0.0281762
-0.0212179
-0.0153442
-0.0103427
-0.00583829
-0.00194438
-0.0375851
-0.0471085
-0.0447354
-0.036759
-0.0282324
-0.0210715
-0.0150993
-0.0100833
-0.00564532
-0.00187978
-0.0458294
-0.0535678
-0.0476975
-0.037612
-0.0282772
-0.0208017
-0.0146911
-0.00966629
-0.00534259
-0.00178095
-0.0588546
-0.0628289
-0.0515592
-0.0385821
-0.028189
-0.0203203
-0.0140672
-0.00905805
-0.00491396
-0.00164426
-0.078946
-0.075676
-0.0565193
-0.0395816
-0.0277777
-0.0194731
-0.0131402
-0.00820363
-0.00433556
-0.0014506
-0.108183
-0.0929486
-0.0633196
-0.0408366
-0.0269533
-0.0181276
-0.0118277
-0.00704949
-0.00358798
-0.00115192
-0.147776
-0.11385
-0.0727394
-0.0428053
-0.0259035
-0.0163322
-0.0101528
-0.00561428
-0.00269685
-0.000680708
-0.189192
-0.131709
-0.082168
-0.0442356
-0.0244777
-0.0141261
-0.00821751
-0.0040226
-0.00176202
-5.29584e-07
-0.247286
-0.140718
-0.0881699
-0.0427768
-0.0227444
-0.0117336
-0.00636854
-0.00253898
-0.00100021
0.000841674
-0.313817
-0.148817
-0.0917901
-0.0395219
-0.0222459
-0.0104018
-0.00565203
-0.00179925
-0.000834471
0.00149487
-0.321622
-0.146442
-0.0906791
-0.0378206
-0.0217436
-0.00990985
-0.00540733
-0.0016083
-0.000774821
0.00164143
-0.316845
-0.140936
-0.0882301
-0.0359227
-0.021098
-0.00941212
-0.00515977
-0.00144322
-0.000704062
0.00175253
-0.311142
-0.136921
-0.0864058
-0.0344724
-0.0206066
-0.0090062
-0.00495451
-0.00130275
-0.000641711
0.00185116
-0.30625
-0.134016
-0.0850276
-0.0333043
-0.0202185
-0.00866503
-0.0047824
-0.00118153
-0.000589353
0.00193989
-0.301647
-0.13157
-0.083833
-0.0323178
-0.0198907
-0.00837515
-0.00463739
-0.0010792
-0.000545451
0.00201594
-0.297461
-0.129514
-0.0828164
-0.0315177
-0.0196224
-0.00813932
-0.00452002
-0.000996739
-0.000509803
0.00207772
-0.29405
-0.127923
-0.0820274
-0.0309176
-0.0194194
-0.00796112
-0.00443151
-0.000934673
-0.000482763
0.0021246
-0.291659
-0.126842
-0.081492
-0.0305193
-0.0192838
-0.00784194
-0.00437235
-0.000893203
-0.000464611
0.00215613
-0.290428
-0.126294
-0.0812216
-0.0303208
-0.019216
-0.00778224
-0.00434271
-0.000872427
-0.000455501
0.00217197
)
;

boundaryField
{
    inlet
    {
        type            zeroGradient;
    }
    outlet
    {
        type            fixedValue;
        value           uniform 0;
    }
    cylinder
    {
        type            zeroGradient;
    }
    top
    {
        type            symmetryPlane;
    }
    bottom
    {
        type            symmetryPlane;
    }
    defaultFaces
    {
        type            empty;
    }
}


// ************************************************************************* //
