/*--------------------------------*- C++ -*----------------------------------*\
  =========                 |
  \\      /  F ield         | OpenFOAM: The Open Source CFD Toolbox
   \\    /   O peration     | Website:  https://openfoam.org
    \\  /    A nd           | Version:  6.0
     \\/     M anipulation  |
\*---------------------------------------------------------------------------*/
FoamFile
{
    version     2.0;
    format      ascii;
    class       volVectorField;
    location    "69";
    object      U;
}
// * * * * * * * * * * * * * * * * * * * * * * * * * * * * * * * * * * * * * //

dimensions      [0 1 -1 0 0 0 0];

internalField   nonuniform List<vector> 
2000
(
(-0.00199122 0.00173833 5.72896e-20)
(-0.00762155 0.00330252 6.80424e-20)
(-0.01533 0.00366178 -6.48676e-20)
(-0.0223323 0.00333746 -1.32364e-19)
(-0.0276803 0.00263982 -9.24632e-20)
(-0.0312213 0.001772 1.2318e-19)
(-0.0330527 0.00087937 7.1749e-20)
(-0.0334436 6.86477e-05 -2.90247e-20)
(-0.0328262 -0.000581046 -7.24565e-20)
(-0.0314952 -0.00100583 5.28304e-20)
(-0.00248969 0.00512128 -1.42005e-19)
(-0.00837064 0.00968539 1.96035e-19)
(-0.0157251 0.0106973 1.95483e-20)
(-0.022025 0.0096972 -1.13551e-19)
(-0.0264593 0.00759797 5.43354e-19)
(-0.0289517 0.00499651 -2.39136e-19)
(-0.0296475 0.00232113 -2.58715e-19)
(-0.0288424 -0.000109863 3.12042e-19)
(-0.0269847 -0.00205475 -3.07747e-19)
(-0.0244468 -0.00332108 1.55254e-19)
(-0.00343574 0.00822483 2.35846e-20)
(-0.00972805 0.0154094 8.38818e-21)
(-0.0163014 0.0168859 5.87512e-19)
(-0.0211436 0.01514 2.06094e-19)
(-0.0237175 0.0116331 4.08751e-20)
(-0.0240981 0.00731669 3.38019e-19)
(-0.0225237 0.00287675 -6.42022e-19)
(-0.0193385 -0.00116395 1.39244e-20)
(-0.0150202 -0.00438863 -3.79647e-19)
(-0.0101031 -0.00647372 4.18226e-19)
(-0.00472402 0.0108679 -4.43649e-20)
(-0.0114033 0.0200601 2.55239e-19)
(-0.0166177 0.0217187 -7.43649e-19)
(-0.0191361 0.019149 -9.61235e-20)
(-0.018832 0.0142673 -5.47351e-19)
(-0.0160035 0.00831146 5.66871e-19)
(-0.0110228 0.00217615 -6.01273e-19)
(-0.00429659 -0.00342954 4.22265e-19)
(0.00366264 -0.00789588 1.77521e-19)
(0.0120629 -0.0107637 -2.00595e-19)
(-0.00618704 0.0128747 -4.93783e-19)
(-0.0129399 0.0232572 4.4559e-21)
(-0.0159822 0.0247662 9.16068e-19)
(-0.0151343 0.0213425 2.74634e-19)
(-0.0108146 0.015225 -8.73237e-19)
(-0.00361593 0.00783535 5.42997e-19)
(0.00591803 0.000196406 6.15477e-19)
(0.0173135 -0.00683837 -5.48745e-19)
(0.0300351 -0.0124517 3.91251e-19)
(0.0429229 -0.0160459 9.60765e-20)
(-0.00758375 0.0140743 6.74969e-20)
(-0.0136957 0.0246648 1.25187e-20)
(-0.0134291 0.0257005 -1.17119e-18)
(-0.00792075 0.0215114 -6.55217e-19)
(0.00173551 0.0144921 7.81618e-19)
(0.0145785 0.00611555 -9.15307e-19)
(0.0298491 -0.00258948 1.04885e-18)
(0.0470083 -0.0107138 -9.05977e-20)
(0.0655388 -0.0172481 -2.95074e-19)
(0.0837984 -0.0214693 -8.57614e-19)
(-0.0085878 0.014304 -1.4687e-19)
(-0.0128318 0.0240055 -2.68247e-19)
(-0.00771336 0.0243087 -3.29555e-19)
(0.00407923 0.0196269 7.03029e-19)
(0.0206594 0.0123269 1.30412e-18)
(0.0406174 0.00378483 -2.69543e-19)
(0.0629137 -0.00513188 -6.56018e-19)
(0.0869285 -0.0136316 2.00087e-19)
(0.112248 -0.0206138 -1.26006e-18)
(0.136672 -0.0252818 1.38406e-18)
(-0.00878373 0.0134241 8.98268e-19)
(-0.00932805 0.0210859 -4.90318e-19)
(0.00264603 0.0205022 9.57247e-19)
(0.0227355 0.0158175 -1.56395e-18)
(0.0481731 0.00920569 -7.47278e-19)
(0.0770137 0.0018264 -1.03508e-18)
(0.107829 -0.00579378 3.00718e-19)
(0.139842 -0.0132481 -8.37259e-19)
(0.172875 -0.0195723 1.82327e-18)
(0.204272 -0.0240788 5.10388e-19)
(-0.00768224 0.0113475 6.61292e-20)
(-0.00204469 0.015839 7.98688e-19)
(0.0192553 0.0143225 1.58717e-18)
(0.0500644 0.0103002 4.85006e-19)
(0.0867016 0.00565941 1.43554e-18)
(0.126594 0.00136022 7.86847e-20)
(0.167732 -0.00240694 -7.09163e-22)
(0.208919 -0.00569205 5.78751e-19)
(0.250231 -0.00783823 4.68103e-19)
(0.289113 -0.00926179 -1.51926e-18)
(-0.00477047 0.00808578 -5.32098e-19)
(0.0101468 0.00838454 -8.91186e-19)
(0.0436434 0.00593791 -1.29537e-18)
(0.0879958 0.00320918 3.06109e-20)
(0.138749 0.001757 -6.60367e-19)
(0.192804 0.00254306 1.04081e-18)
(0.247586 0.00588964 -2.86548e-18)
(0.301159 0.0120156 1.28646e-18)
(0.352881 0.0215155 4.83547e-19)
(0.400027 0.0302483 1.51712e-18)
(0.000388666 0.00380853 2.66173e-19)
(0.0281179 -0.000874387 -1.01894e-18)
(0.0768093 -0.00427278 9.09814e-19)
(0.137563 -0.00546133 -3.52977e-19)
(0.205553 -0.00344229 3.83942e-19)
(0.277819 0.00270801 8.35866e-19)
(0.352527 0.0137261 -1.12225e-18)
(0.429273 0.0305534 1.45808e-19)
(0.509035 0.0524536 -5.37765e-19)
(0.594169 0.0694541 1.0911e-18)
(0.00806018 -0.00110793 3.81363e-19)
(0.05226 -0.011093 -9.23803e-19)
(0.118756 -0.0153294 1.25868e-18)
(0.197748 -0.0150186 -7.83864e-19)
(0.284047 -0.0102792 -2.87556e-19)
(0.374602 -0.000971676 1.70247e-19)
(0.467604 0.0128155 8.80209e-20)
(0.562486 0.0307705 1.19394e-18)
(0.658901 0.0501774 3.43709e-19)
(0.754557 0.0623406 1.46941e-18)
(0.0183519 -0.00610192 -3.40399e-19)
(0.0826125 -0.0209185 1.19443e-18)
(0.169007 -0.0252636 -9.96636e-19)
(0.267054 -0.0228309 -1.16884e-18)
(0.371087 -0.0151005 1.63534e-18)
(0.477614 -0.00286549 -1.24342e-18)
(0.584238 0.0129435 3.28445e-19)
(0.689403 0.0312142 -1.94708e-18)
(0.791331 0.0492645 1.45849e-18)
(0.886039 0.0617498 7.28721e-20)
(0.0312702 -0.0105458 -4.43621e-19)
(0.118976 -0.0287937 -4.2843e-19)
(0.226869 -0.0317842 -9.12308e-19)
(0.344062 -0.0258912 1.10583e-18)
(0.464445 -0.0140392 -5.58541e-20)
(0.584059 0.00207644 7.14917e-19)
(0.699966 0.0208544 1.30421e-18)
(0.809928 0.0407969 -4.00788e-19)
(0.911575 0.0598095 -1.4176e-18)
(1.0009 0.0748787 2.81448e-18)
(0.0467451 -0.0138316 -2.29304e-19)
(0.16091 -0.0332167 -2.73514e-19)
(0.291339 -0.0327799 4.92211e-19)
(0.427113 -0.0216644 -9.14888e-19)
(0.561882 -0.00426145 1.56304e-19)
(0.691439 0.0168806 1.39095e-19)
(0.812661 0.0396131 6.09999e-20)
(0.923198 0.0622305 -9.85865e-21)
(1.02086 0.0832296 -1.49426e-19)
(1.10226 0.100992 -2.37938e-18)
(0.0646183 -0.0153976 9.30813e-19)
(0.207682 -0.0328631 -6.49604e-19)
(0.360981 -0.0265371 8.30767e-21)
(0.514052 -0.00833827 -9.89341e-19)
(0.660652 0.0159069 -3.53958e-19)
(0.7967 0.0428759 3.30955e-19)
(0.919359 0.0699944 2.57015e-19)
(1.02673 0.0954719 -9.15861e-19)
(1.11735 0.118343 7.48586e-19)
(1.18884 0.137793 -9.81502e-19)
(0.0846109 -0.0147325 4.01744e-19)
(0.258228 -0.0266431 -3.57043e-19)
(0.433899 -0.0118353 1.483e-18)
(0.602223 0.015101 1.51203e-19)
(0.757548 0.0470194 3.47493e-19)
(0.89641 0.0799696 1.54879e-18)
(1.01678 0.111131 -2.36811e-19)
(1.11772 0.138798 2.15769e-19)
(1.19888 0.162565 8.93469e-20)
(1.25919 0.182097 -1.09969e-19)
(0.106293 -0.0113861 2.80676e-19)
(0.31114 -0.0137427 6.74809e-19)
(0.507779 0.0120121 -7.22882e-19)
(0.688607 0.0488896 -2.44721e-19)
(0.849157 0.0886662 -3.02307e-19)
(0.987141 0.127018 4.6841e-19)
(1.10185 0.161148 -2.43643e-19)
(1.19374 0.189675 6.55494e-19)
(1.26384 0.212847 2.2058e-19)
(1.31249 0.230667 -3.59615e-19)
(0.129071 -0.00499454 -3.02463e-19)
(0.3647 0.00632852 2.68841e-19)
(0.580014 0.0451371 -5.73655e-19)
(0.770037 0.092543 2.47446e-19)
(0.932157 0.139656 -2.56757e-19)
(1.06583 0.182158 -3.20443e-19)
(1.17213 0.217628 -2.57327e-19)
(1.25319 0.245301 2.8758e-19)
(1.3115 0.266204 -5.42198e-19)
(1.34885 0.280637 3.27668e-19)
(0.152191 0.00468204 -1.07814e-19)
(0.416945 0.0336823 -2.10896e-19)
(0.647852 0.0871018 1.00428e-19)
(0.84343 0.144924 6.19179e-21)
(1.0036 0.198186 8.33288e-20)
(1.13007 0.243068 1.14319e-19)
(1.22601 0.277938 1.05949e-19)
(1.29535 0.302935 -1.40493e-19)
(1.34201 0.31998 1.19605e-19)
(1.36911 0.329676 -1.87176e-19)
(0.174775 0.017719 -6.24089e-20)
(0.465772 0.0680015 -2.34114e-20)
(0.708577 0.1369 9.3161e-20)
(0.906006 0.204326 -4.28881e-20)
(1.0611 0.262007 1.14308e-19)
(1.17821 0.307193 -1.47592e-19)
(1.26274 0.339451 3.42078e-20)
(1.32037 0.360077 3.67045e-20)
(1.35627 0.371952 -1.53843e-20)
(1.37464 0.375987 5.82063e-20)
(0.195856 0.0339917 -6.73275e-20)
(0.509069 0.10851 -3.04675e-19)
(0.759688 0.192986 -2.11021e-20)
(0.955467 0.268575 6.27141e-21)
(1.10299 0.328579 -3.96269e-19)
(1.20943 0.371907 5.23872e-20)
(1.28239 0.399693 -4.45999e-20)
(1.3291 0.414557 -1.07575e-19)
(1.35567 0.42033 2.24274e-19)
(1.36714 0.418232 -4.08919e-19)
(0.214444 0.0531504 -3.25168e-20)
(0.54485 0.15397 6.17054e-19)
(0.799063 0.253335 9.9424e-20)
(0.990133 0.335148 -5.43235e-19)
(1.12837 0.395217 -4.40511e-20)
(1.22372 0.434653 -5.20567e-19)
(1.28574 0.456425 3.81584e-19)
(1.32289 0.464539 -1.38444e-19)
(1.34191 0.463703 2.45593e-19)
(1.34841 0.455421 -1.79438e-19)
(0.229586 0.074612 -2.0505e-19)
(0.571392 0.202718 1.95836e-19)
(0.825092 0.315541 -1.41351e-19)
(1.00902 0.401307 1.06544e-18)
(1.13708 0.459223 5.25824e-19)
(1.22172 0.493028 -1.21912e-19)
(1.27409 0.507671 4.10711e-19)
(1.30345 0.508499 -2.7025e-19)
(1.31688 0.500957 -7.52861e-20)
(1.32028 0.486799 4.93963e-19)
(0.240435 0.0975683 -3.54914e-19)
(0.587355 0.252731 4.51646e-19)
(0.836772 0.376931 -8.88606e-19)
(1.01185 0.464233 1.24791e-19)
(1.12966 0.51799 2.7886e-19)
(1.20468 0.544843 -4.27646e-19)
(1.24914 0.551725 -4.97905e-19)
(1.27272 0.545172 2.18552e-19)
(1.28252 0.531184 -2.6316e-19)
(1.28453 0.511755 3.15935e-19)
(0.246311 0.121012 -8.96742e-20)
(0.591872 0.301725 -4.59564e-19)
(0.833754 0.434707 2.5425e-19)
(0.999029 0.521159 4.2636e-19)
(1.10725 0.569097 -2.564e-19)
(1.17428 0.588156 -1.91023e-19)
(1.21287 0.587119 -1.04297e-19)
(1.23273 0.573485 -5.15609e-20)
(1.24077 0.553598 1.0786e-20)
(1.24291 0.52972 1.07504e-19)
(0.246758 0.143785 6.58178e-20)
(0.584617 0.347278 -3.85615e-19)
(0.816339 0.486098 6.4316e-19)
(0.971581 0.569494 -3.81065e-19)
(1.07145 0.610386 1.06474e-19)
(1.13247 0.621291 -1.5105e-19)
(1.16741 0.612602 1.62612e-19)
(1.18559 0.592496 3.11441e-20)
(1.19356 0.567431 -7.80216e-20)
(1.19711 0.540022 1.51537e-19)
(0.241593 0.164635 -1.73024e-19)
(0.565832 0.386974 3.3803e-19)
(0.785448 0.528508 -1.52034e-20)
(0.931025 0.60695 -7.32212e-20)
(1.02419 0.640034 -2.01307e-19)
(1.08145 0.642882 2.48044e-20)
(1.11501 0.627183 6.15393e-20)
(1.1335 0.601458 -1.51527e-19)
(1.14302 0.571983 1.76976e-19)
(1.1492 0.541879 1.50331e-19)
(0.230935 0.18231 3.84244e-20)
(0.536325 0.418561 -8.09265e-20)
(0.742531 0.559669 2.42491e-20)
(0.879238 0.631621 1.24371e-20)
(0.967553 0.656554 7.79826e-20)
(1.02334 0.651785 -1.44072e-19)
(1.05788 0.629967 -3.01357e-19)
(1.07891 0.599657 -1.22932e-19)
(1.09213 0.566623 -1.57126e-19)
(1.10255 0.534701 1.33131e-19)
(0.21523 0.195653 1.10791e-19)
(0.497429 0.44013 -1.71726e-19)
(0.689467 0.577805 1.65751e-19)
(0.818263 0.64211 -3.14839e-19)
(0.903421 0.658818 7.63867e-20)
(0.959695 0.646834 5.16208e-19)
(0.997277 0.619363 -1.58296e-19)
(1.02316 0.584703 1.88174e-19)
(1.04271 0.548005 2.75482e-19)
(1.05903 0.515028 1.002e-18)
(0.195249 0.203726 6.80467e-19)
(0.450967 0.450295 -4.63023e-19)
(0.628513 0.581864 1.12683e-18)
(0.750268 0.637905 -1.92984e-19)
(0.833389 0.646759 9.66779e-19)
(0.891057 0.628052 6.0655e-19)
(0.93231 0.594737 -1.42499e-18)
(0.96357 0.553881 2.16353e-18)
(0.989456 0.507899 -4.57217e-19)
(1.00632 0.461007 8.99682e-19)
(0.17205 0.205874 -3.75362e-19)
(0.399204 0.448254 -2.67608e-19)
(0.562391 0.571529 2.58805e-19)
(0.677928 0.619481 -6.41016e-19)
(0.759661 0.622009 -2.00217e-18)
(0.818699 0.598991 -8.05203e-19)
(0.862692 0.563188 -7.25753e-19)
(0.897113 0.521741 3.51223e-19)
(0.925116 0.478159 2.92727e-18)
(0.942605 0.437392 -6.0891e-19)
(0.146894 0.201721 1.97538e-19)
(0.344727 0.433649 -7.99432e-19)
(0.494241 0.546774 1.75834e-19)
(0.604666 0.587133 -1.28048e-18)
(0.686058 0.585016 2.80349e-18)
(0.747292 0.559929 -3.24926e-19)
(0.794583 0.52408 1.52765e-18)
(0.832423 0.484257 -2.18836e-18)
(0.863341 0.443962 6.86541e-19)
(0.884648 0.407477 1.06207e-19)
(0.121118 0.191156 1.4562e-19)
(0.290163 0.40655 8.81731e-19)
(0.427119 0.507894 -2.58996e-18)
(0.533587 0.541229 1.26029e-18)
(0.615632 0.535982 -4.161e-21)
(0.679887 0.510616 -4.25288e-19)
(0.731204 0.47643 5.35228e-19)
(0.773235 0.439624 -5.31935e-19)
(0.808165 0.403351 -1.82851e-18)
(0.834247 0.370865 -5.01007e-19)
(0.0960486 0.174334 4.76481e-19)
(0.238033 0.367474 5.34623e-19)
(0.363854 0.455615 2.20822e-18)
(0.467419 0.482513 -1.22845e-18)
(0.550831 0.4755 2.53214e-18)
(0.618565 0.451352 -5.45427e-19)
(0.674213 0.420139 -5.76535e-19)
(0.720699 0.387299 6.81308e-19)
(0.759931 0.355515 4.4421e-19)
(0.790869 0.327125 1.6106e-18)
(0.0729448 0.15167 -4.83561e-19)
(0.190664 0.317377 1.57842e-19)
(0.306988 0.391111 4.26869e-20)
(0.408535 0.412151 1.25235e-18)
(0.493702 0.404589 -3.12608e-18)
(0.56499 0.382954 5.31054e-19)
(0.624864 0.355821 1.17263e-18)
(0.675617 0.327751 -1.41765e-18)
(0.718933 0.300911 4.99431e-19)
(0.754394 0.276898 -2.31789e-18)
(0.0529468 0.123826 1.0305e-19)
(0.150114 0.257626 5.55921e-19)
(0.258722 0.315974 2.16217e-19)
(0.358945 0.331692 2.93022e-19)
(0.445941 0.324635 5.61475e-19)
(0.520504 0.306609 1.67169e-18)
(0.584154 0.284488 -2.04678e-18)
(0.638655 0.261882 -1.1528e-18)
(0.685522 0.240441 1.9104e-19)
(0.724903 0.221195 1.50299e-18)
(0.0370318 0.0916908 -6.23152e-19)
(0.118111 0.189953 -7.41314e-20)
(0.220874 0.23216 -6.20981e-19)
(0.320288 0.243022 8.8437e-20)
(0.408909 0.237333 -5.31594e-19)
(0.486184 0.2238 -6.0691e-19)
(0.55289 0.207442 -9.04451e-19)
(0.610384 0.190868 2.43725e-18)
(0.660066 0.175233 4.20486e-19)
(0.702561 0.161149 -6.40957e-19)
(0.0259729 0.0563424 3.35847e-19)
(0.0960029 0.116392 4.43912e-19)
(0.194847 0.141927 1.74894e-19)
(0.293812 0.148292 -9.43904e-19)
(0.38364 0.144614 -4.3943e-19)
(0.462844 0.136226 -9.46241e-20)
(0.531693 0.126185 1.84898e-19)
(0.591264 0.116066 1.48465e-19)
(0.642892 0.106552 -1.14804e-18)
(0.687548 0.0979587 6.58768e-19)
(0.0203063 0.0190052 -1.74895e-19)
(0.084714 0.0392056 -1.98972e-19)
(0.181592 0.0477521 1.58584e-19)
(0.280361 0.0498477 1.40795e-19)
(0.37083 0.0485768 1.44295e-19)
(0.451036 0.0457361 2.20676e-19)
(0.520987 0.0423508 -1.16023e-20)
(0.581621 0.0389484 -2.89467e-19)
(0.634242 0.0357542 2.74962e-19)
(0.680003 0.0328652 -4.13693e-19)
(0.0203063 -0.0190052 -1.76045e-19)
(0.084714 -0.0392056 -1.89616e-19)
(0.181592 -0.047752 1.74745e-19)
(0.280361 -0.0498476 3.42135e-19)
(0.37083 -0.0485767 2.27968e-19)
(0.451036 -0.045736 -3.00378e-19)
(0.520987 -0.0423508 -1.63223e-19)
(0.581621 -0.0389483 7.11807e-20)
(0.634242 -0.0357542 1.60033e-19)
(0.680003 -0.0328652 -9.52973e-20)
(0.0259729 -0.0563424 4.20122e-19)
(0.0960029 -0.116392 -5.3393e-19)
(0.194847 -0.141927 -4.44096e-20)
(0.293812 -0.148292 2.95834e-19)
(0.38364 -0.144613 -1.33752e-18)
(0.462844 -0.136226 5.71509e-19)
(0.531693 -0.126185 5.8996e-19)
(0.591264 -0.116066 -6.96475e-19)
(0.642892 -0.106552 6.653e-19)
(0.687548 -0.0979586 -2.92006e-19)
(0.0370318 -0.0916908 -7.2636e-20)
(0.118111 -0.189953 -9.26707e-21)
(0.220874 -0.23216 -1.44219e-18)
(0.320288 -0.243022 -4.58788e-19)
(0.408909 -0.237333 -4.83723e-20)
(0.486184 -0.2238 -7.54748e-19)
(0.55289 -0.207442 1.40629e-18)
(0.610384 -0.190868 -4.9421e-20)
(0.660066 -0.175233 8.03024e-19)
(0.702561 -0.161149 -7.06085e-19)
(0.0529468 -0.123826 1.22673e-19)
(0.150114 -0.257626 -5.67947e-19)
(0.258722 -0.315974 1.74758e-18)
(0.358945 -0.331692 2.473e-19)
(0.445941 -0.324635 1.21578e-18)
(0.520504 -0.306609 -1.18859e-18)
(0.584154 -0.284488 1.24778e-18)
(0.638655 -0.261882 -8.99615e-19)
(0.685522 -0.240441 -3.95066e-19)
(0.724903 -0.221195 3.35616e-19)
(0.0729448 -0.15167 1.09541e-18)
(0.190664 -0.317376 2.80494e-21)
(0.306988 -0.391111 -1.84179e-18)
(0.408535 -0.412151 -5.3436e-19)
(0.493702 -0.404588 1.77429e-18)
(0.56499 -0.382953 -1.03984e-18)
(0.624864 -0.35582 -1.2038e-18)
(0.675617 -0.327751 1.08312e-18)
(0.718933 -0.300911 -7.37383e-19)
(0.754394 -0.276898 -1.58975e-19)
(0.0960486 -0.174334 -1.63517e-19)
(0.238033 -0.367474 -7.75594e-21)
(0.363854 -0.455615 1.99879e-18)
(0.467419 -0.482513 1.14608e-18)
(0.550831 -0.4755 -1.35151e-18)
(0.618565 -0.451352 1.63639e-18)
(0.674213 -0.420139 -1.77566e-18)
(0.720699 -0.387299 1.76701e-19)
(0.759931 -0.355515 5.28881e-19)
(0.790869 -0.327125 1.22378e-18)
(0.121118 -0.191156 1.8744e-19)
(0.290163 -0.40655 3.01847e-19)
(0.427119 -0.507894 3.28341e-19)
(0.533587 -0.541229 -1.05559e-18)
(0.615632 -0.535982 -1.8803e-18)
(0.679887 -0.510616 3.95966e-19)
(0.731204 -0.476429 1.14585e-18)
(0.773235 -0.439624 -3.27996e-19)
(0.808164 -0.403351 1.97471e-18)
(0.834247 -0.370865 -1.92479e-18)
(0.146894 -0.201721 -1.06107e-18)
(0.344727 -0.433649 4.07729e-19)
(0.494241 -0.546774 -1.10094e-18)
(0.604666 -0.587133 1.77982e-18)
(0.686058 -0.585016 8.89985e-19)
(0.747292 -0.559929 1.25656e-18)
(0.794583 -0.52408 -2.90795e-19)
(0.832423 -0.484257 1.14574e-18)
(0.863341 -0.443962 -2.42576e-18)
(0.884648 -0.407477 -6.32412e-19)
(0.17205 -0.205874 6.24626e-20)
(0.399204 -0.448254 -7.12844e-19)
(0.562391 -0.571529 -1.14141e-18)
(0.677928 -0.619481 -4.83608e-19)
(0.759661 -0.622009 -1.3666e-18)
(0.818699 -0.598991 -1.38992e-19)
(0.862692 -0.563188 1.18832e-19)
(0.897113 -0.521741 -5.34021e-19)
(0.925116 -0.478159 -5.96801e-19)
(0.942605 -0.437392 1.57391e-18)
(0.195249 -0.203726 3.35421e-19)
(0.450967 -0.450295 4.68419e-19)
(0.628513 -0.581864 8.39159e-19)
(0.750268 -0.637905 3.72161e-20)
(0.833389 -0.646758 5.59895e-19)
(0.891057 -0.628052 -7.66695e-19)
(0.93231 -0.594737 2.3408e-18)
(0.96357 -0.55388 -1.03351e-18)
(0.989456 -0.507899 -5.07574e-19)
(1.00632 -0.461007 -1.53054e-18)
(0.21523 -0.195653 -1.32116e-19)
(0.497429 -0.44013 2.33407e-19)
(0.689467 -0.577805 -2.39183e-19)
(0.818262 -0.64211 1.28948e-19)
(0.903421 -0.658818 -1.5238e-19)
(0.959695 -0.646834 -3.90807e-19)
(0.997277 -0.619363 5.14086e-19)
(1.02316 -0.584703 -1.68155e-19)
(1.04271 -0.548005 2.60875e-19)
(1.05903 -0.515028 -5.69263e-19)
(0.230935 -0.18231 -7.3935e-21)
(0.536325 -0.418561 -1.06458e-19)
(0.742531 -0.559669 2.1167e-20)
(0.879238 -0.631621 1.44577e-19)
(0.967553 -0.656554 -6.53302e-20)
(1.02334 -0.651785 1.75389e-20)
(1.05788 -0.629967 -1.719e-20)
(1.07891 -0.599657 -3.83372e-19)
(1.09213 -0.566623 -1.77961e-19)
(1.10255 -0.534701 -5.59997e-19)
(0.241593 -0.164635 -9.61275e-20)
(0.565832 -0.386974 3.3923e-19)
(0.785448 -0.528508 -2.1075e-19)
(0.931025 -0.60695 -7.59491e-20)
(1.02419 -0.640034 3.39054e-20)
(1.08145 -0.642882 7.15274e-20)
(1.11501 -0.627183 -7.02449e-21)
(1.1335 -0.601458 2.92471e-19)
(1.14302 -0.571983 -2.52731e-19)
(1.1492 -0.541879 -3.58099e-21)
(0.246758 -0.143785 -2.36703e-19)
(0.584617 -0.347278 -1.48236e-19)
(0.816339 -0.486098 -3.68092e-19)
(0.971581 -0.569494 4.18717e-19)
(1.07145 -0.610386 -3.07019e-20)
(1.13247 -0.621291 1.36098e-19)
(1.16741 -0.612602 1.53585e-19)
(1.18559 -0.592496 -5.58703e-20)
(1.19356 -0.567431 5.05061e-20)
(1.19711 -0.540022 -1.59905e-19)
(0.246311 -0.121012 -1.61016e-19)
(0.591872 -0.301725 -2.06831e-19)
(0.833754 -0.434707 3.11654e-19)
(0.999029 -0.521159 -4.68251e-19)
(1.10725 -0.569097 8.22568e-20)
(1.17428 -0.588156 4.1573e-20)
(1.21287 -0.587119 9.19865e-20)
(1.23273 -0.573484 -6.04728e-20)
(1.24077 -0.553598 -7.242e-20)
(1.24291 -0.52972 -2.3586e-19)
(0.240435 -0.0975683 6.71294e-19)
(0.587355 -0.252731 -5.25368e-19)
(0.836772 -0.376931 2.45462e-20)
(1.01185 -0.464233 -6.73192e-19)
(1.12966 -0.51799 -1.95425e-19)
(1.20468 -0.544843 1.56342e-19)
(1.24914 -0.551725 1.14542e-19)
(1.27272 -0.545172 -3.82058e-19)
(1.28252 -0.531184 1.67681e-19)
(1.28453 -0.511755 -3.02423e-19)
(0.229586 -0.074612 3.33146e-19)
(0.571392 -0.202718 -3.29717e-19)
(0.825092 -0.315541 1.18316e-18)
(1.00902 -0.401307 9.43455e-20)
(1.13708 -0.459222 2.68321e-19)
(1.22172 -0.493027 9.57145e-19)
(1.27409 -0.507671 -1.98961e-19)
(1.30345 -0.508499 4.83132e-20)
(1.31688 -0.500956 -2.84392e-20)
(1.32028 -0.486799 -4.95281e-20)
(0.214444 -0.0531504 2.56804e-19)
(0.54485 -0.15397 5.83526e-19)
(0.799063 -0.253335 -5.94774e-19)
(0.990133 -0.335148 -1.8066e-19)
(1.12837 -0.395217 -1.91266e-19)
(1.22372 -0.434653 3.76542e-19)
(1.28574 -0.456425 -1.77681e-19)
(1.32289 -0.464539 4.1893e-19)
(1.34191 -0.463703 1.00803e-19)
(1.34841 -0.455421 -1.77283e-19)
(0.195856 -0.0339917 -2.77401e-19)
(0.509069 -0.10851 2.57422e-19)
(0.759688 -0.192985 -5.2849e-19)
(0.955467 -0.268575 2.21265e-19)
(1.10299 -0.328579 -2.21761e-19)
(1.20943 -0.371907 -2.63695e-19)
(1.28239 -0.399693 -2.04601e-19)
(1.3291 -0.414557 2.25737e-19)
(1.35567 -0.42033 -3.92355e-19)
(1.36714 -0.418232 2.48385e-19)
(0.174775 -0.017719 -1.03925e-19)
(0.465772 -0.0680015 -2.03935e-19)
(0.708577 -0.1369 9.59351e-20)
(0.906006 -0.204326 7.08307e-21)
(1.0611 -0.262007 7.63527e-20)
(1.17821 -0.307192 1.09396e-19)
(1.26274 -0.339451 9.31487e-20)
(1.32037 -0.360077 -1.26029e-19)
(1.35627 -0.371952 1.02735e-19)
(1.37464 -0.375987 -1.62285e-19)
(0.152191 -0.00468204 -6.54857e-20)
(0.416945 -0.0336823 -2.63952e-20)
(0.647852 -0.0871018 9.83491e-20)
(0.84343 -0.144924 -4.43695e-20)
(1.0036 -0.198186 1.2417e-19)
(1.13007 -0.243068 -1.56951e-19)
(1.22601 -0.277938 4.03215e-20)
(1.29535 -0.302935 3.46031e-20)
(1.34201 -0.31998 -1.23614e-20)
(1.36911 -0.329676 5.67345e-20)
(0.129071 0.00499455 -7.85607e-20)
(0.3647 -0.00632852 -3.33061e-19)
(0.580014 -0.0451371 -2.68241e-20)
(0.770037 -0.092543 1.07068e-20)
(0.932157 -0.139656 -4.61988e-19)
(1.06583 -0.182158 4.87855e-20)
(1.17213 -0.217628 -5.16873e-20)
(1.25319 -0.245301 -1.40585e-19)
(1.3115 -0.266204 3.11068e-19)
(1.34885 -0.280637 -5.65929e-19)
(0.106293 0.0113861 -4.45383e-20)
(0.31114 0.0137427 7.14362e-19)
(0.507779 -0.0120121 9.52788e-20)
(0.688607 -0.0488896 -6.45309e-19)
(0.849157 -0.0886662 -7.72717e-20)
(0.987141 -0.127018 -7.27701e-19)
(1.10185 -0.161148 5.65834e-19)
(1.19374 -0.189675 -2.29656e-19)
(1.26384 -0.212847 4.35297e-19)
(1.31249 -0.230667 -3.84018e-19)
(0.0846109 0.0147325 -2.51895e-19)
(0.258228 0.0266431 2.93296e-19)
(0.433899 0.0118353 -2.04868e-19)
(0.602223 -0.015101 1.41611e-18)
(0.757548 -0.0470194 7.49592e-19)
(0.89641 -0.0799696 -1.96286e-19)
(1.01678 -0.111131 7.63239e-19)
(1.11772 -0.138798 -4.99033e-19)
(1.19888 -0.162564 -1.60482e-19)
(1.25919 -0.182097 1.1595e-18)
(0.0646184 0.0153976 -4.65666e-19)
(0.207682 0.0328631 6.95265e-19)
(0.360982 0.0265371 -1.31852e-18)
(0.514052 0.00833829 2.28231e-19)
(0.660652 -0.0159069 5.69047e-19)
(0.7967 -0.0428758 -7.15097e-19)
(0.919359 -0.0699944 -1.26652e-18)
(1.02673 -0.0954718 6.7896e-19)
(1.11735 -0.118343 -8.83e-19)
(1.18884 -0.137793 1.41308e-18)
(0.0467451 0.0138316 -1.15116e-19)
(0.16091 0.0332167 -6.99804e-19)
(0.291339 0.03278 3.45452e-19)
(0.427113 0.0216645 8.64151e-19)
(0.561882 0.00426147 -4.6418e-19)
(0.691439 -0.0168806 -4.58076e-19)
(0.812661 -0.0396131 -7.76646e-19)
(0.923198 -0.0622304 -3.55877e-19)
(1.02086 -0.0832296 -8.54663e-20)
(1.10226 -0.100992 1.4122e-18)
(0.0312702 0.0105458 1.93283e-19)
(0.118976 0.0287937 -9.50651e-19)
(0.226869 0.0317842 1.62604e-18)
(0.344062 0.0258912 -9.05438e-19)
(0.464445 0.0140392 5.86631e-19)
(0.584059 -0.00207641 -7.29946e-19)
(0.699966 -0.0208544 8.12984e-19)
(0.809928 -0.0407969 7.10026e-19)
(0.911575 -0.0598094 1.55132e-18)
(1.0009 -0.0748786 -2.56469e-18)
(0.018352 0.00610193 -6.00579e-19)
(0.0826125 0.0209185 1.20597e-18)
(0.169007 0.0252636 1.60936e-20)
(0.267054 0.0228309 -4.34377e-19)
(0.371087 0.0151005 -2.30674e-19)
(0.477614 0.00286553 1.84367e-19)
(0.584238 -0.0129434 -1.3089e-18)
(0.689404 -0.0312142 1.01126e-18)
(0.791331 -0.0492644 -1.30332e-18)
(0.886039 -0.0617497 -5.94913e-19)
(0.00806019 0.00110793 1.03348e-18)
(0.05226 0.011093 -3.22396e-19)
(0.118756 0.0153294 -6.04767e-19)
(0.197748 0.0150186 1.64252e-18)
(0.284047 0.0102792 -1.61347e-18)
(0.374602 0.000971708 9.01466e-19)
(0.467604 -0.0128155 9.601e-19)
(0.562486 -0.0307704 2.62725e-19)
(0.658901 -0.0501774 2.7325e-19)
(0.754557 -0.0623405 -3.87624e-19)
(0.000388672 -0.00380853 -9.88385e-19)
(0.0281179 0.000874395 9.39445e-19)
(0.0768093 0.0042728 -8.31374e-19)
(0.137563 0.00546135 1.04308e-18)
(0.205553 0.00344231 -3.11632e-19)
(0.277819 -0.00270799 -1.0823e-18)
(0.352527 -0.013726 3.10374e-19)
(0.429273 -0.0305534 -5.12089e-19)
(0.509035 -0.0524536 -6.06525e-19)
(0.594169 -0.069454 -1.8922e-18)
(-0.00477047 -0.00808578 -1.23468e-18)
(0.0101469 -0.00838453 9.81589e-19)
(0.0436435 -0.0059379 -1.92323e-18)
(0.0879958 -0.00320917 3.43906e-19)
(0.138749 -0.00175698 -1.33239e-18)
(0.192804 -0.00254303 -7.99098e-19)
(0.247586 -0.0058896 1.91233e-18)
(0.301159 -0.0120155 -2.61443e-18)
(0.352881 -0.0215155 5.03223e-19)
(0.400027 -0.0302483 -8.28661e-19)
(-0.00768224 -0.0113475 6.08183e-19)
(-0.00204468 -0.015839 2.57329e-19)
(0.0192553 -0.0143225 -7.65389e-20)
(0.0500644 -0.0103002 7.30845e-19)
(0.0867017 -0.00565939 2.14607e-18)
(0.126594 -0.0013602 7.40701e-19)
(0.167732 0.00240697 7.65346e-19)
(0.208919 0.00569209 -2.64639e-19)
(0.250232 0.00783829 -2.46851e-18)
(0.289113 0.00926186 6.2604e-19)
(-0.00878374 -0.0134242 -1.71696e-19)
(-0.00932805 -0.0210859 5.46474e-19)
(0.00264605 -0.0205023 -1.43157e-19)
(0.0227355 -0.0158175 1.0108e-18)
(0.0481732 -0.00920568 -2.33705e-18)
(0.0770137 -0.00182638 1.98369e-19)
(0.107829 0.00579381 -1.11226e-18)
(0.139842 0.0132481 1.63666e-18)
(0.172875 0.0195724 -4.78384e-19)
(0.204272 0.0240789 -6.83585e-20)
(-0.00858781 -0.014304 -1.16884e-19)
(-0.0128318 -0.0240055 -6.57198e-19)
(-0.00771335 -0.0243087 1.6528e-18)
(0.00407926 -0.0196269 -8.71447e-19)
(0.0206595 -0.0123269 6.12483e-20)
(0.0406175 -0.00378481 2.79662e-19)
(0.0629138 0.00513191 -2.55578e-19)
(0.0869286 0.0136317 3.32159e-19)
(0.112249 0.0206139 1.15097e-18)
(0.136672 0.0252819 3.01186e-19)
(-0.00758375 -0.0140743 -2.62164e-19)
(-0.0136957 -0.0246648 -2.91599e-19)
(-0.0134291 -0.0257005 -1.29431e-18)
(-0.00792073 -0.0215114 6.89177e-19)
(0.00173554 -0.0144921 -1.4215e-18)
(0.0145785 -0.00611553 3.22934e-19)
(0.0298492 0.00258952 3.63116e-19)
(0.0470083 0.0107139 -3.8374e-19)
(0.0655389 0.0172482 -2.48272e-19)
(0.0837985 0.0214694 -1.1158e-18)
(-0.00618705 -0.0128748 2.04798e-19)
(-0.0129399 -0.0232572 -4.81726e-20)
(-0.0159822 -0.0247663 9.7872e-22)
(-0.0151343 -0.0213426 -6.21997e-19)
(-0.0108146 -0.015225 1.57456e-18)
(-0.00361589 -0.00783533 -2.45593e-19)
(0.00591807 -0.000196373 -6.12885e-19)
(0.0173136 0.00683842 7.50144e-19)
(0.0300351 0.0124517 -2.63614e-19)
(0.042923 0.016046 1.45709e-18)
(-0.00472403 -0.010868 -3.84394e-20)
(-0.0114033 -0.0200602 -2.25368e-19)
(-0.0166177 -0.0217188 -8.89464e-20)
(-0.0191361 -0.019149 -1.13633e-19)
(-0.018832 -0.0142673 -2.44307e-19)
(-0.0160035 -0.00831144 -7.67215e-19)
(-0.0110227 -0.00217612 9.59691e-19)
(-0.00429656 0.00342959 5.60606e-19)
(0.00366269 0.00789595 -1.00427e-19)
(0.012063 0.0107638 -8.93743e-19)
(-0.00343574 -0.00822485 2.18285e-19)
(-0.00972806 -0.0154095 3.81454e-20)
(-0.0163014 -0.016886 2.582e-19)
(-0.0211435 -0.01514 -2.9552e-20)
(-0.0237175 -0.0116331 2.3511e-19)
(-0.0240981 -0.00731667 2.65259e-19)
(-0.0225237 -0.00287672 3.97675e-19)
(-0.0193385 0.001164 -1.12655e-18)
(-0.0150202 0.00438871 -2.07925e-19)
(-0.0101031 0.00647381 3.72645e-19)
(-0.00248969 -0.0051213 -1.10222e-19)
(-0.00837065 -0.00968543 -1.56659e-19)
(-0.0157251 -0.0106974 -7.53631e-20)
(-0.022025 -0.00969722 3.6861e-19)
(-0.0264593 -0.00759798 1.78924e-19)
(-0.0289517 -0.00499649 3.66934e-20)
(-0.0296475 -0.0023211 -7.95541e-20)
(-0.0288423 0.000109917 -6.1712e-20)
(-0.0269847 0.00205482 5.29711e-19)
(-0.0244468 0.00332117 -3.60773e-19)
(-0.00199122 -0.00173836 5.61898e-20)
(-0.00762155 -0.00330255 6.99161e-20)
(-0.01533 -0.00366181 -5.96168e-20)
(-0.0223323 -0.00333748 -5.45288e-20)
(-0.0276803 -0.00263983 -5.65381e-20)
(-0.0312213 -0.00177198 -9.02154e-20)
(-0.0330527 -0.000879336 2.89767e-21)
(-0.0334436 -6.85939e-05 1.25173e-19)
(-0.0328262 0.00058112 -1.25683e-19)
(-0.0314952 0.00100592 2.2867e-19)
(-0.00813531 -0.00258539 1.65342e-20)
(0.0621196 -0.00662703 9.88732e-21)
(0.277546 -0.00671059 1.33751e-21)
(0.376951 -0.00438926 -9.02382e-22)
(0.479665 -0.00368267 -6.3542e-23)
(0.553542 -0.00263818 1.48035e-22)
(0.606039 -0.00218364 1.66293e-22)
(0.66033 -0.00157853 -3.39852e-23)
(0.683565 -0.00146112 -2.49122e-24)
(0.733786 -0.00100923 2.43898e-22)
(0.00866418 -0.0080601 2.62203e-20)
(0.0773738 -0.0197191 1.25331e-21)
(0.289036 -0.0199767 -1.74797e-20)
(0.385708 -0.0130645 1.4044e-20)
(0.486373 -0.0109692 8.87106e-22)
(0.558777 -0.00786249 -5.93997e-22)
(0.61031 -0.00651186 6.88581e-22)
(0.66369 -0.00471123 6.9644e-23)
(0.686497 -0.00436426 1.39973e-22)
(0.73601 -0.00301493 -2.23509e-22)
(0.0419686 -0.0144151 2.68567e-20)
(0.107408 -0.0323302 -3.61023e-20)
(0.31159 -0.0327838 1.78688e-20)
(0.402909 -0.021439 -1.16341e-20)
(0.499556 -0.0180285 8.28179e-22)
(0.56908 -0.0129353 -6.45384e-22)
(0.618727 -0.0107251 -2.56742e-22)
(0.670321 -0.00776427 8.08048e-25)
(0.692295 -0.00720158 -1.07196e-22)
(0.740415 -0.00498107 -3.26309e-22)
(0.0911762 -0.0221287 -4.16264e-20)
(0.1513 -0.044161 -5.01134e-20)
(0.344376 -0.0448469 -2.31228e-20)
(0.427948 -0.0293292 1.21274e-20)
(0.518761 -0.0247207 -1.45354e-20)
(0.584127 -0.0177632 3.84395e-21)
(0.631046 -0.0147517 -2.08807e-22)
(0.680055 -0.0106878 1.20704e-22)
(0.700824 -0.0099315 -1.28824e-22)
(0.746921 -0.00688234 1.21106e-22)
(0.155356 -0.0314736 1.15127e-19)
(0.207724 -0.054924 7.22382e-20)
(0.386207 -0.0559022 2.59796e-20)
(0.459957 -0.036573 -2.3567e-20)
(0.543344 -0.0309219 1.19313e-20)
(0.603452 -0.0222634 3.15991e-21)
(0.646916 -0.0185276 2.20873e-21)
(0.692645 -0.013437 2.39045e-22)
(0.711895 -0.0125158 2.86162e-22)
(0.755409 -0.00869497 -6.42621e-22)
(0.233227 -0.0423773 -5.08261e-20)
(0.275004 -0.0643041 3.90004e-20)
(0.435603 -0.0656965 4.82047e-21)
(0.497856 -0.043027 2.62827e-20)
(0.572503 -0.0365252 -5.94602e-21)
(0.626476 -0.0263654 -3.68249e-21)
(0.6659 -0.0219973 -2.28155e-21)
(0.707779 -0.0159729 -1.47257e-22)
(0.725262 -0.0149206 -1.55382e-22)
(0.765724 -0.0103974 6.89452e-22)
(0.32316 -0.0545597 -3.86774e-20)
(0.351167 -0.0720367 -1.00778e-19)
(0.490867 -0.0740269 -1.70463e-20)
(0.540409 -0.0485753 -1.46381e-20)
(0.605321 -0.0414481 6.97149e-21)
(0.652532 -0.0300139 -1.94169e-21)
(0.687489 -0.0251169 2.45464e-21)
(0.725096 -0.0182639 4.49224e-22)
(0.74064 -0.0171177 -4.65285e-23)
(0.777685 -0.0119699 2.65477e-22)