/*--------------------------------*- C++ -*----------------------------------*\
  =========                 |
  \\      /  F ield         | OpenFOAM: The Open Source CFD Toolbox
   \\    /   O peration     | Website:  https://openfoam.org
    \\  /    A nd           | Version:  6.0
     \\/     M anipulation  |
\*---------------------------------------------------------------------------*/
FoamFile
{
    version     2.0;
    format      ascii;
    class       volScalarField;
    location    "2.2";
    object      p;
}
// * * * * * * * * * * * * * * * * * * * * * * * * * * * * * * * * * * * * * //

dimensions      [0 2 -2 0 0 0 0];

internalField   nonuniform List<scalar> 
24000
(
1.00697
1.00674
1.00615
1.00533
1.00433
1.0033
1.00236
1.00155
1.00088
1.00039
0.999996
0.99974
1.00698
1.0068
1.0063
1.0056
1.00469
1.00369
1.00274
1.00186
1.00109
1.00049
0.99995
0.999599
1.00698
1.00679
1.00627
1.00553
1.00461
1.0036
1.00263
1.00175
1.001
1.00043
0.999887
0.999571
1.00698
1.00678
1.00623
1.00548
1.00454
1.00354
1.00258
1.00172
1.00098
1.00042
0.999873
0.999559
1.00699
1.00679
1.00625
1.00551
1.00458
1.00359
1.00265
1.00179
1.00104
1.00046
0.999869
0.99952
1.007
1.0068
1.00627
1.00553
1.00462
1.00364
1.00269
1.00183
1.00106
1.00045
0.999833
0.999459
1.007
1.00682
1.00628
1.00554
1.00462
1.00364
1.00268
1.00181
1.00103
1.00041
0.999778
0.999396
1.00701
1.00683
1.0063
1.00555
1.00463
1.00364
1.00267
1.00179
1.00101
1.00039
0.999738
0.999349
1.00702
1.00685
1.00633
1.00558
1.00466
1.00367
1.0027
1.00181
1.00102
1.00039
0.999721
0.999315
1.00704
1.00687
1.00636
1.00562
1.0047
1.00371
1.00275
1.00185
1.00105
1.0004
0.999716
0.999285
1.00705
1.00689
1.00639
1.00566
1.00474
1.00376
1.00279
1.00189
1.00108
1.00042
0.999707
0.999252
1.00706
1.00691
1.00642
1.0057
1.00479
1.0038
1.00283
1.00193
1.0011
1.00042
0.999693
0.999217
1.00707
1.00693
1.00644
1.00574
1.00483
1.00384
1.00286
1.00195
1.00111
1.00042
0.999675
0.999183
1.00709
1.00695
1.00647
1.00577
1.00487
1.00388
1.0029
1.00197
1.00112
1.00042
0.999658
0.99915
1.0071
1.00696
1.00649
1.0058
1.00491
1.00392
1.00293
1.002
1.00114
1.00042
0.999642
0.999119
1.00712
1.00698
1.00651
1.00583
1.00494
1.00396
1.00296
1.00202
1.00115
1.00042
0.999628
0.99909
1.00714
1.007
1.00653
1.00586
1.00498
1.00399
1.00299
1.00204
1.00116
1.00041
0.999612
0.999061
1.00715
1.00702
1.00655
1.00588
1.005
1.00402
1.00302
1.00206
1.00117
1.00041
0.999597
0.999033
1.00717
1.00704
1.00657
1.00591
1.00503
1.00405
1.00304
1.00208
1.00118
1.0004
0.999581
0.999005
1.00719
1.00706
1.0066
1.00593
1.00506
1.00407
1.00307
1.0021
1.00118
1.0004
0.999567
0.99898
1.00721
1.00709
1.00662
1.00596
1.00508
1.0041
1.00309
1.00211
1.00119
1.0004
0.999553
0.998955
1.00724
1.00711
1.00665
1.00599
1.00512
1.00413
1.00312
1.00213
1.0012
1.00039
0.99954
0.998932
1.00726
1.00714
1.00669
1.00603
1.00515
1.00417
1.00315
1.00215
1.00121
1.00039
0.999527
0.998908
1.00729
1.00717
1.00672
1.00607
1.00519
1.0042
1.00318
1.00218
1.00122
1.00039
0.999514
0.998885
1.00731
1.00721
1.00676
1.0061
1.00523
1.00424
1.00321
1.0022
1.00123
1.00038
0.9995
0.998862
1.00734
1.00724
1.0068
1.00614
1.00527
1.00427
1.00324
1.00222
1.00124
1.00038
0.999487
0.998841
1.00737
1.00728
1.00683
1.00618
1.00531
1.00431
1.00327
1.00224
1.00125
1.00038
0.999474
0.998819
1.0074
1.00731
1.00687
1.00623
1.00535
1.00435
1.0033
1.00226
1.00126
1.00037
0.999462
0.998799
1.00743
1.00735
1.00692
1.00627
1.00539
1.00439
1.00333
1.00228
1.00127
1.00037
0.999451
0.998778
1.00746
1.00739
1.00696
1.00631
1.00544
1.00443
1.00337
1.00231
1.00129
1.00037
0.99944
0.998758
1.0075
1.00743
1.007
1.00636
1.00548
1.00447
1.0034
1.00233
1.0013
1.00037
0.999429
0.998738
1.00753
1.00747
1.00705
1.00641
1.00553
1.00452
1.00344
1.00236
1.00131
1.00037
0.999419
0.998718
1.00757
1.00751
1.0071
1.00646
1.00558
1.00456
1.00348
1.00239
1.00133
1.00037
0.999407
0.998697
1.0076
1.00756
1.00714
1.00651
1.00563
1.00461
1.00352
1.00241
1.00134
1.00037
0.999396
0.998676
1.00764
1.0076
1.00719
1.00656
1.00568
1.00465
1.00355
1.00244
1.00135
1.00037
0.999383
0.998655
1.00768
1.00764
1.00723
1.00661
1.00573
1.0047
1.00359
1.00247
1.00137
1.00037
0.99937
0.998633
1.00772
1.00769
1.00728
1.00666
1.00578
1.00474
1.00363
1.00249
1.00138
1.00036
0.999356
0.998611
1.00776
1.00773
1.00733
1.00671
1.00582
1.00479
1.00366
1.00251
1.00139
1.00036
0.999342
0.998589
1.00781
1.00778
1.00737
1.00675
1.00587
1.00483
1.0037
1.00253
1.0014
1.00036
0.999327
0.998566
1.00785
1.00782
1.00742
1.0068
1.00592
1.00487
1.00373
1.00256
1.00141
1.00035
0.999313
0.998544
1.0079
1.00787
1.00747
1.00685
1.00596
1.00491
1.00376
1.00258
1.00142
1.00035
0.999298
0.998521
1.00794
1.00792
1.00752
1.0069
1.00601
1.00495
1.0038
1.0026
1.00143
1.00034
0.999283
0.998499
1.00799
1.00798
1.00757
1.00695
1.00606
1.005
1.00383
1.00262
1.00144
1.00034
0.999268
0.998476
1.00804
1.00803
1.00763
1.00701
1.00611
1.00504
1.00387
1.00265
1.00145
1.00034
0.999254
0.998454
1.00809
1.00808
1.00768
1.00707
1.00617
1.00509
1.0039
1.00267
1.00146
1.00033
0.999238
0.998431
1.00814
1.00814
1.00774
1.00713
1.00622
1.00514
1.00394
1.0027
1.00147
1.00033
0.999223
0.998408
1.0082
1.0082
1.0078
1.00719
1.00628
1.00519
1.00398
1.00273
1.00148
1.00033
0.999208
0.998384
1.00825
1.00826
1.00787
1.00725
1.00634
1.00524
1.00402
1.00275
1.00149
1.00032
0.999193
0.99836
1.00831
1.00832
1.00793
1.00731
1.0064
1.00529
1.00406
1.00278
1.0015
1.00032
0.999177
0.998336
1.00837
1.00838
1.00799
1.00738
1.00646
1.00535
1.00411
1.00281
1.00152
1.00032
0.999162
0.998311
1.00842
1.00845
1.00806
1.00744
1.00652
1.0054
1.00415
1.00283
1.00153
1.00031
0.999145
0.998285
1.00848
1.00851
1.00813
1.00751
1.00658
1.00545
1.00419
1.00286
1.00154
1.00031
0.999129
0.998258
1.00854
1.00858
1.00819
1.00758
1.00664
1.00551
1.00423
1.00289
1.00155
1.0003
0.999112
0.99823
1.0086
1.00865
1.00826
1.00764
1.00671
1.00557
1.00428
1.00292
1.00157
1.0003
0.999095
0.998202
1.00867
1.00871
1.00833
1.00771
1.00677
1.00562
1.00432
1.00295
1.00158
1.0003
0.999077
0.998171
1.00873
1.00878
1.0084
1.00778
1.00684
1.00568
1.00437
1.00298
1.00159
1.00029
0.999058
0.998141
1.00879
1.00885
1.00847
1.00785
1.0069
1.00574
1.00441
1.00301
1.0016
1.00028
0.999038
0.998108
1.00886
1.00892
1.00854
1.00792
1.00697
1.00579
1.00445
1.00303
1.00161
1.00028
0.999017
0.998076
1.00893
1.009
1.00861
1.00799
1.00703
1.00585
1.0045
1.00306
1.00162
1.00027
0.998995
0.998042
1.00899
1.00907
1.00869
1.00807
1.0071
1.00591
1.00454
1.00309
1.00163
1.00026
0.998973
0.998007
1.00906
1.00914
1.00876
1.00814
1.00716
1.00596
1.00458
1.00312
1.00164
1.00026
0.998949
0.997972
1.00913
1.00922
1.00884
1.00821
1.00723
1.00602
1.00463
1.00315
1.00165
1.00025
0.998926
0.997936
1.00921
1.0093
1.00891
1.00829
1.0073
1.00608
1.00467
1.00317
1.00166
1.00024
0.998901
0.997899
1.00928
1.00938
1.00899
1.00837
1.00737
1.00614
1.00472
1.0032
1.00167
1.00023
0.998877
0.997862
1.00936
1.00946
1.00907
1.00845
1.00744
1.0062
1.00477
1.00323
1.00168
1.00022
0.998851
0.997823
1.00943
1.00954
1.00916
1.00853
1.00752
1.00626
1.00481
1.00326
1.00169
1.00021
0.998825
0.997784
1.00951
1.00963
1.00924
1.00861
1.00759
1.00633
1.00486
1.00329
1.0017
1.0002
0.998799
0.997743
1.00959
1.00971
1.00933
1.00869
1.00767
1.00639
1.00491
1.00332
1.00171
1.00019
0.998772
0.997702
1.00967
1.0098
1.00942
1.00878
1.00775
1.00646
1.00496
1.00335
1.00172
1.00018
0.998744
0.997658
1.00975
1.00989
1.00951
1.00887
1.00782
1.00653
1.00501
1.00338
1.00173
1.00017
0.998715
0.997614
1.00984
1.00998
1.0096
1.00895
1.0079
1.0066
1.00506
1.00342
1.00174
1.00016
0.998685
0.997568
1.00992
1.01007
1.00969
1.00904
1.00799
1.00666
1.00511
1.00345
1.00175
1.00015
0.998655
0.997521
1.01001
1.01017
1.00978
1.00914
1.00807
1.00673
1.00517
1.00348
1.00176
1.00014
0.998623
0.997471
1.0101
1.01026
1.00988
1.00923
1.00815
1.0068
1.00522
1.00351
1.00177
1.00012
0.99859
0.997421
1.01019
1.01036
1.00997
1.00932
1.00823
1.00687
1.00527
1.00354
1.00178
1.00011
0.998556
0.997368
1.01028
1.01046
1.01007
1.00941
1.00832
1.00695
1.00532
1.00357
1.00179
1.00009
0.99852
0.997315
1.01037
1.01056
1.01017
1.00951
1.0084
1.00702
1.00538
1.0036
1.00179
1.00007
0.998483
0.997259
1.01047
1.01066
1.01027
1.00961
1.00849
1.00709
1.00543
1.00363
1.0018
1.00006
0.998445
0.997204
1.01057
1.01076
1.01037
1.0097
1.00858
1.00716
1.00548
1.00366
1.0018
1.00004
0.998406
0.997146
1.01066
1.01087
1.01047
1.0098
1.00866
1.00723
1.00553
1.00369
1.0018
1.00002
0.998366
0.997087
1.01077
1.01097
1.01058
1.0099
1.00875
1.00731
1.00558
1.00372
1.00181
0.999995
0.998324
0.997027
1.01087
1.01108
1.01068
1.01
1.00884
1.00738
1.00564
1.00374
1.00181
0.999974
0.998282
0.996967
1.01097
1.01119
1.01079
1.01011
1.00893
1.00746
1.00569
1.00377
1.00181
0.999951
0.998238
0.996904
1.01108
1.0113
1.0109
1.01021
1.00903
1.00753
1.00574
1.0038
1.00181
0.999928
0.998194
0.996841
1.01118
1.01142
1.01101
1.01032
1.00912
1.00761
1.00579
1.00383
1.00181
0.999903
0.998148
0.996777
1.01129
1.01153
1.01113
1.01043
1.00921
1.00768
1.00585
1.00385
1.00181
0.999879
0.998102
0.996712
1.01141
1.01165
1.01124
1.01054
1.00931
1.00776
1.0059
1.00388
1.00181
0.999853
0.998054
0.996645
1.01152
1.01177
1.01136
1.01065
1.00941
1.00784
1.00596
1.00391
1.00181
0.999827
0.998006
0.996578
1.01163
1.01189
1.01148
1.01076
1.0095
1.00792
1.00601
1.00393
1.00181
0.999799
0.997956
0.996508
1.01175
1.01201
1.0116
1.01088
1.0096
1.008
1.00607
1.00396
1.00181
0.999771
0.997906
0.996439
1.01187
1.01214
1.01172
1.01099
1.0097
1.00808
1.00612
1.00399
1.00181
0.999742
0.997853
0.996366
1.01199
1.01227
1.01185
1.01111
1.00981
1.00816
1.00617
1.00401
1.0018
0.999712
0.997801
0.996294
1.01211
1.0124
1.01197
1.01123
1.00991
1.00825
1.00623
1.00404
1.0018
0.999681
0.997745
0.996219
1.01224
1.01253
1.0121
1.01135
1.01001
1.00833
1.00629
1.00407
1.0018
0.999649
0.99769
0.996145
1.01236
1.01266
1.01223
1.01147
1.01012
1.00841
1.00634
1.00409
1.00179
0.999615
0.997633
0.996067
1.01249
1.0128
1.01236
1.01159
1.01022
1.0085
1.0064
1.00412
1.00178
0.999582
0.997575
0.995989
1.01262
1.01293
1.01249
1.01172
1.01033
1.00858
1.00645
1.00414
1.00178
0.999546
0.997514
0.995908
1.01276
1.01307
1.01263
1.01185
1.01044
1.00867
1.00651
1.00417
1.00177
0.99951
0.997454
0.995827
1.01289
1.01321
1.01277
1.01198
1.01054
1.00875
1.00656
1.00419
1.00176
0.999471
0.99739
0.995743
1.01303
1.01336
1.0129
1.01211
1.01066
1.00884
1.00662
1.00422
1.00175
0.999433
0.997326
0.995658
1.01317
1.0135
1.01305
1.01224
1.01077
1.00893
1.00668
1.00424
1.00174
0.999393
0.99726
0.99557
1.01331
1.01365
1.01319
1.01237
1.01088
1.00902
1.00673
1.00427
1.00173
0.999352
0.997193
0.995483
1.01346
1.01381
1.01334
1.01251
1.011
1.00911
1.00679
1.00429
1.00172
0.999309
0.997123
0.995391
1.0136
1.01396
1.01348
1.01265
1.01111
1.0092
1.00685
1.00431
1.00171
0.999267
0.997053
0.995299
1.01375
1.01412
1.01363
1.01279
1.01123
1.0093
1.00691
1.00434
1.00169
0.999221
0.99698
0.995204
1.01391
1.01428
1.01379
1.01293
1.01135
1.00939
1.00697
1.00436
1.00168
0.999176
0.996906
0.995108
1.01406
1.01444
1.01394
1.01308
1.01148
1.00949
1.00703
1.00439
1.00167
0.999128
0.996829
0.995008
1.01422
1.0146
1.0141
1.01323
1.0116
1.00959
1.00709
1.00441
1.00165
0.99908
0.996752
0.994908
1.01438
1.01477
1.01427
1.01338
1.01173
1.00969
1.00715
1.00444
1.00164
0.999029
0.996671
0.994804
1.01455
1.01494
1.01443
1.01353
1.01186
1.00979
1.00722
1.00446
1.00162
0.998978
0.99659
0.994699
1.01471
1.01512
1.0146
1.01369
1.01199
1.00989
1.00728
1.00448
1.0016
0.998923
0.996505
0.994589
1.01489
1.01529
1.01477
1.01385
1.01213
1.01
1.00734
1.00451
1.00158
0.998869
0.996419
0.994479
1.01506
1.01547
1.01495
1.01401
1.01226
1.0101
1.00741
1.00453
1.00156
0.998811
0.996329
0.994364
1.01524
1.01566
1.01512
1.01418
1.0124
1.01021
1.00748
1.00455
1.00154
0.998753
0.996239
0.994249
1.01542
1.01584
1.01531
1.01435
1.01255
1.01032
1.00754
1.00458
1.00152
0.998692
0.996144
0.994128
1.0156
1.01604
1.01549
1.01452
1.01269
1.01043
1.00761
1.0046
1.0015
0.99863
0.996048
0.994007
1.01579
1.01623
1.01568
1.01469
1.01284
1.01054
1.00768
1.00462
1.00147
0.998564
0.995948
0.99388
1.01598
1.01643
1.01587
1.01487
1.01299
1.01066
1.00775
1.00464
1.00145
0.998498
0.995847
0.993752
1.01617
1.01663
1.01607
1.01505
1.01314
1.01077
1.00782
1.00467
1.00142
0.998428
0.995741
0.993619
1.01637
1.01683
1.01627
1.01524
1.0133
1.01089
1.00789
1.00469
1.00139
0.998357
0.995634
0.993484
1.01657
1.01704
1.01647
1.01542
1.01346
1.01101
1.00796
1.00471
1.00136
0.998283
0.995522
0.993344
1.01678
1.01726
1.01668
1.01562
1.01362
1.01113
1.00803
1.00473
1.00133
0.998207
0.995409
0.993202
1.01699
1.01747
1.01689
1.01581
1.01378
1.01126
1.0081
1.00475
1.00129
0.998128
0.995291
0.993055
1.0172
1.0177
1.0171
1.01601
1.01395
1.01138
1.00818
1.00477
1.00126
0.998047
0.995171
0.992905
1.01742
1.01792
1.01732
1.01621
1.01412
1.01151
1.00825
1.00479
1.00122
0.997962
0.995046
0.99275
1.01764
1.01815
1.01754
1.01642
1.01429
1.01164
1.00833
1.00481
1.00119
0.997877
0.994919
0.992592
1.01787
1.01839
1.01777
1.01663
1.01447
1.01178
1.00841
1.00483
1.00115
0.997786
0.994787
0.992428
1.0181
1.01863
1.01801
1.01685
1.01465
1.01191
1.00848
1.00484
1.00111
0.997694
0.994652
0.992262
1.01833
1.01887
1.01824
1.01707
1.01484
1.01205
1.00856
1.00486
1.00106
0.997597
0.994512
0.992089
1.01857
1.01912
1.01849
1.01729
1.01503
1.01219
1.00864
1.00488
1.00102
0.997499
0.994369
0.991914
1.01881
1.01937
1.01873
1.01752
1.01522
1.01233
1.00872
1.00489
1.00097
0.997396
0.994221
0.991731
1.01906
1.01963
1.01899
1.01776
1.01542
1.01248
1.0088
1.00491
1.00092
0.997291
0.994069
0.991546
1.01932
1.0199
1.01924
1.01799
1.01561
1.01262
1.00889
1.00492
1.00086
0.99718
0.993911
0.991354
1.01957
1.02017
1.01951
1.01824
1.01582
1.01277
1.00897
1.00494
1.00081
0.997068
0.993751
0.991158
1.01984
1.02044
1.01978
1.01848
1.01603
1.01292
1.00905
1.00495
1.00075
0.996949
0.993584
0.990955
1.02011
1.02072
1.02005
1.01874
1.01624
1.01308
1.00914
1.00496
1.00069
0.996828
0.993413
0.990748
1.02038
1.02101
1.02033
1.019
1.01645
1.01324
1.00922
1.00497
1.00063
0.996701
0.993235
0.990533
1.02066
1.0213
1.02062
1.01926
1.01667
1.0134
1.00931
1.00497
1.00056
0.996572
0.993054
0.990315
1.02094
1.0216
1.02091
1.01953
1.0169
1.01356
1.00939
1.00498
1.00049
0.996436
0.992866
0.990088
1.02123
1.0219
1.0212
1.0198
1.01713
1.01372
1.00948
1.00499
1.00042
0.996298
0.992674
0.989858
1.02153
1.02222
1.02151
1.02009
1.01736
1.01389
1.00957
1.00499
1.00034
0.996152
0.992473
0.989618
1.02183
1.02253
1.02182
1.02037
1.0176
1.01406
1.00965
1.00499
1.00026
0.996004
0.992269
0.989374
1.02214
1.02286
1.02214
1.02066
1.01784
1.01423
1.00974
1.00499
1.00018
0.995848
0.992057
0.989121
1.02246
1.02319
1.02246
1.02096
1.01809
1.01441
1.00983
1.00499
1.00009
0.995689
0.99184
0.988864
1.02278
1.02353
1.02279
1.02127
1.01834
1.01459
1.00992
1.00498
0.999996
0.995522
0.991614
0.988596
1.02311
1.02387
1.02313
1.02158
1.0186
1.01477
1.01001
1.00498
0.9999
0.995351
0.991383
0.988324
1.02345
1.02423
1.02348
1.0219
1.01886
1.01495
1.01009
1.00497
0.999799
0.995172
0.991144
0.988041
1.02379
1.02459
1.02383
1.02223
1.01913
1.01514
1.01018
1.00496
0.999694
0.994989
0.990899
0.987753
1.02414
1.02496
1.02419
1.02256
1.0194
1.01533
1.01027
1.00494
0.999583
0.994798
0.990644
0.987455
1.0245
1.02534
1.02456
1.0229
1.01968
1.01552
1.01036
1.00493
0.999468
0.994601
0.990384
0.98715
1.02487
1.02572
1.02494
1.02325
1.01997
1.01572
1.01045
1.0049
0.999347
0.994396
0.990113
0.986834
1.02524
1.02612
1.02533
1.0236
1.02026
1.01592
1.01054
1.00488
0.999221
0.994185
0.989836
0.986512
1.02563
1.02652
1.02572
1.02397
1.02056
1.01612
1.01063
1.00485
0.999088
0.993965
0.989548
0.986179
1.02602
1.02693
1.02613
1.02434
1.02086
1.01632
1.01071
1.00482
0.99895
0.993739
0.989254
0.985838
1.02642
1.02735
1.02654
1.02472
1.02117
1.01653
1.0108
1.00479
0.998804
0.993502
0.988948
0.985485
1.02683
1.02778
1.02697
1.02511
1.02148
1.01674
1.01089
1.00475
0.998653
0.993259
0.988635
0.985125
1.02725
1.02823
1.0274
1.0255
1.0218
1.01695
1.01097
1.00471
0.998494
0.993005
0.988309
0.984752
1.02768
1.02868
1.02785
1.02591
1.02213
1.01717
1.01106
1.00466
0.998328
0.992745
0.987976
0.984371
1.02812
1.02914
1.0283
1.02633
1.02246
1.01738
1.01114
1.00461
0.998154
0.992472
0.98763
0.983976
1.02856
1.02961
1.02877
1.02675
1.02281
1.0176
1.01122
1.00455
0.997973
0.992192
0.987276
0.983573
1.02902
1.0301
1.02924
1.02719
1.02315
1.01783
1.0113
1.00448
0.997782
0.9919
0.986908
0.983156
1.02949
1.03059
1.02973
1.02763
1.02351
1.01805
1.01138
1.00441
0.997583
0.991599
0.986531
0.98273
1.02997
1.0311
1.03023
1.02809
1.02387
1.01828
1.01145
1.00434
0.997374
0.991285
0.98614
0.982289
1.03047
1.03162
1.03075
1.02856
1.02424
1.01851
1.01152
1.00426
0.997157
0.990962
0.985739
0.981838
1.03097
1.03216
1.03127
1.02903
1.02462
1.01875
1.01159
1.00416
0.996928
0.990625
0.985323
0.981371
1.03149
1.0327
1.03181
1.02952
1.025
1.01898
1.01166
1.00407
0.99669
0.990277
0.984896
0.980894
1.03201
1.03326
1.03236
1.03002
1.0254
1.01922
1.01172
1.00396
0.99644
0.989915
0.984453
0.980401
1.03256
1.03384
1.03293
1.03054
1.0258
1.01946
1.01178
1.00385
0.99618
0.989542
0.983999
0.979896
1.03311
1.03443
1.03351
1.03106
1.0262
1.0197
1.01183
1.00372
0.995906
0.989153
0.983528
0.979375
1.03368
1.03503
1.03411
1.0316
1.02662
1.01995
1.01188
1.00359
0.99562
0.988752
0.983045
0.978841
1.03426
1.03565
1.03472
1.03215
1.02704
1.02019
1.01193
1.00345
0.99532
0.988333
0.982544
0.97829
1.03486
1.03628
1.03535
1.03272
1.02748
1.02044
1.01197
1.00329
0.995008
0.987902
0.982029
0.977725
1.03547
1.03694
1.03599
1.0333
1.02792
1.02068
1.012
1.00313
0.99468
0.987452
0.981496
0.977142
1.0361
1.03761
1.03666
1.03389
1.02837
1.02093
1.01203
1.00295
0.994337
0.986988
0.980948
0.976544
1.03674
1.03829
1.03734
1.0345
1.02883
1.02118
1.01204
1.00276
0.993978
0.986505
0.980381
0.975928
1.0374
1.039
1.03803
1.03513
1.02929
1.02142
1.01206
1.00255
0.993603
0.986006
0.979798
0.975296
1.03808
1.03973
1.03875
1.03577
1.02977
1.02167
1.01206
1.00233
0.993209
0.985486
0.979194
0.974644
1.03878
1.04047
1.03949
1.03642
1.03025
1.02191
1.01205
1.0021
0.992798
0.984949
0.978573
0.973976
1.03949
1.04124
1.04025
1.0371
1.03074
1.02216
1.01203
1.00185
0.992367
0.98439
0.977931
0.973286
1.04023
1.04203
1.04103
1.03779
1.03124
1.0224
1.012
1.00158
0.991917
0.983813
0.97727
0.97258
1.04098
1.04284
1.04183
1.0385
1.03175
1.02263
1.01195
1.00129
0.991445
0.983211
0.976587
0.971851
1.04176
1.04367
1.04266
1.03922
1.03227
1.02287
1.0119
1.00099
0.990952
0.98259
0.975883
0.971104
1.04255
1.04453
1.04351
1.03997
1.03279
1.0231
1.01183
1.00066
0.990434
0.981943
0.975156
0.970333
1.04337
1.04541
1.04438
1.04073
1.03333
1.02332
1.01174
1.00031
0.989894
0.981274
0.974408
0.969544
1.04421
1.04632
1.04528
1.04152
1.03387
1.02354
1.01164
0.999939
0.989327
0.980579
0.973633
0.968729
1.04508
1.04725
1.04621
1.04232
1.03441
1.02375
1.01151
0.999543
0.988735
0.979859
0.972837
0.967895
1.04597
1.04822
1.04716
1.04315
1.03497
1.02395
1.01137
0.999119
0.988114
0.97911
0.972013
0.967034
1.04689
1.04921
1.04815
1.04399
1.03553
1.02414
1.0112
0.998669
0.987465
0.978336
0.971166
0.966152
1.04784
1.05024
1.04917
1.04486
1.0361
1.02432
1.01101
0.998188
0.986785
0.977531
0.97029
0.965243
1.04881
1.0513
1.05021
1.04575
1.03667
1.02449
1.0108
0.997677
0.986074
0.976698
0.969388
0.964311
1.04981
1.05239
1.05129
1.04667
1.03724
1.02464
1.01056
0.997131
0.985329
0.975832
0.968457
0.963351
1.05085
1.05351
1.05241
1.04761
1.03782
1.02478
1.01029
0.996552
0.984551
0.974936
0.967498
0.962366
1.05192
1.05468
1.05356
1.04857
1.0384
1.02489
1.00998
0.995935
0.983735
0.974005
0.966507
0.961352
1.05302
1.05588
1.05475
1.04955
1.03899
1.02498
1.00964
0.99528
0.982882
0.973041
0.965488
0.960313
1.05415
1.05712
1.05598
1.05056
1.03957
1.02505
1.00926
0.994582
0.981989
0.97204
0.964435
0.959243
1.05533
1.05841
1.05725
1.0516
1.04015
1.0251
1.00884
0.993842
0.981056
0.971004
0.963351
0.958145
1.05654
1.05974
1.05856
1.05265
1.04072
1.02511
1.00838
0.993054
0.980078
0.969928
0.962233
0.957016
1.05779
1.06111
1.05992
1.05374
1.04129
1.02509
1.00787
0.992218
0.979058
0.968814
0.961081
0.955858
1.05908
1.06254
1.06132
1.05485
1.04185
1.02503
1.00731
0.991329
0.977989
0.967659
0.959894
0.954667
1.06042
1.06402
1.06278
1.05598
1.04239
1.02493
1.0067
0.990387
0.976872
0.966463
0.958671
0.953446
1.0618
1.06555
1.06428
1.05713
1.04293
1.02478
1.00602
0.989387
0.975704
0.965223
0.95741
0.952191
1.06323
1.06714
1.06584
1.05831
1.04344
1.02458
1.00529
0.988327
0.974485
0.963939
0.956113
0.950904
1.06472
1.06879
1.06745
1.05951
1.04392
1.02433
1.00448
0.987202
0.97321
0.962609
0.954776
0.949581
1.06625
1.07051
1.06912
1.06073
1.04438
1.02401
1.0036
0.986011
0.971879
0.961233
0.953401
0.948225
1.06785
1.0723
1.07085
1.06197
1.04481
1.02362
1.00265
0.984749
0.970489
0.959807
0.951984
0.946832
1.0695
1.07415
1.07264
1.06323
1.04519
1.02316
1.00161
0.983414
0.969039
0.958333
0.950527
0.945404
1.07122
1.07609
1.0745
1.0645
1.04552
1.02261
1.00048
0.982
0.967524
0.956807
0.949026
0.943939
1.073
1.0781
1.07642
1.06577
1.0458
1.02197
0.999262
0.980507
0.965947
0.955231
0.947484
0.942437
1.07485
1.08021
1.07841
1.06705
1.04602
1.02122
0.997938
0.978928
0.964301
0.953599
0.945897
0.940895
1.07678
1.0824
1.08047
1.06834
1.04616
1.02037
0.996508
0.977262
0.962587
0.951915
0.944267
0.939317
1.07878
1.08469
1.0826
1.06961
1.04621
1.0194
0.994963
0.975503
0.960801
0.950175
0.942591
0.937697
1.08087
1.08709
1.08481
1.07087
1.04617
1.01829
0.993297
0.97365
0.958945
0.948379
0.94087
0.936039
1.08305
1.0896
1.08709
1.07211
1.04601
1.01704
0.991503
0.971697
0.957012
0.946524
0.939102
0.934338
1.08532
1.09223
1.08944
1.07331
1.04572
1.01564
0.989574
0.969643
0.955005
0.944613
0.937288
0.932598
1.0877
1.09499
1.09187
1.07446
1.04529
1.01406
0.987503
0.967483
0.95292
0.942643
0.935426
0.930815
1.09018
1.09788
1.09437
1.07555
1.04469
1.0123
0.985283
0.965216
0.950757
0.940614
0.933517
0.928992
1.09278
1.10091
1.09694
1.07656
1.0439
1.01034
0.982906
0.962837
0.948514
0.938524
0.93156
0.927125
1.09551
1.1041
1.09957
1.07747
1.04291
1.00817
0.980368
0.960346
0.946192
0.936375
0.929555
0.925217
1.09837
1.10746
1.10225
1.07825
1.04168
1.00577
0.97766
0.957739
0.943788
0.934166
0.9275
0.923266
1.10138
1.11099
1.10499
1.07889
1.04019
1.00312
0.974779
0.955018
0.941304
0.931897
0.925399
0.921273
1.10455
1.1147
1.10776
1.07934
1.03841
1.00022
0.971718
0.952178
0.938739
0.929568
0.923248
0.919237
1.1079
1.11861
1.11054
1.07956
1.0363
0.997036
0.968474
0.949222
0.936094
0.92718
0.92105
0.917159
1.11143
1.12273
1.11332
1.07953
1.03383
0.993564
0.965045
0.946149
0.933369
0.924734
0.918804
0.915037
1.11517
1.12706
1.11608
1.07919
1.03098
0.989789
0.961429
0.942961
0.930568
0.92223
0.916511
0.912873
1.11914
1.13161
1.11877
1.07849
1.02769
0.985696
0.957625
0.93966
0.927689
0.91967
0.914171
0.910666
1.12335
1.13639
1.12135
1.07736
1.02393
0.981278
0.953637
0.93625
0.924737
0.917055
0.911785
0.908417
1.12785
1.14141
1.12378
1.07575
1.01966
0.976524
0.949468
0.932734
0.921712
0.914387
0.909354
0.906125
1.13264
1.14666
1.126
1.07358
1.01485
0.971434
0.945125
0.929118
0.918621
0.911669
0.906879
0.903792
1.13778
1.15213
1.12793
1.07077
1.00945
0.966005
0.940616
0.925406
0.915464
0.908901
0.904361
0.901417
1.14329
1.15781
1.12948
1.06723
1.00344
0.960245
0.935954
0.921607
0.912248
0.906088
0.901802
0.899001
1.14923
1.16368
1.13056
1.06288
0.996782
0.954163
0.931152
0.917727
0.908976
0.903232
0.899201
0.896544
1.15563
1.1697
1.13104
1.0576
0.989458
0.94778
0.926227
0.913777
0.905653
0.900336
0.896563
0.894048
1.16254
1.17582
1.13077
1.05131
0.981456
0.941121
0.921198
0.909764
0.902284
0.897403
0.893887
0.891512
1.17004
1.18195
1.12961
1.0439
0.972777
0.934221
0.916088
0.9057
0.898877
0.894438
0.891177
0.88894
1.17817
1.18801
1.12737
1.03528
0.963437
0.927122
0.910918
0.901593
0.895436
0.891444
0.888434
0.886331
1.18701
1.19385
1.12383
1.02534
0.953473
0.919876
0.905715
0.897454
0.891969
0.888425
0.885661
0.883689
1.19662
1.1993
1.11876
1.01403
0.942944
0.912544
0.900502
0.893294
0.888481
0.885388
0.882861
0.881014
1.20708
1.20415
1.11192
1.00129
0.931938
0.905192
0.895304
0.889122
0.884981
0.882336
0.880037
0.87831
1.21844
1.2081
1.10303
0.987111
0.920568
0.897891
0.890142
0.884948
0.881474
0.879275
0.877194
0.87558
1.23077
1.21082
1.09181
0.971518
0.908981
0.890714
0.885039
0.88078
0.87797
0.876212
0.874338
0.872826
1.24408
1.21185
1.07798
0.954612
0.897349
0.883731
0.880007
0.876626
0.874475
0.873157
0.871479
0.870052
1.25836
1.21066
1.06126
0.936571
0.885874
0.877006
0.875061
0.872493
0.870996
0.87011
0.868618
0.867249
1.27356
1.20659
1.04143
0.917673
0.874762
0.870584
0.870203
0.868394
0.86756
0.867119
0.865808
0.864455
1.28949
1.19885
1.01835
0.898314
0.864248
0.864517
0.86543
0.864298
0.864105
0.864076
0.862927
0.861565
1.30583
1.18646
0.992001
0.87896
0.854461
0.858795
0.860825
0.860412
0.860946
0.861372
0.860331
0.858816
1.32206
1.1683
0.962748
0.860396
0.845696
0.853247
0.855899
0.856032
0.857226
0.858196
0.857335
0.85575
1.33722
1.14296
0.93101
0.842795
0.838337
0.849094
0.85251
0.853301
0.855064
0.856289
0.855213
0.853178
1.35015
1.10963
0.899856
0.826355
0.82927
0.841777
0.846013
0.848134
0.851346
0.853464
0.852469
0.850048
1.35723
1.06398
0.873616
0.820013
0.829047
0.840857
0.843825
0.845788
0.849492
0.851997
0.85092
0.848188
1.35991
0.992077
0.823705
0.795897
0.818245
0.835413
0.840749
0.844176
0.848836
0.851798
0.850869
0.848196
0.99589
0.996149
0.996896
0.997392
0.997434
0.997205
0.997004
0.997008
0.997198
0.997444
0.99763
0.99772
0.996391
0.996476
0.99701
0.997385
0.997412
0.997221
0.997052
0.997058
0.997227
0.997451
0.997625
0.997716
0.996891
0.996761
0.997042
0.997298
0.997343
0.997233
0.997121
0.997125
0.997259
0.997448
0.997606
0.997697
0.997205
0.996923
0.997032
0.997229
0.997324
0.997294
0.997222
0.99721
0.997296
0.997443
0.997582
0.997673
0.997371
0.997028
0.997057
0.997236
0.997364
0.997373
0.997312
0.997272
0.997314
0.997426
0.997551
0.997642
0.997486
0.997144
0.997142
0.997296
0.997418
0.997428
0.99736
0.997302
0.997318
0.997409
0.997523
0.997613
0.997609
0.997286
0.997253
0.997363
0.997452
0.997451
0.997384
0.997324
0.997329
0.997405
0.997507
0.997593
0.997741
0.997426
0.997355
0.997414
0.99747
0.997463
0.997404
0.99735
0.997348
0.997407
0.997495
0.997573
0.997858
0.997542
0.997435
0.997453
0.997486
0.997476
0.997425
0.997375
0.997365
0.997408
0.997481
0.997552
0.997946
0.997631
0.997499
0.997489
0.997505
0.997491
0.997444
0.997395
0.997378
0.997409
0.997471
0.997535
0.998008
0.9977
0.997556
0.997525
0.997525
0.997506
0.997459
0.99741
0.99739
0.997412
0.997463
0.99752
0.998055
0.997759
0.997608
0.99756
0.997545
0.997518
0.997471
0.997423
0.997401
0.997415
0.997457
0.997505
0.998095
0.997811
0.997653
0.99759
0.997562
0.997528
0.997481
0.997435
0.99741
0.997418
0.99745
0.997491
0.998129
0.997854
0.997691
0.997616
0.997577
0.997539
0.997492
0.997446
0.997418
0.997419
0.997443
0.997477
0.998155
0.997888
0.997723
0.997639
0.997592
0.997549
0.9975
0.997453
0.997423
0.997419
0.997436
0.997466
0.998176
0.997916
0.997749
0.997659
0.997605
0.997558
0.997507
0.997459
0.997426
0.997418
0.997431
0.997457
0.99819
0.997939
0.997772
0.997676
0.997616
0.997564
0.997511
0.997462
0.997428
0.997417
0.997427
0.997451
0.998202
0.997958
0.997791
0.997691
0.997624
0.997569
0.997514
0.997464
0.997429
0.997417
0.997425
0.997446
0.998211
0.997973
0.997806
0.997701
0.99763
0.997571
0.997515
0.997465
0.99743
0.997417
0.997422
0.997441
0.998218
0.997985
0.997816
0.997708
0.997633
0.997572
0.997516
0.997466
0.997432
0.997417
0.99742
0.997435
0.998221
0.997992
0.997823
0.997712
0.997635
0.997573
0.997516
0.997467
0.997432
0.997416
0.997416
0.997429
0.998221
0.997996
0.997827
0.997715
0.997637
0.997573
0.997516
0.997467
0.997431
0.997413
0.997411
0.997421
0.998218
0.997997
0.997829
0.997716
0.997637
0.997573
0.997515
0.997465
0.997428
0.997409
0.997404
0.99741
0.998214
0.997997
0.997831
0.997717
0.997637
0.997572
0.997513
0.997462
0.997424
0.997402
0.997394
0.997399
0.998209
0.997996
0.997831
0.997717
0.997635
0.997569
0.997509
0.997456
0.997416
0.997393
0.997383
0.997386
0.998203
0.997994
0.99783
0.997716
0.997633
0.997565
0.997503
0.997449
0.997407
0.997382
0.997371
0.997373
0.998197
0.997991
0.997829
0.997713
0.997628
0.997558
0.997495
0.997439
0.997396
0.997369
0.997357
0.997358
0.99819
0.997988
0.997826
0.997709
0.997622
0.99755
0.997484
0.997427
0.997383
0.997356
0.997343
0.997343
0.998182
0.997983
0.997821
0.997702
0.997613
0.997539
0.997472
0.997414
0.997369
0.997341
0.997328
0.997328
0.998174
0.997977
0.997814
0.997693
0.997602
0.997526
0.997458
0.9974
0.997354
0.997326
0.997312
0.997313
0.998163
0.997968
0.997805
0.997682
0.997589
0.997512
0.997443
0.997384
0.997338
0.99731
0.997296
0.997297
0.998152
0.997958
0.997794
0.997669
0.997574
0.997496
0.997428
0.997369
0.997323
0.997294
0.99728
0.99728
0.998139
0.997946
0.997781
0.997654
0.997558
0.99748
0.997411
0.997352
0.997306
0.997277
0.997263
0.997264
0.998124
0.997932
0.997766
0.997638
0.99754
0.997462
0.997394
0.997335
0.997289
0.99726
0.997246
0.997247
0.998108
0.997916
0.99775
0.99762
0.997522
0.997444
0.997376
0.997318
0.997272
0.997243
0.997228
0.997229
0.998091
0.9979
0.997732
0.997601
0.997502
0.997425
0.997358
0.9973
0.997254
0.997225
0.99721
0.997212
0.998073
0.997881
0.997712
0.99758
0.997481
0.997404
0.997338
0.997281
0.997235
0.997206
0.997192
0.997193
0.998055
0.997862
0.997692
0.997558
0.99746
0.997383
0.997318
0.997261
0.997216
0.997187
0.997173
0.997175
0.998035
0.997842
0.997669
0.997535
0.997436
0.99736
0.997296
0.99724
0.997195
0.997167
0.997154
0.997156
0.998015
0.99782
0.997646
0.997511
0.997412
0.997337
0.997274
0.997219
0.997175
0.997147
0.997134
0.997136
0.997995
0.997797
0.997621
0.997485
0.997386
0.997312
0.99725
0.997196
0.997153
0.997125
0.997113
0.997116
0.997973
0.997774
0.997595
0.997458
0.99736
0.997287
0.997225
0.997172
0.99713
0.997103
0.997091
0.997094
0.997951
0.997748
0.997568
0.997429
0.997331
0.997259
0.997199
0.997147
0.997105
0.997079
0.997068
0.997072
0.997927
0.997722
0.99754
0.9974
0.997303
0.997231
0.997172
0.99712
0.99708
0.997055