/*--------------------------------*- C++ -*----------------------------------*\
  =========                 |
  \\      /  F ield         | OpenFOAM: The Open Source CFD Toolbox
   \\    /   O peration     | Website:  https://openfoam.org
    \\  /    A nd           | Version:  6.0
     \\/     M anipulation  |
\*---------------------------------------------------------------------------*/
FoamFile
{
    version     2.0;
    format      ascii;
    class       surfaceScalarField;
    location    "2.2";
    object      phi;
}
// * * * * * * * * * * * * * * * * * * * * * * * * * * * * * * * * * * * * * //

dimensions      [0 3 -1 0 0 0 0];

internalField   nonuniform List<scalar> 
47678
(
2.98108e-05
0.00388593
2.70955e-09
5.98488e-05
0.00381841
8.91147e-05
0.00368577
0.000116964
0.00349005
0.000142855
0.00323464
0.000166314
0.00292402
0.000186917
0.0025636
0.000204297
0.00215956
0.000218147
0.00171891
0.000228221
0.00124913
0.000234337
0.000759102
0.000260491
0.000236988
2.96221e-05
0.00385631
3.66168e-09
5.94703e-05
0.00378856
8.85505e-05
0.00365669
0.000116222
0.00346237
0.000141948
0.00320891
0.000165256
0.00290072
0.000185726
0.00254313
0.000202996
0.00214229
0.000216757
0.00170516
0.000226762
0.00123913
0.000232948
0.000752929
0.000257778
0.000235685
2.94342e-05
0.00382687
4.16759e-09
5.90935e-05
0.0037589
8.79896e-05
0.00362779
0.000115486
0.00343488
0.000141048
0.00318335
0.000164207
0.00287756
0.000184546
0.00252279
0.000201704
0.00212514
0.000215379
0.00169148
0.000225315
0.0012292
0.000231481
0.000746762
0.000255089
0.000234163
2.92474e-05
0.00379762
4.55654e-09
5.87189e-05
0.00372943
8.74322e-05
0.00359908
0.000114754
0.00340756
0.000140153
0.00315795
0.000163164
0.00285455
0.000183372
0.00250259
0.000200421
0.00210809
0.000214009
0.0016779
0.00022388
0.00121934
0.000229993
0.000740661
0.000252515
0.000232591
2.90618e-05
0.00376855
4.59012e-09
5.83467e-05
0.00370014
8.68783e-05
0.00357055
0.000114027
0.00338041
0.000139264
0.00313271
0.000162127
0.00283169
0.000182206
0.00248251
0.000199145
0.00209115
0.000212648
0.0016644
0.000222456
0.00120953
0.000228513
0.000734603
0.000249985
0.000231036
2.88774e-05
0.00373967
4.47831e-09
5.79769e-05
0.00367104
8.63278e-05
0.0035422
0.000113304
0.00335343
0.00013838
0.00310764
0.000161097
0.00280897
0.000181047
0.00246256
0.000197878
0.00207433
0.000211295
0.00165098
0.000221044
0.00119978
0.000227049
0.000728609
0.00024755
0.000229509
2.86941e-05
0.00371097
4.29031e-09
5.76093e-05
0.00364213
8.57806e-05
0.00351403
0.000112585
0.00332663
0.000137501
0.00308272
0.000160073
0.0027864
0.000179895
0.00244274
0.000196619
0.0020576
0.000209952
0.00163765
0.000219642
0.00119009
0.000225602
0.000722646
0.000245142
0.000228004
2.8512e-05
0.00368245
3.98817e-09
5.7244e-05
0.0036134
8.52368e-05
0.00348603
0.000111871
0.0033
0.000136628
0.00305797
0.000159055
0.00276397
0.000178751
0.00242304
0.000195368
0.00204099
0.000208617
0.00162441
0.00021825
0.00118047
0.000224167
0.000716739
0.000242819
0.000226516
2.83312e-05
0.00365412
3.65829e-09
5.68811e-05
0.00358485
8.46963e-05
0.00345822
0.000111161
0.00327353
0.00013576
0.00303337
0.000158044
0.00274169
0.000177614
0.00240347
0.000194125
0.00202448
0.00020729
0.00161124
0.000216867
0.00117089
0.000222744
0.000710857
0.000240515
0.000225043
2.81515e-05
0.00362596
3.28752e-09
5.65204e-05
0.00355648
8.4159e-05
0.00343058
0.000110455
0.00324724
0.000134897
0.00300893
0.000157039
0.00271955
0.000176484
0.00238403
0.00019289
0.00200808
0.000205972
0.00159816
0.000215492
0.00116137
0.00022133
0.000705028
0.000238283
0.000223587
2.7973e-05
0.00359799
2.85759e-09
5.6162e-05
0.00352829
8.3625e-05
0.00340312
0.000109753
0.00322111
0.00013404
0.00298464
0.00015604
0.00269755
0.000175362
0.00236471
0.000191663
0.00199178
0.000204662
0.00158516
0.000214125
0.00115191
0.000219926
0.000699223
0.000236057
0.000222146
2.77957e-05
0.00357019
2.36465e-09
5.58057e-05
0.00350028
8.30942e-05
0.00337583
0.000109056
0.00319515
0.000133188
0.00296051
0.000155048
0.00267569
0.000174246
0.00234551
0.000190444
0.00197558
0.000203361
0.00157225
0.000212767
0.00114251
0.000218532
0.000693468
0.000233892
0.000220718
2.76195e-05
0.00354257
1.79436e-09
5.54517e-05
0.00347245
8.25665e-05
0.00334871
0.000108363
0.00316935
0.000132341
0.00293653
0.000154062
0.00265397
0.000173138
0.00232644
0.000189233
0.00195949
0.000202069
0.00155941
0.000211418
0.00113316
0.000217146
0.000687734
0.000231727
0.000219302
2.74443e-05
0.00351512
1.16496e-09
5.50997e-05
0.00344479
8.2042e-05
0.00332177
0.000107674
0.00314372
0.000131499
0.00291271
0.000153082
0.00263239
0.000172037
0.00230748
0.00018803
0.0019435
0.000200785
0.00154666
0.000210077
0.00112387
0.000215769
0.000682051
0.000229617
0.000217897
2.72703e-05
0.00348785
5.14718e-10
5.47498e-05
0.00341731
8.15206e-05
0.003295
0.000106989
0.00311825
0.000130663
0.00288904
0.000152108
0.00261094
0.000170943
0.00228865
0.000186835
0.0019276
0.000199509
0.00153399
0.000208745
0.00111463
0.000214401
0.000676389
0.000227503
0.000216503
2.70972e-05
0.00346075
-8.78133e-11
5.44019e-05
0.00339001
8.10024e-05
0.0032684
0.000106309
0.00309295
0.000129831
0.00286551
0.000151141
0.00258963
0.000169856
0.00226994
0.000185647
0.00191182
0.000198242
0.0015214
0.000207421
0.00110546
0.000213042
0.000670776
0.00022544
0.000215119
2.69251e-05
0.00343383
-5.50635e-10
5.40561e-05
0.00336288
8.04872e-05
0.00324197
0.000105633
0.0030678
0.000129005
0.00284214
0.000150179
0.00256846
0.000168776
0.00225134
0.000184467
0.00189612
0.000196982
0.00150888
0.000206105
0.00109633
0.000211691
0.000665183
0.00022337
0.000213746
2.6754e-05
0.00340707
-7.75223e-10
5.37123e-05
0.00333592
7.99752e-05
0.0032157
0.000104961
0.00304282
0.000128185
0.00281892
0.000149224
0.00254742
0.000167703
0.00223286
0.000183295
0.00188053
0.000195731
0.00149645
0.000204798
0.00108727
0.00021035
0.000659639
0.000221349
0.000212382
2.65838e-05
0.00338049
-6.63951e-10
5.33705e-05
0.00330913
7.94663e-05
0.00318961
0.000104293
0.00301799
0.000127369
0.00279584
0.000148275
0.00252652
0.000166637
0.0022145
0.000182131
0.00186504
0.000194488
0.00148409
0.000203499
0.00107826
0.000209016
0.000654116
0.00021932
0.000211028
2.64145e-05
0.00335407
-1.45917e-10
5.30307e-05
0.00328252
7.89605e-05
0.00316368
0.000103629
0.00299332
0.000126559
0.00277291
0.000147332
0.00250574
0.000165578
0.00219626
0.000180974
0.00184965
0.000193254
0.00147181
0.000202209
0.00106931
0.000207691
0.000648641
0.000217338
0.000209683
2.62462e-05
0.00332783
8.11932e-10
5.2693e-05
0.00325607
7.84578e-05
0.00313791
0.000102969
0.00296881
0.000125754
0.00275013
0.000146395
0.0024851
0.000164525
0.00217813
0.000179824
0.00183434
0.000192027
0.00145961
0.000200927
0.0010604
0.000206375
0.000643186
0.000215346
0.000208348
2.60788e-05
0.00330174
2.20007e-09
5.23573e-05
0.00322979
7.79581e-05
0.00311231
0.000102314
0.00294446
0.000124954
0.00272749
0.000145465
0.00246459
0.00016348
0.00216011
0.000178682
0.00181915
0.000190808
0.00144748
0.000199653
0.00105156
0.000205067
0.000637779
0.000213402
0.000207022
2.59123e-05
0.00327583
3.96434e-09
5.20236e-05
0.00320368
7.74616e-05
0.00308687
0.000101663
0.00292026
0.000124159
0.00270499
0.00014454
0.00244421
0.000162441
0.00214221
0.000177547
0.00180404
0.000189597
0.00143543
0.000198387
0.00104277
0.000203767
0.000632392
0.000211447
0.000205704
2.57467e-05
0.00325007
6.02268e-09
5.16919e-05
0.00317773
7.69681e-05
0.0030616
0.000101015
0.00289621
0.000123369
0.00268264
0.000143621
0.00242396
0.000161408
0.00212443
0.00017642
0.00178903
0.000188394
0.00142346
0.000197129
0.00103404
0.000202476
0.000627052
0.000209539
0.000204396
2.5582e-05
0.00322448
8.2803e-09
5.13622e-05
0.00315195
7.64777e-05
0.00303648
0.000100372
0.00287232
0.000122584
0.00266043
0.000142707
0.00240384
0.000160383
0.00210675
0.0001753
0.00177411
0.000187199
0.00141156
0.000195879
0.00102535
0.000201192
0.000621732
0.000207621
0.000203097
2.54183e-05
0.00319905
1.06471e-08
5.10344e-05
0.00312634
7.59903e-05
0.00301153
9.97331e-05
0.00284857
0.000121804
0.00263836
0.0001418
0.00238384
0.000159364
0.00208919
0.000174187
0.00175929
0.000186011
0.00139974
0.000194637
0.00101673
0.000199917
0.000616459
0.000205748
0.000201806
2.52554e-05
0.00317379
1.30531e-08
5.07087e-05
0.00310089
7.5506e-05
0.00298673
9.9098e-05
0.00282498
0.000121029
0.00261642
0.000140899
0.00236397
0.000158351
0.00207173
0.000173081
0.00174456
0.000184831
0.00138799
0.000193403
0.00100815
0.00019865
0.000611204
0.000203863
0.000200524
2.50934e-05
0.00314868
1.54538e-08
5.03849e-05
0.00307559
7.50246e-05
0.00296209
9.84669e-05
0.00280154
0.000120259
0.00259463
0.000140003
0.00234423
0.000157346
0.00205439
0.000171982
0.00172992
0.000183658
0.00137631
0.000192177
0.00099964
0.000197391
0.000605997
0.000202023
0.00019925
2.49323e-05
0.00312373
1.78299e-08
5.00631e-05
0.00305046
7.45463e-05
0.00293761
9.78399e-05
0.00277825
0.000119494
0.00257298
0.000139113
0.00232461
0.000156346
0.00203716
0.00017089
0.00171538
0.000182493
0.00136471
0.000190959
0.00099117
0.00019614
0.000600808
0.000200171
0.000197984
2.47722e-05
0.00309893
2.01826e-08
4.97433e-05
0.00302549
7.40709e-05
0.00291328
9.72167e-05
0.0027551
0.000118734
0.00255146
0.000138228
0.00230512
0.000155353
0.00202003
0.000169806
0.00170093
0.000181336
0.00135318
0.000189748
0.000982761
0.000194897
0.000595666
0.000198361
0.000196726
2.4613e-05
0.0030743
2.25219e-08
4.94254e-05
0.00300068
7.35985e-05
0.0028891
9.65975e-05
0.0027321
0.000117978
0.00253008
0.00013735
0.00228574
0.000154366
0.00200302
0.000168728
0.00168656
0.000180186
0.00134172
0.000188546
0.000974396
0.000193662
0.000590542
0.000196539
0.000195477
2.44546e-05
0.00304982
2.48592e-08
4.91094e-05
0.00297603
7.3129e-05
0.00286508
9.59822e-05
0.00270925
0.000117227
0.00250884
0.000136477
0.00226649
0.000153386
0.00198611
0.000167657
0.00167229
0.000179043
0.00133034
0.000187351
0.000966093
0.000192435
0.000585464
0.000194757
0.000194236
2.42972e-05
0.00302549
2.71979e-08
4.87954e-05
0.00295153
7.26625e-05
0.00284122
9.53708e-05
0.00268654
0.000116482
0.00248773
0.000135609
0.00224736
0.000152412
0.0019693
0.000166593
0.00165811
0.000177908
0.00131902
0.000186163
0.000957833
0.000191215
0.000580404
0.000192962
0.000193002
2.41408e-05
0.00300132
2.953e-08
4.84833e-05
0.00292718
7.21989e-05
0.0028175
9.47632e-05
0.00266398
0.00011574
0.00246675
0.000134747
0.00222836
0.000151444
0.00195261
0.000165536
0.00164402
0.00017678
0.00130778
0.000184983
0.000949633
0.000190004
0.00057539
0.000191204
0.000191777
2.39852e-05
0.0029773
3.18345e-08
4.81732e-05
0.002903
7.17381e-05
0.00279394
9.41595e-05
0.00264156
0.000115004
0.00244591
0.000133891
0.00220947
0.000150482
0.00193602
0.000164486
0.00163001
0.000175659
0.0012966
0.000183811
0.000941475
0.0001888
0.000570393
0.000189434
0.00019056
2.38306e-05
0.00295344
3.40813e-08
4.7865e-05
0.00287896
7.12803e-05
0.00277052
9.35596e-05
0.00261928
0.000114272
0.00242519
0.00013304
0.0021907
0.000149527
0.00191953
0.000163442
0.0016161
0.000174545
0.0012855
0.000182646
0.000933378
0.000187603
0.000565441
0.0001877
0.000189351
2.36769e-05
0.00292973
3.62335e-08
4.75586e-05
0.00285508
7.08253e-05
0.00274725
9.29635e-05
0.00259714
0.000113545
0.00240461
0.000132194
0.00217205
0.000148577
0.00190315
0.000162405
0.00160227
0.000173438
0.00127447
0.000181488
0.000925323
0.000186414
0.000560507
0.000185951
0.00018815
2.35241e-05
0.00290616
3.82562e-08
4.72542e-05
0.00283135
7.03733e-05
0.00272413
9.23711e-05
0.00257514
0.000112823
0.00238416
0.000131354
0.00215352
0.000147634
0.00188687
0.000161375
0.00158853
0.000172339
0.00126351
0.000180338
0.000917327
0.000185233
0.000555617
0.000184238
0.000186956
2.33723e-05
0.00288275
4.0119e-08
4.69517e-05
0.00280777
6.9924e-05
0.00270116
9.17826e-05
0.00255328
0.000112105
0.00236384
0.000130519
0.00213511
0.000146696
0.00187069
0.000160351
0.00157487
0.000171246
0.00125261
0.000179195
0.000909372
0.00018406
0.000550744
0.000182513
0.00018577
2.32215e-05
0.00285949
4.18027e-08
4.66511e-05
0.00278434
6.94777e-05
0.00267833
9.11978e-05
0.00253156
0.000111392
0.00234364
0.00012969
0.00211681
0.000145765
0.00185462
0.000159334
0.0015613
0.000170161
0.00124178
0.00017806
0.000901476
0.000182894
0.000545916
0.000180822
0.000184592
2.30716e-05
0.00283637
4.32988e-08
4.63524e-05
0.00276106
6.90342e-05
0.00265565
9.06167e-05
0.00250998
0.000110683
0.00232358
0.000128866
0.00209863
0.00014484
0.00183864
0.000158323
0.00154781
0.000169082
0.00123102
0.000176932
0.00089362
0.000181735
0.000541104
0.000179118
0.000183421
2.29227e-05
0.0028134
4.46118e-08
4.60556e-05
0.00273793
6.85935e-05
0.00263311
9.00394e-05
0.00248854
0.000109979
0.00230364
0.000128047
0.00208056
0.00014392
0.00182277
0.000157319
0.00153442
0.00016801
0.00122033
0.000175811
0.000885823
0.000180583
0.000536336
0.000177449
0.000182258
2.27747e-05
0.00279058
4.57535e-08
4.57607e-05
0.00271494
6.81556e-05
0.00261072
8.94658e-05
0.00246722
0.000109279
0.00228383
0.000127233
0.0020626
0.000143007
0.00180699
0.000156321
0.0015211
0.000166945
0.00120971
0.000174697
0.000878066
0.000179439
0.000531584
0.000175769
0.000181102
2.26278e-05
0.00276791
4.67425e-08
4.54677e-05
0.0026921
6.77206e-05
0.00258847
8.88958e-05
0.00244605
0.000108584
0.00226414
0.000126425
0.00204476
0.000142099
0.00179132
0.00015533
0.00150787
0.000165887
0.00119915
0.00017359
0.000870366
0.000178302
0.000526875
0.000174122
0.000179954
2.24818e-05
0.00274538
4.75959e-08
4.51767e-05
0.00266941
6.72883e-05
0.00256635
8.83295e-05
0.00242501
0.000107893
0.00224457
0.000125622
0.00202703
0.000141197
0.00177574
0.000154345
0.00149472
0.000164835
0.00118866
0.00017249
0.000862706
0.000177173
0.000522183
0.000172465
0.000178813
2.23368e-05
0.00272299
4.83293e-08
4.48875e-05
0.00264686
6.68589e-05
0.00254438
8.77669e-05
0.0024041
0.000107207
0.00222513
0.000124824
0.00200942
0.000140301
0.00176027
0.000153366
0.00148165
0.000163791
0.00117824
0.000171397
0.000855103
0.000176051
0.000517532
0.000170841
0.00017768
2.21928e-05
0.00270075
4.89509e-08
4.46002e-05
0.00262445
6.64322e-05
0.00252255
8.72079e-05
0.00238333
0.000106525
0.00220582
0.000124031
0.00199191
0.00013941
0.00174488
0.000152393
0.00146867
0.000162753
0.00116787
0.000170311
0.000847538
0.000174935
0.000512897
0.000169208
0.000176554
2.20497e-05
0.00267865
4.94653e-08
4.43148e-05
0.00260218
6.60083e-05
0.00250086
8.66525e-05
0.00236268
0.000105848
0.00218662
0.000123243
0.00197452
0.000138525
0.0017296
0.000151427
0.00145577
0.000161721
0.00115758
0.000169232
0.00084003
0.000173827
0.000508303
0.000167607
0.000175435
2.19077e-05
0.00265669
4.98719e-08
4.40312e-05
0.00258006
6.55872e-05
0.0024793
8.61006e-05
0.00234217
0.000105175
0.00216755
0.00012246
0.00195723
0.000137646
0.00171441
0.000150466
0.00144295
0.000160696
0.00114735
0.00016816
0.000832561
0.000172726
0.000503726
0.000165999
0.000174323
2.17666e-05
0.00263487
5.01728e-08
4.37495e-05
0.00255808
6.51688e-05
0.00245788
8.55524e-05
0.00232179
0.000104506
0.00214859
0.000121682
0.00194005
0.000136773
0.00169933
0.000149512
0.00143021
0.000159677
0.00113718
0.000167094
0.000825146
0.000171632
0.000499189
0.000164421
0.000173219
2.16265e-05
0.0026132
5.03732e-08
4.34697e-05
0.00253624
6.47531e-05
0.0024366
8.50077e-05
0.00230153
0.000103841
0.00212976
0.000120909
0.00192298
0.000135905
0.00168433
0.000148564
0.00141755
0.000158665
0.00112708
0.000166035
0.00081777
0.000170545
0.000494668
0.000162836
0.000172121
2.14874e-05
0.00259166
5.04893e-08
4.31917e-05
0.00251453
6.43401e-05
0.00241545
8.44665e-05
0.00228141
0.000103181
0.00211105
0.000120141
0.00190603
0.000135042
0.00166943
0.000147622
0.00140497
0.00015766
0.00111704
0.000164984
0.000810449
0.000169465
0.000490187
0.000161282
0.000171031
2.13492e-05
0.00257026
5.05468e-08
4.29156e-05
0.00249296
6.39298e-05
0.00239443
8.39288e-05
0.00226141
0.000102525
0.00209245
0.000119378
0.00188917
0.000134185
0.00165462
0.000146686
0.00139246
0.000156661
0.00110706
0.000163938
0.000803165
0.000168391
0.000485724
0.000159719
0.000169948
2.12121e-05
0.00254899
5.0584e-08
4.26413e-05
0.00247154
6.35222e-05
0.00237355
8.33945e-05
0.00224154
0.000101873
0.00207397
0.00011862
0.00187243
0.000133334
0.00163991
0.000145755
0.00138004
0.000155668
0.00109715
0.0001629
0.000795935
0.000167325
0.000481299
0.000158185
0.000168871
2.10758e-05
0.00252787
5.06456e-08
4.23688e-05
0.00245024
6.31173e-05
0.0023528
8.28637e-05
0.00222179
0.000101226
0.00205561
0.000117867
0.00185578
0.000132488
0.00162528
0.000144831
0.0013677
0.000154681
0.0010873
0.000161868
0.000788743
0.000166265
0.000476892
0.000156644
0.000167802
2.09405e-05
0.00250687
5.07803e-08
4.20981e-05
0.00242909
6.27149e-05
0.00233219
8.23363e-05
0.00220217
0.000100582
0.00203736
0.000117118
0.00183925
0.000131647
0.00161075
0.000143913
0.00135543
0.000153701
0.00107751
0.000160842
0.000781603
0.000165212
0.000472523
0.000155129
0.000166739
2.08062e-05
0.00248602
5.10323e-08
4.18292e-05
0.00240806
6.23152e-05
0.0023117
8.18123e-05
0.00218267
9.99427e-05
0.00201923
0.000116374
0.00182281
0.000130812
0.00159632
0.000143
0.00134324
0.000152727
0.00106778
0.000159823
0.000774501
0.000164166
0.000468172
0.000153605
0.000165683
2.06727e-05
0.00246529
5.14375e-08
4.15621e-05
0.00238717
6.19181e-05
0.00229134
8.12917e-05
0.0021633
9.93074e-05
0.00200122
0.000115635
0.00180649
0.000129981
0.00158197
0.000142093
0.00133113
0.000151759
0.00105812
0.000158811
0.000767451
0.000163126
0.000463859
0.000152108
0.000164634
2.05402e-05
0.0024447
5.20165e-08
4.12967e-05
0.00236642
6.15235e-05
0.00227112
8.07744e-05
0.00214405
9.86762e-05
0.00198332
0.000114901
0.00179026
0.000129157
0.00156771
0.000141192
0.00131909
0.000150797
0.00104851
0.000157805
0.000760437
0.000162093
0.000459563
0.000150603
0.000163592
2.04086e-05
0.00242423
5.2775e-08
4.10331e-05
0.00234579
6.11315e-05
0.00225102
8.02605e-05
0.00212492
9.8049e-05
0.00196553
0.000114171
0.00177414
0.000128337
0.00155355
0.000140297
0.00130713
0.000149842
0.00103897
0.000156806
0.000753475
0.000161067
0.000455303
0.000149122
0.000162556
2.02778e-05
0.0024039
5.37022e-08
4.07712e-05
0.0023253
6.07421e-05
0.00223105
7.97498e-05
0.00210591
9.74258e-05
0.00194785
0.000113446
0.00175812
0.000127523
0.00153947
0.000139408
0.00129524
0.000148892
0.00102948
0.000155813
0.000746549
0.000160047
0.000451061
0.000147634
0.000161527
2.01479e-05
0.0023837
5.47759e-08
4.0511e-05
0.00230494
6.03551e-05
0.0022112
7.92424e-05
0.00208703
9.68065e-05
0.00193029
0.000112726
0.0017422
0.000126714
0.00152548
0.000138524
0.00128344
0.000147949
0.00102006
0.000154826
0.000739673
0.000159034
0.000446855
0.000146171
0.000160504
2.00189e-05
0.00236362
5.5965e-08
4.02525e-05
0.00228471
5.99706e-05
0.00219149
7.87382e-05
0.00206826
9.61913e-05
0.00191283
0.00011201
0.00172638
0.00012591
0.00151158
0.000137645
0.0012717
0.000147012
0.00101069
0.000153846
0.000732833
0.000158028
0.000442666
0.0001447
0.000159489
1.98908e-05
0.00234367
5.72371e-08
3.99957e-05
0.0022646
5.95886e-05
0.00217189
7.82373e-05
0.00204961
9.55799e-05
0.00189549
0.000111299
0.00171066
0.000125111
0.00149777
0.000136773
0.00126004
0.00014608
0.00100138
0.000152872
0.000726042
0.000157028
0.000438511
0.000143255
0.000158479
1.97635e-05
0.00232385
5.85609e-08
3.97405e-05
0.00224462
5.92091e-05
0.00215242
7.77395e-05
0.00203108
9.49724e-05
0.00187826
0.000110592
0.00169504
0.000124317
0.00148404
0.000135906
0.00124844
0.000145155
0.000992127
0.000151904
0.000719288
0.000156034
0.000434373
0.000141802
0.000157477
1.9637e-05
0.00230415
5.99119e-08
3.9487e-05
0.00222477
5.8832e-05
0.00213308
7.7245e-05
0.00201267
9.43688e-05
0.00186114
0.00010989
0.00167952
0.000123528
0.0014704
0.000135044
0.00123693
0.000144235
0.000982937
0.000150942
0.000712582
0.000155047
0.000430268
0.000140375
0.000156481
1.95113e-05
0.00228458
6.12712e-08
3.92352e-05
0.00220505
5.84573e-05
0.00211386
7.67536e-05
0.00199437
9.37691e-05
0.00184412
0.000109192
0.0016641
0.000122745
0.00145685
0.000134188
0.00122548
0.000143322
0.0009738
0.000149987
0.000705912
0.000154066
0.000426181
0.000138942
0.000155492
1.93864e-05
0.00226513
6.26278e-08
3.89849e-05
0.00218545
5.8085e-05
0.00209476
7.62653e-05
0.00197619
9.31731e-05
0.00182721
0.000108499
0.00164877
0.000121966
0.00144338
0.000133338
0.00121411
0.000142414
0.000964724
0.000149038
0.000699289
0.000153091
0.000422126
0.000137534
0.000154509
1.92624e-05
0.0022458
6.39745e-08
3.87363e-05
0.00216598
5.77151e-05
0.00207578
7.57801e-05
0.00195813
9.2581e-05
0.00181041
0.00010781
0.00163354
0.000121193
0.00143
0.000132493
0.00120281
0.000141512
0.000955701
0.000148094
0.000692701
0.000152123
0.000418088
0.000136119
0.000153532
1.91391e-05
0.00222659
6.53074e-08
3.84893e-05
0.00214663
5.73475e-05
0.00205692
7.5298e-05
0.00194018
9.19927e-05
0.00179372
0.000107125
0.00161841
0.000120424
0.0014167
0.000131653
0.00119158
0.000140616
0.000946739
0.000147157
0.000686161
0.000151161
0.000414083
0.000134729
0.000152562
1.90166e-05
0.00220751
6.66216e-08
3.82438e-05
0.0021274
5.69823e-05
0.00203818
7.4819e-05
0.00192234
9.1408e-05
0.00177713
0.000106445
0.00160337
0.00011966
0.00140349
0.000130819
0.00118042
0.000139726
0.000937829
0.000146226
0.000679655
0.000150206
0.000410094
0.000133331
0.000151599
1.88948e-05
0.00218855
6.79109e-08
3.79999e-05
0.0021083
5.66193e-05
0.00201956
7.4343e-05
0.00190462
9.08271e-05
0.00176065
0.00010577
0.00158843
0.000118901
0.00139036
0.00012999
0.00116933
0.000138841
0.000928978
0.000145301
0.000673196
0.000149256
0.000406138
0.000131959
0.000150641
1.87738e-05
0.0021697
6.91658e-08
3.77575e-05
0.00208932
5.62587e-05
0.00200106
7.38701e-05
0.00188701
9.025e-05
0.00174427
0.000105098
0.00157358
0.000118147
0.0013773
0.000129166
0.00115831
0.000137963
0.000920179
0.000144382
0.000666771
0.000148313
0.000402199
0.000130576
0.00014969
1.86536e-05
0.00215098
7.03751e-08
3.75167e-05
0.00207045
5.59004e-05
0.00198268
7.34001e-05
0.00186951
8.96764e-05
0.00172799
0.000104431
0.00155883
0.000117398
0.00136434
0.000128348
0.00114736
0.000137089
0.000911438
0.000143469
0.000660392
0.000147376
0.000398291
0.000129219
0.000148745
1.85341e-05
0.00213237
7.15256e-08
3.72774e-05
0.00205171
5.55444e-05
0.00196441
7.29332e-05
0.00185212
8.91066e-05
0.00171182
0.000103768
0.00154417
0.000116654
0.00135145
0.000127535
0.00113648
0.000136222
0.000902748
0.000142562
0.000654047
0.000146444
0.000394401
0.000127851
0.000147806
1.84153e-05
0.00211388
7.26057e-08
3.70395e-05
0.00203309
5.51906e-05
0.00194626
7.24692e-05
0.00183485
8.85404e-05
0.00169575
0.00010311
0.0015296
0.000115914
0.00133865
0.000126728
0.00112567
0.00013536
0.000894117
0.00014166
0.000647747
0.000145519
0.000390542
0.000126508
0.000146873
1.82973e-05
0.00209551
7.3605e-08
3.68032e-05
0.00201458
5.4839e-05
0.00192823
7.20082e-05
0.00181768
8.79778e-05
0.00167978
0.000102455
0.00151512
0.000115179
0.00132592
0.000125925
0.00111492
0.000134503
0.000885535
0.000140765
0.000641481
0.0001446
0.0003867
0.000125154
0.000145946
1.818e-05
0.00207725
7.45182e-08
3.65683e-05
0.0019962
5.44897e-05
0.00191031
7.15501e-05
0.00180062
8.74188e-05
0.00166391
0.000101805
0.00150074
0.000114449
0.00131328
0.000125128
0.00110424
0.000133653
0.00087701
0.000139875
0.000635258
0.000143687
0.000382888
0.000123826
0.000145025
1.80633e-05
0.00205911
7.53428e-08
3.6335e-05
0.00197793
5.41426e-05
0.0018925
7.10949e-05
0.00178367
8.68634e-05
0.00164815
0.000101159
0.00148644
0.000113724
0.00130072
0.000124335
0.00109363
0.000132807
0.000868536
0.000138991
0.00062907
0.00014278
0.000379093
0.000122485
0.000144111
1.79474e-05
0.00204109
7.60818e-08
3.6103e-05
0.00195977
5.37976e-05
0.00187481
7.06426e-05
0.00176682
8.63115e-05
0.00163248
0.000100517
0.00147224
0.000113003
0.00128823
0.000123548
0.00108308
0.000131968
0.000860117
0.000138113
0.000622924
0.000141879
0.000375329
0.000121171
0.000143202
1.78322e-05
0.00202318
7.67394e-08
3.58725e-05
0.00194173
5.34549e-05
0.00185723
7.01932e-05
0.00175009
8.57632e-05
0.00161691
9.98794e-05
0.00145813
0.000112287
0.00127582
0.000122766
0.0010726
0.000131133
0.000851748
0.000137241
0.000616812
0.000140984
0.00037158
0.000119844
0.000142299
1.77177e-05
0.00200538
7.73231e-08
3.56435e-05
0.00192381
5.31143e-05
0.00183976
6.97467e-05
0.00173346
8.52184e-05
0.00160144
9.92458e-05
0.0014441
0.000111576
0.0012635
0.00012199
0.00106219
0.000130304
0.000843433
0.000136374
0.000610742
0.000140094
0.000367862
0.000118545
0.000141402
1.76039e-05
0.0019877
7.78386e-08
3.54159e-05
0.001906
5.27759e-05
0.0018224
6.9303e-05
0.00171693
8.46771e-05
0.00158607
9.86163e-05
0.00143016
0.000110869
0.00125124
0.000121218
0.00105184
0.000129481
0.000835168
0.000135513
0.000604705
0.00013921
0.000364159
0.000117231
0.000140511
1.74908e-05
0.00197013
7.82927e-08
3.51897e-05
0.0018883
5.24396e-05
0.00180515
6.88622e-05
0.00170051
8.41393e-05
0.00157079
9.79908e-05
0.00141631
0.000110167
0.00123907
0.000120451
0.00104155
0.000128663
0.000826957
0.000134658
0.000598711
0.000138333
0.000360487
0.000115946
0.000139625
1.73784e-05
0.00195267
7.86889e-08
3.49649e-05
0.00187071
5.21054e-05
0.00178801
6.84242e-05
0.00168419
8.36049e-05
0.00155561
9.73694e-05
0.00140255
0.000109469
0.00122697
0.000119689
0.00103133
0.00012785
0.000818794
0.000133808
0.000592748
0.00013746
0.000356828
0.000114647
0.000138746
1.72667e-05
0.00193532
7.90323e-08
3.47415e-05
0.00185324
5.17734e-05
0.00177098
6.7989e-05
0.00166798
8.3074e-05
0.00154053
9.6752e-05
0.00138887
0.000108776
0.00121495
0.000118932
0.00102118
0.000127042
0.000810685
0.000132964
0.000586827
0.000136594
0.000353201
0.000113377
0.000137872
1.71557e-05
0.00191809
7.9327e-08
3.45195e-05
0.00183588
5.14435e-05
0.00175406
6.75566e-05
0.00165187
8.25465e-05
0.00152554
9.61386e-05
0.00137528
0.000108087
0.001203
0.00011818
0.00101108
0.00012624
0.000802623
0.000132125
0.000580938
0.000135733
0.000349587
0.000112091
0.000137004
1.70453e-05
0.00190096
7.95809e-08
3.4299e-05
0.00181863
5.11157e-05
0.00173724
6.71269e-05
0.00163586
8.20224e-05
0.00151065
9.55292e-05
0.00136178
0.000107403
0.00119113
0.000117433
0.00100105
0.000125443
0.000794614
0.000131292
0.00057509
0.000134878
0.000346004
0.000110836
0.000136142
1.69357e-05
0.00188394
7.98039e-08
3.40798e-05
0.00180148
5.079e-05
0.00172053
6.67001e-05
0.00161995
8.15017e-05
0.00149585
9.49237e-05
0.00134835
0.000106723
0.00117933
0.000116691
0.000991083
0.000124651
0.000786652
0.000130464
0.000569272
0.000134029
0.000342433
0.000109564
0.000135285
1.68267e-05
0.00186703
8.00124e-08
3.3862e-05
0.00178445
5.04663e-05
0.00170393
6.62759e-05
0.00160414
8.09844e-05
0.00148114
9.43222e-05
0.00133502
0.000106048
0.0011676
0.000115954
0.000981178
0.000123865
0.000778742
0.000129642
0.000563496
0.000133185
0.000338894
0.000108323
0.000134434
1.67184e-05
0.00185024
8.02253e-08
3.36455e-05
0.00176752
5.01447e-05
0.00168743
6.58545e-05
0.00158844
8.04704e-05
0.00146653
9.37246e-05
0.00132177
0.000105377
0.00115595
0.000115221
0.000971332
0.000123083
0.000770878
0.000128825
0.00055775
0.000132347
0.000335366
0.000107066
0.000133589
1.66108e-05
0.00183354
8.04671e-08
3.34305e-05
0.00175071
4.98252e-05
0.00167104
6.54359e-05
0.00157283
7.99597e-05
0.00145201
9.31309e-05
0.0013086
0.000104711
0.00114437
0.000114494
0.00096155
0.000122307
0.000763066
0.000128014
0.000552045
0.000131514
0.00033187
0.00010584
0.000132749
1.65038e-05
0.00181696
8.07618e-08
3.32168e-05
0.001734
4.95078e-05
0.00165475
6.50199e-05
0.00155732
7.94524e-05
0.00143758
9.25411e-05
0.00129551
0.000104049
0.00113286
0.000113771
0.000951826
0.000121536
0.000755299
0.000127208
0.00054637
0.000130687
0.000328385
0.000104596
0.000131914
1.63976e-05
0.00180048
8.11341e-08
3.30045e-05
0.00171739
4.91924e-05
0.00163857
6.46067e-05
0.00154191
7.89484e-05
0.00142324
9.19551e-05
0.0012825
0.000103391
0.00112143
0.000113053
0.000942165
0.00012077
0.000747584
0.000126407
0.000540735
0.000129865
0.000324931
0.000103384
0.000131086
1.6292e-05
0.0017841
8.16036e-08
3.27935e-05
0.00170089
4.8879e-05
0.00162248
6.41961e-05
0.00152659
7.84477e-05
0.00140899
9.1373e-05
0.00126958
0.000102737
0.00111006
0.000112339
0.000932562
0.000120008
0.000739913
0.000125611
0.000535128
0.000129048
0.000321488
0.000102154
0.000130262
1.61871e-05
0.00176783
8.21858e-08
3.25839e-05
0.0016845
4.85676e-05
0.0016065
6.37882e-05
0.00151138
7.79502e-05
0.00139483
9.07947e-05
0.00125674
0.000102088
0.00109877
0.000111631
0.000923021
0.000119252
0.000732292
0.000124821
0.000529562
0.000128237
0.000318076
0.000100956
0.000129444
1.60829e-05
0.00175167
8.28873e-08
3.23756e-05
0.00166821
4.82583e-05
0.00159062
6.33829e-05
0.00149625
7.7456e-05
0.00138076
9.02202e-05
0.00124397
0.000101443
0.00108755
0.000110927
0.000913537
0.000118501
0.000724716
0.000124036
0.000524024
0.000127432
0.000314674
9.97393e-05
0.000128632
1.59793e-05
0.0017356
8.37088e-08
3.21687e-05
0.00165202
4.79509e-05
0.00157484
6.29803e-05
0.00148123
7.6965e-05
0.00136677
8.96494e-05
0.00123129
0.000100803
0.0010764
0.000110227
0.000904114
0.000117755
0.000717189
0.000123256
0.000518527
0.000126631
0.000311303
9.85555e-05
0.000127824
1.58764e-05
0.00171964
8.46423e-08
3.19632e-05
0.00163593
4.76456e-05
0.00155916
6.25804e-05
0.0014663
7.64772e-05
0.00135288
8.90824e-05
0.00121869
0.000100166
0.00106531
0.000109533
0.000894747
0.000117014
0.000709706
0.000122481
0.000513056
0.000125836
0.000307941
9.73526e-05
0.000127023
1.57742e-05
0.00170378
8.56762e-08
3.1759e-05
0.00161995
4.73423e-05
0.00154358
6.2183e-05
0.00145146
7.59927e-05
0.00133907
8.85192e-05
0.00120616
9.9534e-05
0.0010543
0.000108843
0.00088544
0.000116278
0.000702271
0.000121712
0.000507626
0.000125046
0.000304612
9.61829e-05
0.000126226
1.56727e-05
0.00168802
8.67934e-08
3.15561e-05
0.00160407
4.70409e-05
0.0015281
6.17882e-05
0.00143671
7.55113e-05
0.00132535
8.79597e-05
0.00119372
9.89059e-05
0.00104335
0.000108157
0.000876188
0.000115546
0.00069488
0.000120947
0.000502222
0.000124262
0.00030129
9.49932e-05
0.000125435
1.55718e-05
0.00167236
8.79774e-08
3.13546e-05
0.00158829
4.67416e-05
0.00151271
6.13961e-05
0.00142206
7.50331e-05
0.00131171
8.74038e-05