/*--------------------------------*- C++ -*----------------------------------*\
  =========                 |
  \\      /  F ield         | OpenFOAM: The Open Source CFD Toolbox
   \\    /   O peration     | Website:  https://openfoam.org
    \\  /    A nd           | Version:  6.0
     \\/     M anipulation  |
\*---------------------------------------------------------------------------*/
FoamFile
{
    version     2.0;
    format      ascii;
    class       volVectorField;
    location    "2.2";
    object      U;
}
// * * * * * * * * * * * * * * * * * * * * * * * * * * * * * * * * * * * * * //

dimensions      [0 1 -1 0 0 0 0];

internalField   nonuniform List<vector> 
34500
(
(0.999996 6.14456e-06 -4.6336e-17)
(0.999969 -7.41976e-06 -8.1359e-18)
(0.999919 -3.2942e-05 1.42221e-16)
(0.999852 -7.72436e-05 -1.07654e-16)
(0.999778 -0.000142589 3.35488e-17)
(0.99971 -0.000226807 -1.01454e-16)
(0.999657 -0.000324904 -1.00965e-16)
(0.999626 -0.000430007 8.65105e-17)
(0.999619 -0.000535052 1.07217e-16)
(0.999639 -0.000632777 -6.82757e-16)
(0.999683 -0.000715746 -1.03964e-15)
(0.999746 -0.000785605 1.26687e-16)
(0.999822 -0.000828779 4.33509e-16)
(0.999973 -0.000920272 -2.06878e-16)
(0.998625 -0.00156961 7.59917e-17)
(0.999992 2.09997e-05 3.24503e-17)
(0.999943 -1.14457e-05 9.76396e-17)
(0.999853 -6.58915e-05 7.17544e-17)
(0.999734 -0.000153893 -3.02178e-16)
(0.999606 -0.000278452 -5.05809e-16)
(0.999489 -0.000434428 -5.50326e-17)
(0.9994 -0.000612388 2.5545e-16)
(0.999352 -0.000800923 -6.77029e-16)
(0.999349 -0.000986768 -1.78554e-16)
(0.999394 -0.00115739 6.81049e-16)
(0.999481 -0.00129741 1.26117e-15)
(0.999604 -0.00140971 -6.28477e-16)
(0.999735 -0.00146772 -9.82847e-16)
(1.00007 -0.00156106 -3.94001e-16)
(0.998627 -0.002194 5.18839e-16)
(0.999988 3.50319e-05 1.04688e-17)
(0.999945 -1.1831e-05 -1.2292e-16)
(0.999867 -7.82852e-05 -1.25163e-16)
(0.999765 -0.000173773 4.55621e-16)
(0.999658 -0.000299682 -2.86157e-17)
(0.999563 -0.000449643 -1.63985e-16)
(0.999495 -0.000614415 9.77969e-17)
(0.999464 -0.000784668 3.84429e-16)
(0.999474 -0.000949095 2.34049e-19)
(0.999525 -0.00109815 -3.92667e-16)
(0.999614 -0.00121746 -7.27367e-16)
(0.999735 -0.00131056 4.13187e-16)
(0.999844 -0.00135654 2.24444e-16)
(1.0002 -0.00140546 1.64108e-16)
(0.999255 -0.00169707 -2.43744e-16)
(0.999984 4.77962e-05 -1.73566e-17)
(0.999948 -1.39975e-05 -9.0241e-18)
(0.999884 -9.22009e-05 4.83197e-17)
(0.999802 -0.00019372 -3.05355e-16)
(0.999718 -0.000318828 3.72156e-16)
(0.999646 -0.00046082 3.29839e-16)
(0.999598 -0.000611324 -3.99324e-16)
(0.999582 -0.000763094 -4.19717e-16)
(0.999602 -0.00090738 4.34719e-16)
(0.999657 -0.00103778 -4.70158e-16)
(0.999741 -0.00114245 -2.44194e-16)
(0.999857 -0.00122592 -3.84858e-16)
(0.999942 -0.00127675 5.41421e-16)
(1.00026 -0.00131269 -4.79246e-17)
(0.999644 -0.00154149 2.14345e-17)
(0.999978 5.96729e-05 -1.70454e-17)
(0.999942 -1.80418e-05 1.53321e-16)
(0.999882 -0.000111636 6.95531e-17)
(0.999805 -0.000226756 1.69739e-16)
(0.999727 -0.000363449 4.67375e-17)
(0.999662 -0.000514882 -1.58204e-16)
(0.999621 -0.000672712 1.02488e-16)
(0.999613 -0.000829766 2.66183e-16)
(0.99964 -0.000977476 -4.17445e-16)
(0.999702 -0.00110982 -2.30816e-16)
(0.999793 -0.00121529 1.00562e-15)
(0.999919 -0.00129819 6.33468e-16)
(1 -0.00135154 -2.89226e-16)
(1.00029 -0.00137145 5.9125e-16)
(0.999888 -0.00155963 -5.87062e-16)
(0.99997 7.09496e-05 1.83541e-17)
(0.999934 -2.24757e-05 -9.4814e-17)
(0.999874 -0.000131859 -1.86337e-16)
(0.999799 -0.000261781 -5.29324e-17)
(0.999725 -0.000412184 1.09414e-16)
(0.999663 -0.00057616 -1.08815e-16)
(0.999627 -0.000745129 1.48127e-16)
(0.999626 -0.000911394 1.31135e-16)
(0.999662 -0.0010655 2.90863e-16)
(0.999735 -0.00120064 -1.00181e-16)
(0.999838 -0.00130456 2.86715e-18)
(0.999978 -0.00138037 -3.88831e-16)
(1.00007 -0.00142341 1.82873e-17)
(1.00033 -0.00141384 -4.68144e-16)
(1.00009 -0.00151467 7.41284e-17)
(0.999961 8.16639e-05 3.25584e-18)
(0.999925 -2.68353e-05 -3.55891e-17)
(0.99987 -0.000150677 -2.90189e-17)
(0.999801 -0.000292962 1.7573e-16)
(0.999734 -0.000453311 -2.20427e-16)
(0.999681 -0.000624839 2.75401e-16)
(0.999655 -0.000799037 -6.19065e-16)
(0.999663 -0.000968249 -3.69709e-16)
(0.999709 -0.00112239 -1.51526e-16)
(0.999792 -0.0012542 6.70956e-16)
(0.999905 -0.00135101 -7.67729e-16)
(1.00006 -0.00141497 2.97781e-16)
(1.00016 -0.00144508 4.55636e-16)
(1.00038 -0.00140982 -9.5737e-17)
(1.00025 -0.00145087 -1.2071e-16)
(0.999951 9.18322e-05 1.51181e-17)
(0.999917 -3.13405e-05 3.22876e-17)
(0.999866 -0.000168865 2.50284e-17)
(0.999806 -0.000322155 -1.50857e-16)
(0.99975 -0.000490404 3.28826e-16)
(0.999708 -0.000666751 -1.39563e-16)
(0.999693 -0.000843009 2.01492e-16)
(0.999712 -0.00101206 -1.46216e-16)
(0.999768 -0.00116362 3.97401e-16)
(0.999862 -0.00129047 1.77661e-16)
(0.999982 -0.00137999 2.44603e-16)
(1.00014 -0.00143379 -5.6471e-17)
(1.00025 -0.00145552 -5.04097e-16)
(1.00045 -0.00140561 1.13717e-15)
(1.00038 -0.00142137 1.8651e-16)
(0.99994 0.000101539 -1.12171e-17)
(0.999907 -3.61164e-05 9.89563e-17)
(0.999861 -0.00018728 1.50794e-16)
(0.999808 -0.000351748 1.1191e-16)
(0.999762 -0.000528299 -4.88608e-16)
(0.999732 -0.000709943 1.40941e-16)
(0.999729 -0.000888812 3.20634e-16)
(0.999759 -0.00105837 7.72251e-16)
(0.999825 -0.00120836 -3.85264e-16)
(0.999928 -0.00133181 9.00045e-17)
(1.00006 -0.00141638 4.48832e-16)
(1.00022 -0.00146314 -3.23526e-16)
(1.00034 -0.00147988 -1.5391e-16)
(1.00052 -0.00142171 -3.80535e-16)
(1.00049 -0.00142036 8.40385e-17)
(0.999927 0.000110911 4.06895e-17)
(0.999895 -4.10706e-05 -8.97373e-17)
(0.999853 -0.000205977 8.85235e-18)
(0.999807 -0.000382146 -1.10172e-16)
(0.99977 -0.000567989 4.10589e-16)
(0.999751 -0.000756194 7.9597e-17)
(0.999758 -0.000939064 2.70182e-16)
(0.999799 -0.00111046 -5.72926e-16)
(0.999876 -0.00126027 4.15754e-17)
(0.999988 -0.00138181 -7.86549e-17)
(1.00012 -0.00146321 -1.39606e-16)
(1.0003 -0.0015048 4.41078e-17)
(1.00043 -0.00151736 5.91892e-16)
(1.0006 -0.00145265 -8.03839e-16)
(1.0006 -0.00143229 -2.69434e-16)
(0.999914 0.000120068 -2.62243e-17)
(0.999882 -4.60715e-05 3.525e-17)
(0.999843 -0.000224731 -1.47523e-16)
(0.999803 -0.00041294 2.49938e-16)
(0.999774 -0.000608817 -3.6154e-16)
(0.999764 -0.000804598 -3.03042e-16)
(0.999783 -0.000992605 -3.38798e-16)
(0.999835 -0.00116683 3.9105e-17)
(0.999923 -0.00131739 -8.13924e-17)
(1.00005 -0.00143787 -4.2438e-16)
(1.00019 -0.00151701 -7.20878e-16)
(1.00037 -0.00155423 2.85708e-16)
(1.00052 -0.00156207 -3.28215e-16)
(1.00069 -0.00149044 9.06644e-16)
(1.00071 -0.00144895 5.37451e-17)
(0.999899 0.000129123 -2.45558e-17)
(0.999867 -5.10284e-05 -1.04233e-16)
(0.999832 -0.000243389 1.50734e-16)
(0.999797 -0.000443832 -2.34153e-16)
(0.999776 -0.000650262 7.68661e-17)
(0.999775 -0.000854437 4.54157e-16)
(0.999804 -0.00104857 5.53894e-17)
(0.999868 -0.00122654 -6.73434e-17)
(0.999966 -0.00137857 1.81518e-16)
(1.0001 -0.00149848 -1.56884e-16)
(1.00025 -0.00157562 -9.50571e-17)
(1.00044 -0.00160841 -6.67604e-17)
(1.0006 -0.00161006 -2.87041e-16)
(1.00077 -0.00152983 -6.21196e-16)
(1.00083 -0.00146513 1.24219e-17)
(0.999884 0.000138179 -2.17673e-18)
(0.999851 -5.58803e-05 1.40497e-16)
(0.999818 -0.000261868 -2.21517e-16)
(0.999789 -0.000474632 8.34078e-17)
(0.999775 -0.000691927 -9.35636e-17)
(0.999783 -0.000905082 -1.54754e-16)
(0.999823 -0.0011061 -3.88922e-17)
(0.999897 -0.00128854 3.65027e-16)
(1.00001 -0.00144255 -6.30206e-16)
(1.00015 -0.00156197 4.2023e-16)
(1.00032 -0.0016367 2.20481e-16)
(1.00051 -0.00166413 1.84046e-16)
(1.00069 -0.00165746 7.49341e-16)
(1.00086 -0.00156632 7.29911e-16)
(1.00095 -0.00147746 5.48936e-16)
(0.999867 0.000147331 8.30359e-18)
(0.999833 -6.05795e-05 5.2877e-17)
(0.999804 -0.000280092 1.76064e-16)
(0.99978 -0.00050513 5.57713e-17)
(0.999773 -0.000733324 1.70643e-16)
(0.999791 -0.000955642 1.68059e-16)
(0.99984 -0.00116384 -1.1847e-17)
(0.999926 -0.00135099 4.92963e-17)
(1.00005 -0.001507 9.37694e-16)
(1.0002 -0.00162555 -1.13907e-16)
(1.00038 -0.00169696 5.42145e-16)
(1.00058 -0.00171774 -7.38981e-16)
(1.00077 -0.00170083 1.36962e-16)
(1.00095 -0.00159726 -1.34463e-15)
(1.00107 -0.00148613 -6.16859e-16)
(0.999849 0.000156657 9.94015e-18)
(0.999815 -6.50973e-05 -1.17682e-16)
(0.999788 -0.000298024 1.54793e-16)
(0.99977 -0.000535182 -2.24109e-16)
(0.999771 -0.000774057 1.56842e-16)
(0.999798 -0.00100531 2.072e-17)
(0.999859 -0.00122045 1.95021e-16)
(0.999956 -0.00141207 -2.60007e-16)
(1.00009 -0.0015697 -8.39035e-16)
(1.00026 -0.00168673 2.49265e-16)
(1.00044 -0.00175389 -5.60185e-16)
(1.00066 -0.00176704 1.12819e-16)
(1.00086 -0.00173907 -4.90233e-16)
(1.00105 -0.00162322 2.65682e-16)
(1.00119 -0.00149422 -1.08584e-16)
(0.999829 0.000166219 3.32397e-17)
(0.999795 -6.94259e-05 7.1887e-17)
(0.999772 -0.000315686 -3.5896e-16)
(0.99976 -0.000564801 2.88389e-16)
(0.99977 -0.000814061 -2.79963e-16)
(0.999807 -0.00105385 -3.72977e-16)
(0.999879 -0.00127544 -3.82937e-16)
(0.999988 -0.00147102 3.37598e-16)
(1.00013 -0.00162975 7.18863e-16)
(1.00031 -0.00174473 1.63018e-16)
(1.00051 -0.00180713 9.47055e-17)
(1.00073 -0.00181248 7.00865e-17)
(1.00094 -0.00177385 -7.32929e-16)
(1.00114 -0.00164729 6.43971e-17)
(1.00131 -0.00150544 6.3313e-16)
(0.999808 0.000176065 -8.9663e-17)
(0.999774 -7.35717e-05 -9.23969e-17)
(0.999755 -0.000333158 3.42854e-17)
(0.99975 -0.00059416 -2.64344e-16)
(0.999768 -0.000853621 -1.79665e-17)
(0.999816 -0.00110162 4.81653e-16)
(0.9999 -0.00132923 5.50715e-17)
(1.00002 -0.00152833 3.04076e-16)
(1.00018 -0.0016878 -6.02846e-16)
(1.00037 -0.00180055 -3.09656e-16)
(1.00058 -0.00185825 4.44578e-16)
(1.00081 -0.00185637 -1.49059e-16)
(1.00103 -0.00180828 4.83693e-16)
(1.00124 -0.00167307 7.49535e-16)
(1.00142 -0.00152214 -5.98814e-17)
(0.999786 0.000186227 2.80893e-17)
(0.999752 -7.75427e-05 1.14754e-17)
(0.999736 -0.000350533 1.15621e-16)
(0.999738 -0.000623504 2.25881e-18)
(0.999766 -0.000893202 9.88624e-17)
(0.999825 -0.00114935 -2.89629e-16)
(0.99992 -0.00138282 5.98222e-16)
(1.00005 -0.00158527 -1.53478e-16)
(1.00022 -0.00174545 6.52444e-16)
(1.00043 -0.00185618 -3.4131e-16)
(1.00065 -0.00190967 -5.43434e-16)
(1.00089 -0.00190153 5.24478e-16)
(1.00112 -0.00184528 -8.84262e-16)
(1.00133 -0.00170299 -1.30239e-15)
(1.00152 -0.0015446 -3.29765e-16)
(0.999762 0.000196729 3.12744e-18)
(0.999728 -8.13423e-05 1.94985e-17)
(0.999716 -0.000367889 -3.12153e-17)
(0.999725 -0.000653048 1.58667e-16)
(0.999762 -0.000933254 1.08822e-16)
(0.999832 -0.0011978 -4.26708e-17)
(0.99994 -0.0014373 -3.60586e-16)
(1.00009 -0.00164328 -3.47587e-16)
(1.00027 -0.00180442 -2.34937e-16)
(1.00049 -0.00191355 4.32916e-16)
(1.00072 -0.00196349 3.35427e-16)
(1.00097 -0.00194996 -4.9315e-16)
(1.00121 -0.00188638 1.09542e-15)
(1.00143 -0.00173753 1.37235e-15)
(1.00162 -0.00157124 4.63932e-17)
(0.999737 0.00020758 3.57619e-17)
(0.999703 -8.49655e-05 -4.75978e-17)
(0.999695 -0.00038526 2.29437e-16)
(0.999709 -0.000682918 -4.56947e-17)
(0.999756 -0.000974051 -1.74397e-16)
(0.999837 -0.00124745 7.39326e-17)
(0.999957 -0.00149344 -1.29701e-16)
(1.00012 -0.00170333 2.93473e-16)
(1.00031 -0.00186586 7.7143e-17)
(1.00054 -0.00197386 5.39258e-17)
(1.00078 -0.00202071 -2.57249e-16)
(1.00104 -0.00200225 3.41458e-16)
(1.00129 -0.00193142 1.74035e-16)
(1.00152 -0.00177548 1.55474e-16)
(1.00173 -0.0015997 3.94056e-16)
(0.99971 0.00021878 -1.83847e-17)
(0.999677 -8.84027e-05 2.72471e-17)
(0.999671 -0.000402646 -3.71917e-16)
(0.999692 -0.000713124 -2.37944e-16)
(0.999747 -0.00101564 3.29311e-16)
(0.999839 -0.00129842 -8.91482e-17)
(0.999971 -0.00155142 5.20739e-16)
(1.00014 -0.0017657 -1.41372e-16)
(1.00035 -0.00192999 -7.50735e-18)
(1.00059 -0.00203716 -1.49948e-16)
(1.00085 -0.00208106 3.85006e-16)
(1.00112 -0.00205757 -2.42656e-16)
(1.00138 -0.00197896 -7.97613e-16)
(1.00161 -0.00181479 -1.89805e-16)
(1.00183 -0.00162782 -4.50141e-16)
(0.999682 0.000230314 2.47487e-17)
(0.999649 -9.1645e-05 1.12572e-16)
(0.999647 -0.00042001 3.35214e-16)
(0.999673 -0.000743584 2.60157e-16)
(0.999737 -0.00105786 -3.20667e-17)
(0.999839 -0.00135046 -1.30264e-16)
(0.999983 -0.00161091 -5.76479e-16)
(1.00017 -0.00182993 -6.70197e-17)
(1.00039 -0.00199622 -3.42379e-16)
(1.00064 -0.00210262 1.10884e-16)
(1.00091 -0.00214334 -7.05693e-16)
(1.00119 -0.00211434 3.40388e-16)
(1.00146 -0.00202715 1.14907e-15)
(1.00171 -0.00185358 -8.85681e-16)
(1.00194 -0.00165457 5.24747e-16)
(0.999652 0.000242161 -1.99559e-17)
(0.999619 -9.46904e-05 -1.58393e-16)
(0.99962 -0.000437317 -1.91852e-16)
(0.999653 -0.000774176 -9.56858e-17)
(0.999725 -0.00110045 -6.12783e-17)
(0.999838 -0.00140313 8.4124e-17)
(0.999994 -0.00167127 -3.2214e-17)
(1.00019 -0.00189519 -4.42439e-16)
(1.00043 -0.00206349 -1.30218e-16)
(1.00069 -0.00216894 -3.27833e-17)
(1.00097 -0.00220607 6.42326e-16)
(1.00127 -0.00217095 1.07422e-16)
(1.00155 -0.00207453 -9.55361e-16)
(1.0018 -0.00189089 5.06828e-16)
(1.00205 -0.00168007 -1.01574e-16)
(0.99962 0.000254285 1.80269e-17)
(0.999589 -9.75479e-05 9.31301e-17)
(0.999593 -0.000454536 9.23389e-17)
(0.999631 -0.000804787 1.79576e-16)
(0.999711 -0.00114314 -9.78372e-17)
(0.999835 -0.00145597 -2.75188e-17)
(1 -0.00173182 1.98817e-16)
(1.00022 -0.00196059 2.9707e-16)
(1.00046 -0.00213075 -2.14089e-17)
(1.00074 -0.00223499 -3.58604e-16)
(1.00104 -0.00226813 -2.75626e-16)
(1.00134 -0.00222646 -4.84446e-16)
(1.00163 -0.00212057 2.03202e-17)
(1.0019 -0.00192686 2.62433e-16)
(1.00216 -0.00170535 -1.5879e-16)
(0.999587 0.000266648 -9.63885e-18)
(0.999557 -0.000100239 -5.51122e-17)
(0.999564 -0.00047167 1.40234e-16)
(0.999608 -0.000835361 1.47079e-17)
(0.999697 -0.00118578 -1.24545e-16)
(0.999832 -0.00150868 1.00429e-16)
(1.00001 -0.00179212 -4.79716e-17)
(1.00024 -0.00202558 2.73911e-16)
(1.0005 -0.0021974 5.06061e-16)
(1.00079 -0.00230022 7.85823e-17)
(1.0011 -0.00232915 2.37857e-16)
(1.00142 -0.00228084 2.42067e-16)
(1.00172 -0.0021657 5.97415e-17)
(1.00199 -0.00196245 -5.40071e-16)
(1.00226 -0.00173163 1.30917e-16)
(0.999553 0.000279203 1.29115e-17)
(0.999523 -0.000102796 1.16075e-17)
(0.999534 -0.000488744 -2.86495e-16)
(0.999584 -0.000865912 -1.25158e-16)
(0.999682 -0.00122835 1.75958e-16)
(0.999828 -0.00156121 -2.74656e-17)
(1.00002 -0.00185208 1.83684e-16)
(1.00026 -0.00209006 -2.43952e-16)
(1.00054 -0.00226341 1.39056e-16)
(1.00084 -0.00236475 1.15641e-16)
(1.00117 -0.00238951 1.22052e-16)
(1.00149 -0.0023348 1.55281e-16)
(1.00181 -0.00221096 2.15802e-16)
(1.00209 -0.00199891 3.03612e-17)
(1.00237 -0.00175987 7.70096e-17)
(0.999517 0.000291907 -3.97254e-17)
(0.999488 -0.000105257 1.05114e-16)
(0.999502 -0.00050581 1.645e-16)
(0.999559 -0.000896515 -1.05297e-16)
(0.999667 -0.00127097 -6.84528e-17)
(0.999824 -0.00161372 3.89595e-17)
(1.00003 -0.00191193 -2.00108e-16)
(1.00028 -0.00215436 -1.30928e-16)
(1.00057 -0.00232924 -1.7196e-16)
(1.0009 -0.00242922 2.73281e-16)
(1.00123 -0.00245006 -3.79069e-16)
(1.00157 -0.00238938 2.96025e-16)
(1.00189 -0.00225744 1.44945e-16)
(1.00219 -0.00203717 5.42229e-16)
(1.00247 -0.00179031 -4.96072e-16)
(0.99948 0.000304716 1.67626e-17)
(0.999452 -0.000107662 -7.91167e-17)
(0.99947 -0.000522926 5.79263e-17)
(0.999533 -0.000927271 1.28115e-16)
(0.99965 -0.00131381 -8.88175e-17)
(0.999818 -0.0016665 -1.50097e-16)
(1.00004 -0.00197207 -7.10612e-17)
(1.00031 -0.00221903 9.79218e-17)
(1.00061 -0.00239558 -4.4788e-16)
(1.00094 -0.00249445 6.60779e-17)
(1.00129 -0.00251172 2.51868e-16)
(1.00164 -0.00244547 -7.03795e-16)
(1.00198 -0.00230585 1.42065e-16)
(1.00228 -0.00207754 2.17518e-17)
(1.00257 -0.00182256 3.65803e-16)
(0.999442 0.000317596 -6.37258e-18)
(0.999415 -0.000110048 9.69658e-17)
(0.999436 -0.000540146 -9.36799e-17)
(0.999506 -0.000958277 -5.81433e-17)
(0.999632 -0.00135705 -9.2729e-17)
(0.999812 -0.00171982 -4.90353e-17)
(1.00004 -0.00203292 -1.05723e-16)
(1.00033 -0.00228458 7.54756e-17)
(1.00064 -0.00246304 2.90233e-17)
(1.00099 -0.00256109 -3.10105e-16)
(1.00135 -0.00257507 -3.69883e-16)
(1.00172 -0.0025035 4.10232e-16)
(1.00206 -0.00235629 -3.57976e-16)
(1.00238 -0.0021197 -1.13926e-16)
(1.00268 -0.00185584 -1.12035e-17)
(0.999403 0.000330515 -1.92832e-17)
(0.999376 -0.000112446 -4.47935e-17)
(0.9994 -0.00055751 3.16365e-17)
(0.999477 -0.000989595 2.25429e-16)
(0.999612 -0.0014008 3.76451e-16)
(0.999803 -0.00177386 3.07309e-16)
(1.00005 -0.00209472 3.35736e-16)
(1.00034 -0.00235134 -2.14171e-16)
(1.00068 -0.00253196 6.71391e-20)
(1.00104 -0.00262941 2.32238e-16)
(1.00141 -0.00264024 4.57227e-17)
(1.00179 -0.00256333 2.52073e-16)
(1.00215 -0.00240834 2.02496e-16)
(1.00247 -0.00216297 -5.30296e-16)
(1.00278 -0.00188938 -3.47931e-16)
(0.999362 0.000343452 9.92137e-18)
(0.999335 -0.000114883 -8.09604e-17)
(0.999363 -0.00057504 -1.61941e-16)
(0.999446 -0.00102125 -1.58955e-16)
(0.99959 -0.00144508 1.46092e-17)
(0.999793 -0.00182866 -1.73496e-16)
(1.00005 -0.00215751 -3.77729e-16)
(1.00036 -0.00241932 2.88283e-16)
(1.00071 -0.00260228 2.34438e-16)
(1.00109 -0.00269925 -5.16873e-16)
(1.00147 -0.0027069 4.23921e-16)
(1.00186 -0.00262447 -3.08965e-16)
(1.00223 -0.00246135 -1.42373e-16)
(1.00257 -0.00220663 -1.24431e-16)
(1.00289 -0.00192276 1.48244e-16)
(0.99932 0.000356391 3.77671e-17)
(0.999294 -0.000117381 1.73718e-17)
(0.999324 -0.000592745 8.75871e-17)
(0.999414 -0.00105322 4.06854e-17)
(0.999567 -0.00148985 4.78652e-17)
(0.999781 -0.00188412 3.00061e-16)
(1.00005 -0.00222116 -1.35571e-16)
(1.00038 -0.00248832 1.48128e-16)
(1.00074 -0.00267372 8.50403e-17)
(1.00113 -0.0027702 5.92559e-17)
(1.00153 -0.00277453 1.97384e-16)
(1.00194 -0.00268629 -4.20725e-17)
(1.00232 -0.00251471 9.34775e-18)
(1.00267 -0.00225025 8.67913e-16)
(1.00299 -0.00195596 2.75786e-18)
(0.999277 0.000369322 -3.66583e-17)
(0.99925 -0.000119958 -1.26603e-17)
(0.999284 -0.000610626 5.72641e-17)
(0.99938 -0.00108548 -1.7459e-16)
(0.999542 -0.00153501 -2.79633e-16)
(0.999767 -0.0019401 -2.67913e-16)
(1.00005 -0.00228542 2.26985e-16)
(1.00039 -0.00255801 -8.30092e-17)
(1.00077 -0.00274587 9.67893e-18)
(1.00118 -0.0028418 -5.01485e-18)
(1.00159 -0.00284264 -2.7264e-16)
(1.00201 -0.00274836 -2.46349e-16)
(1.00241 -0.00256814 -1.58809e-16)
(1.00276 -0.00229381 2.40915e-17)
(1.0031 -0.00198935 -5.43098e-17)
(0.999233 0.000382239 -1.83011e-17)
(0.999205 -0.000122633 4.84344e-17)
(0.999243 -0.000628687 4.76521e-17)
(0.999344 -0.001118 7.75439e-17)
(0.999516 -0.0015805 1.06058e-16)
(0.999753 -0.00199645 1.67591e-18)
(1.00005 -0.0023501 2.26886e-16)
(1.0004 -0.00262814 -5.05866e-16)
(1.0008 -0.00281844 2.57933e-16)
(1.00122 -0.00291375 2.63022e-16)
(1.00165 -0.00291101 -3.76219e-16)
(1.00208 -0.0028106 7.02458e-16)
(1.00249 -0.00262176 3.69664e-16)
(1.00286 -0.00233766 -6.88506e-16)
(1.00321 -0.00202347 -2.0479e-16)
(0.999188 0.00039514 3.78454e-17)
(0.999159 -0.000125422 2.93857e-17)
(0.9992 -0.000646935 4.58881e-18)
(0.999308 -0.00115076 -3.47616e-17)
(0.999488 -0.00162628 2.0164e-17)
(0.999737 -0.00205311 2.84483e-16)
(1.00005 -0.0024151 -4.58514e-17)
(1.00042 -0.00269859 3.24629e-16)
(1.00083 -0.00289133 -4.80302e-17)
(1.00126 -0.00298603 -2.90933e-16)
(1.00171 -0.00297973 6.01885e-16)
(1.00216 -0.00287324 -3.61123e-16)
(1.00258 -0.00267596 -4.88736e-16)
(1.00296 -0.00238233 2.065e-16)
(1.00331 -0.00205877 3.45172e-16)
(0.999141 0.000408027 -3.14717e-17)
(0.999111 -0.000128341 -1.32669e-17)
(0.999155 -0.000665388 -1.73e-16)
(0.99927 -0.00118379 -8.45455e-17)
(0.99946 -0.00167236 5.20653e-17)
(0.99972 -0.00211012 -2.87193e-16)
(1.00005 -0.00248047 -8.44187e-17)
(1.00043 -0.00276945 2.82933e-16)
(1.00085 -0.00296469 -2.39255e-16)
(1.00131 -0.00305887 7.01525e-17)
(1.00177 -0.00304912 -3.35152e-16)
(1.00223 -0.00293673 1.05411e-17)
(1.00266 -0.00273125 2.64535e-16)
(1.00305 -0.00242828 1.3913e-16)
(1.00342 -0.00209547 -5.42063e-17)
(0.999093 0.000420901 3.00231e-17)
(0.999062 -0.000131402 -9.74077e-17)
(0.999109 -0.000684068 8.17661e-17)
(0.99923 -0.00121713 5.3515e-17)
(0.99943 -0.00171883 -4.03478e-17)
(0.999702 -0.00216758 -1.72513e-16)
(1.00004 -0.00254638 5.23028e-17)
(1.00044 -0.00284097 -1.29714e-16)
(1.00088 -0.00303882 -2.18685e-16)
(1.00135 -0.00313264 -2.73282e-17)
(1.00183 -0.00311964 -4.84348e-16)
(1.0023 -0.00300154 4.95568e-16)
(1.00275 -0.00278802 3.85065e-17)
(1.00315 -0.00247575 -7.94297e-17)
(1.00352 -0.00213348 -7.72696e-18)
(0.999043 0.000433767 -3.68245e-17)
(0.999012 -0.000134616 1.00275e-16)
(0.999062 -0.000702997 -2.30345e-17)
(0.999189 -0.00125082 -2.0983e-16)
(0.999398 -0.00176578 -9.9973e-17)
(0.999683 -0.00222565 1.1613e-16)
(1.00004 -0.00261305 -1.7039e-16)
(1.00045 -0.00291341 -1.90844e-16)
(1.00091 -0.00311408 3.24747e-16)
(1.00139 -0.00320773 1.12983e-16)
(1.00189 -0.00319164 5.0822e-16)
(1.00238 -0.00306796 -3.82164e-16)
(1.00284 -0.00284643 1.3729e-16)
(1.00325 -0.00252471 -1.54514e-16)
(1.00363 -0.00217254 5.15103e-18)
(0.998992 0.00044663 2.27923e-17)
(0.99896 -0.000137987 -5.80274e-17)
(0.999013 -0.000722196 7.2079e-17)
(0.999147 -0.0012849 3.12644e-16)
(0.999365 -0.00181328 1.32669e-16)
(0.999662 -0.00228447 8.23037e-17)
(1.00003 -0.00268069 3.38435e-16)
(1.00046 -0.00298704 1.60819e-16)
(1.00093 -0.00319073 -2.64849e-16)
(1.00144 -0.00328439 4.5121e-16)
(1.00195 -0.00326533 2.50881e-16)
(1.00245 -0.00313607 -2.12285e-16)
(1.00292 -0.00290641 -4.05944e-16)
(1.00335 -0.00257493 -1.57688e-16)
(1.00373 -0.00221227 6.08762e-17)
(0.998939 0.000459496 4.6799e-18)
(0.998906 -0.000141515 -1.23628e-16)
(0.998963 -0.000741675 -9.17456e-17)
(0.999103 -0.00131942 -2.15273e-16)
(0.999331 -0.00186141 3.45787e-17)
(0.99964 -0.00234414 -3.34238e-16)
(1.00002 -0.00274941 -3.593e-16)
(1.00047 -0.00306197 -1.44514e-16)
(1.00096 -0.00326887 3.07836e-16)
(1.00148 -0.00336267 -3.26941e-16)
(1.002 -0.00334066 1.15589e-16)
(1.00252 -0.00320572 2.14829e-16)
(1.00301 -0.00296771 3.26049e-16)
(1.00344 -0.00262607 1.98897e-16)
(1.00384 -0.00225239 1.68884e-17)
(0.998884 0.000472372 3.28955e-17)
(0.998851 -0.000145193 2.02059e-16)
(0.99891 -0.000761438 9.4041e-17)
(0.999057 -0.00135438 1.80721e-16)
(0.999295 -0.00191019 1.08278e-16)
(0.999616 -0.00240469 4.56425e-17)
(1.00001 -0.00281923 5.26479e-17)
(1.00047 -0.00313823 -1.20951e-16)
(1.00098 -0.00334848 -1.22635e-16)
(1.00152 -0.00344246 1.43693e-17)
(1.00206 -0.00341746 -7.89822e-16)
(1.00259 -0.00327665 -3.08404e-16)
(1.0031 -0.00303001 3.24214e-16)
(1.00354 -0.00267787 -7.22815e-17)
(1.00395 -0.00229277 -2.0019e-16)
(0.998828 0.000485265 -4.42132e-17)
(0.998794 -0.000149014 -1.29484e-16)
(0.998857 -0.00078148 -1.85959e-16)
(0.99901 -0.00138979 6.10897e-17)
(0.999257 -0.0019596 -2.05422e-16)
(0.999591 -0.00246608 3.82627e-17)
(1 -0.00289012 -4.73591e-17)
(1.00048 -0.0032157 -8.64478e-18)
(1.001 -0.00342941 -1.46544e-16)
(1.00156 -0.00352359 -7.68276e-17)
(1.00212 -0.00349548 2.72008e-17)
(1.00267 -0.00334862 2.67835e-16)
(1.00318 -0.00309312 -1.34959e-16)
(1.00364 -0.00273021 2.66345e-16)
(1.00406 -0.00233348 9.41375e-17)
(0.99877 0.000498181 2.36305e-17)
(0.998736 -0.000152967 1.24045e-16)
(0.998801 -0.000801797 2.36256e-16)
(0.998961 -0.00142562 -6.82639e-17)
(0.999218 -0.00200962 -1.65608e-17)
(0.999564 -0.00252827 2.50741e-16)
(0.999989 -0.00296197 2.13194e-16)
(1.00048 -0.00329428 -1.46066e-16)
(1.00102 -0.0035115 3.91273e-16)
(1.0016 -0.00360585 3.54922e-16)
(1.00217 -0.00357455 3.77339e-16)
(1.00274 -0.00342148 -1.74196e-17)
(1.00327 -0.00315698 -2.992e-16)
(1.00374 -0.00278314 -3.14142e-16)
(1.00416 -0.00237468 -3.02765e-17)
(0.99871 0.000511128 -2.02487e-17)
(0.998676 -0.000157041 -6.55052e-17)
(0.998745 -0.000822382 -1.95819e-16)
(0.99891 -0.00146188 1.26021e-16)
(0.999177 -0.00206023 1.20916e-16)
(0.999535 -0.00259122 -1.67888e-16)
(0.999976 -0.00303472 -8.47512e-17)
(1.00049 -0.00337386 8.37673e-18)
(1.00105 -0.00359464 -1.7389e-16)
(1.00163 -0.00368916 -3.04101e-16)
(1.00223 -0.00365461 -5.61004e-16)
(1.00281 -0.00349524 6.05761e-17)
(1.00336 -0.00322165 3.65305e-16)
(1.00384 -0.00283681 3.30663e-16)
(1.00427 -0.00241657 -6.95637e-17)
(0.998649 0.00052411 -1.61134e-17)
(0.998614 -0.000161226 -1.31764e-17)
(0.998686 -0.000843232 1.71362e-16)
(0.998858 -0.00149856 -1.61683e-16)
(0.999135 -0.00211142 -3.19488e-16)
(0.999506 -0.00265489 1.55041e-16)
(0.999961 -0.00310834 8.79735e-17)
(1.00049 -0.00345442 4.07329e-16)
(1.00107 -0.00367882 5.82332e-17)
(1.00167 -0.00377352 2.83154e-16)
(1.00229 -0.00373571 8.40664e-16)
(1.00288 -0.00357001 -2.30582e-16)
(1.00344 -0.00328732 -9.78415e-17)
(1.00394 -0.00289142 -1.15442e-17)
(1.00438 -0.00245928 -2.77085e-17)
(0.998586 0.000537134 4.50641e-17)
(0.998551 -0.000165513 4.92284e-17)
(0.998626 -0.00086435 -1.4738e-16)
(0.998805 -0.00153567 1.36907e-16)
(0.999091 -0.00216321 -9.21455e-17)
(0.999475 -0.00271933 -2.96647e-16)
(0.999946 -0.00318286 1.3036e-17)
(1.00049 -0.00353599 -3.50357e-17)
(1.00109 -0.0037641 -2.15969e-16)
(1.00171 -0.00385905 1.82025e-16)
(1.00234 -0.00381801 -7.84704e-16)
(1.00296 -0.00364599 -1.4279e-17)
(1.00353 -0.00335418 -1.74771e-16)
(1.00404 -0.00294711 3.2635e-17)
(1.00449 -0.00250288 -8.20794e-17)
(0.998521 0.000550206 -1.14994e-17)
(0.998486 -0.000169895 -1.17296e-17)
(0.998564 -0.000885745 2.03934e-17)
(0.99875 -0.00157324 -1.52247e-16)
(0.999046 -0.00221564 -2.73335e-17)
(0.999443 -0.00278459 3.62219e-16)
(0.999929 -0.00325837 -2.63966e-16)
(1.00049 -0.0036187 -3.2692e-16)
(1.0011 -0.00385063 3.5001e-16)
(1.00175 -0.0039459 -3.16631e-16)
(1.0024 -0.00390168 4.00666e-16)
(1.00303 -0.00372334 3.7898e-16)
(1.00362 -0.00342234 2.72894e-16)
(1.00414 -0.00300396 -1.81519e-16)
(1.0046 -0.00254733 -6.18722e-17)
(0.998454 0.000563332 -1.24018e-17)
(0.99842 -0.000174367 -7.19736e-17)
(0.998501 -0.000907426 -9.69152e-17)
(0.998693 -0.0016113 7.11285e-17)
(0.998999 -0.00226876 1.80264e-16)
(0.999409 -0.00285074 6.32253e-17)
(0.999911 -0.00333495 2.4532e-16)
(1.00049 -0.00370265 5.36141e-17)
(1.00112 -0.00393854 -4.60187e-16)
(1.00179 -0.00403423 1.61013e-16)
(1.00246 -0.00398686 -2.2756e-16)
(1.0031 -0.00380217 -1.88968e-16)
(1.00371 -0.00349186 -2.5447e-16)
(1.00425 -0.00306194 4.02007e-17)
(1.00471 -0.00259257 1.49424e-16)
(0.998386 0.000576519 -1.90357e-17)
(0.998351 -0.000178925 3.42814e-17)
(0.998436 -0.000929406 4.13876e-17)
(0.998635 -0.00164988 -1.42566e-16)
(0.998951 -0.00232263 6.95714e-17)
(0.999374 -0.00291786 -2.11078e-16)
(0.999892 -0.00341272 -2.5855e-17)
(1.00049 -0.00378796 3.17418e-16)
(1.00114 -0.00402794 -2.02443e-16)
(1.00182 -0.00412412 -2.67572e-16)
(1.00251 -0.00407362 2.29787e-16)
(1.00318 -0.00388248 -6.81968e-17)
(1.0038 -0.00356271 -7.21083e-16)
(1.00435 -0.00312098 7.35538e-17)
(1.00482 -0.00263848 1.07499e-16)
(0.998316 0.000589775 -9.79815e-18)
(0.998282 -0.000183567 3.34386e-17)
(0.998369 -0.000951698 1.25974e-17)
(0.998575 -0.00168902 1.90043e-17)
(0.998901 -0.0023773 1.20058e-16)
(0.999338 -0.00298601 6.67101e-17)
(0.999872 -0.00349174 -2.19705e-16)
(1.00049 -0.00387471 -2.00602e-17)
(1.00116 -0.0041189 6.06355e-16)
(1.00186 -0.00421563 -1.94461e-16)
(1.00257 -0.00416196 -5.71676e-18)
(1.00325 -0.00396427 2.87524e-17)
(1.00389 -0.00363483 2.77531e-17)
(1.00445 -0.00318102 -5.09272e-17)
(1.00494 -0.00268506 1.69684e-17)
(0.998245 0.000603112 2.582e-17)
(0.99821 -0.000188295 -6.82087e-17)
(0.998301 -0.000974314 -7.79103e-17)
(0.998513 -0.00172872 1.49212e-19)
(0.99885 -0.00243279 -1.81285e-16)
(0.9993 -0.00305523 -2.8949e-17)
(0.99985 -0.00357204 4.26599e-17)
(1.00048 -0.00396292 -4.83035e-17)
(1.00117 -0.00421143 -4.10524e-16)
(1.0019 -0.00430874 5.46552e-16)
(1.00262 -0.00425185 -3.1188e-17)
(1.00332 -0.00404746 -5.71004e-17)
(1.00398 -0.00370817 3.3652e-16)
(1.00455 -0.00324201 -3.77325e-16)
(1.00505 -0.00273231 7.96856e-18)
(0.998172 0.000616538 2.7396e-18)
(0.998136 -0.00019311 8.18271e-17)
(0.998231 -0.000997264 2.19907e-16)
(0.99845 -0.00176902 -5.54567e-17)
(0.998797 -0.00248913 1.17815e-16)
(0.99926 -0.00312554 -1.83069e-16)
(0.999827 -0.00365365 -2.19232e-16)
(1.00048 -0.00405259 5.26519e-18)
(1.00119 -0.00430552 2.39025e-16)
(1.00193 -0.00440342 -4.77033e-16)
(1.00268 -0.00434325 1.18813e-16)
(1.0034 -0.00413205 -2.06478e-17)
(1.00407 -0.00378272 2.59975e-16)
(1.00466 -0.003304 8.03182e-17)
(1.00516 -0.0027803 -1.25122e-16)
(0.998098 0.000630065 1.05278e-18)
(0.998061 -0.00019802 -8.88101e-17)
(0.998159 -0.00102056 -1.25509e-16)
(0.998384 -0.00180992 2.07716e-17)
(0.998742 -0.00254633 -2.18882e-17)
(0.999219 -0.00319696 1.66175e-16)
(0.999802 -0.00373657 3.59947e-16)
(1.00047 -0.00414372 -3.19271e-16)
(1.0012 -0.00440115 3.63153e-16)
(1.00197 -0.00449966 3.20989e-17)
(1.00273 -0.00443617 7.12321e-17)
(1.00347 -0.00421802 -1.37556e-16)
(1.00416 -0.00385851 2.65545e-16)
(1.00476 -0.00336703 1.50465e-16)
(1.00528 -0.00282908 1.96573e-16)
(0.998022 0.000643701 -8.61031e-18)
(0.997984 -0.000203033 8.47159e-17)
(0.998085 -0.00104422 1.54591e-16)
(0.998317 -0.00185145 5.34106e-17)
(0.998685 -0.00260442 1.56219e-16)
(0.999177 -0.0032695 1.19974e-16)
(0.999776 -0.00382081 -3.23244e-16)
(1.00047 -0.00423631 6.47596e-16)
(1.00122 -0.00449834 -2.03696e-16)
(1.002 -0.00459748 -6.77608e-17)
(1.00279 -0.00453062 -2.45237e-16)
(1.00355 -0.00430545 -1.0769e-16)
(1.00425 -0.00393561 -2.95523e-16)
(1.00487 -0.00343118 -1.08867e-16)
(1.00539 -0.00287874 4.72793e-17)
(0.997944 0.000657453 -3.05777e-17)
(0.997905 -0.000208162 -9.05972e-17)
(0.998009 -0.00106825 -1.08413e-17)
(0.998248 -0.00189361 1.06253e-16)
(0.998627 -0.0026634 -1.4217e-16)
(0.999132 -0.00334317 -1.04395e-16)
(0.999749 -0.00390638 4.04499e-16)
(1.00046 -0.00433041 -1.20808e-16)
(1.00123 -0.00459712 -5.16117e-16)
(1.00203 -0.00469692 7.10281e-17)
(1.00284 -0.00462669 -1.24519e-16)
(1.00362 -0.00439441 2.30354e-16)
(1.00434 -0.00401412 3.68941e-16)
(1.00497 -0.00349653 3.28605e-16)
(1.00551 -0.00292928 -2.75547e-16)
(0.997865 0.000671327 1.83372e-18)
(0.997825 -0.00021342 -1.74757e-17)
(0.997932 -0.00109267 -7.23386e-17)
(0.998178 -0.00193643 4.50911e-17)
(0.998567 -0.00272331 -7.88314e-17)
(0.999087 -0.00341801 1.3445e-16)
(0.999721 -0.00399334 -1.16234e-16)
(1.00045 -0.00442604 3.98896e-17)
(1.00124 -0.00469755 -1.08181e-16)
(1.00207 -0.00479807 2.75216e-16)
(1.0029 -0.00472445 3.36719e-16)
(1.00369 -0.00448498 1.94605e-18)
(1.00443 -0.00409408 -5.87183e-16)
(1.00508 -0.0035631 -3.99553e-16)