/*--------------------------------*- C++ -*----------------------------------*\
  =========                 |
  \\      /  F ield         | OpenFOAM: The Open Source CFD Toolbox
   \\    /   O peration     | Website:  https://openfoam.org
    \\  /    A nd           | Version:  6.0
     \\/     M anipulation  |
\*---------------------------------------------------------------------------*/
FoamFile
{
    version     2.0;
    format      ascii;
    class       volVectorField;
    location    "2.2";
    object      U;
}
// * * * * * * * * * * * * * * * * * * * * * * * * * * * * * * * * * * * * * //

dimensions      [0 1 -1 0 0 0 0];

internalField   nonuniform List<vector> 
24000
(
(0.999994 -5.59774e-07 -7.96289e-17)
(0.999946 -2.28132e-05 1.08419e-16)
(0.999866 -6.84525e-05 -1.90622e-16)
(0.999774 -0.000144089 2.10335e-16)
(0.999701 -0.000242026 -1.03764e-15)
(0.999668 -0.000341492 -6.15085e-16)
(0.999679 -0.000422985 6.29711e-16)
(0.999733 -0.000465925 -1.3952e-15)
(0.999819 -0.000445298 4.37958e-16)
(0.999919 -0.000353072 -3.22002e-16)
(1.00001 -4.26927e-05 -3.11476e-16)
(1.00117 0.00120715 -4.61714e-16)
(0.999988 -5.43628e-06 1.16733e-16)
(0.999903 -5.3432e-05 -1.60433e-16)
(0.99976 -0.000142925 3.56198e-16)
(0.999599 -0.000287028 -8.89411e-17)
(0.999476 -0.000467705 4.61826e-16)
(0.999428 -0.000643094 6.22048e-16)
(0.999459 -0.000781004 -3.50318e-16)
(0.999567 -0.000845414 1.48212e-15)
(0.999731 -0.00079217 -3.10982e-16)
(0.999922 -0.000613938 1.59615e-17)
(1.00003 -6.92219e-05 8.13575e-17)
(1.00209 0.00180582 1.53716e-16)
(0.999987 -1.11795e-05 -8.8912e-17)
(0.999912 -7.30359e-05 2.16171e-16)
(0.999786 -0.000171391 -1.23456e-16)
(0.999644 -0.000319608 4.51434e-16)
(0.999542 -0.000496582 2.51525e-16)
(0.999511 -0.000657925 2.31351e-16)
(0.999555 -0.000775219 5.18141e-16)
(0.99967 -0.000819178 -6.58858e-16)
(0.999834 -0.00074809 -3.67681e-16)
(1.00003 -0.000571097 -1.29786e-16)
(1.00007 -6.08444e-05 -2.90284e-17)
(1.00219 0.0014459 4.86243e-16)
(0.999985 -1.74448e-05 -3.7965e-17)
(0.999924 -9.25393e-05 -2.04531e-16)
(0.999822 -0.000198045 -3.15815e-16)
(0.999704 -0.000346255 -2.23802e-16)
(0.999622 -0.0005161 -1.31076e-16)
(0.999602 -0.000665496 -9.05547e-16)
(0.99965 -0.000770313 -1.43455e-15)
(0.99976 -0.000808893 1.63903e-16)
(0.999915 -0.000741923 4.69293e-17)
(1.00011 -0.000584833 6.45078e-16)
(1.0001 -0.000142777 -4.11662e-16)
(1.00203 0.00106499 -5.68839e-16)
(0.999981 -2.38655e-05 6.7635e-17)
(0.999924 -0.00011417 3.30181e-17)
(0.999831 -0.000233744 1.60048e-16)
(0.999722 -0.00039297 -7.5652e-17)
(0.999646 -0.000571078 2.07867e-16)
(0.999629 -0.000727592 1.87096e-16)
(0.999678 -0.000839082 1.45126e-15)
(0.999791 -0.000886044 -9.48177e-17)
(0.999951 -0.000827064 -2.79719e-16)
(1.00017 -0.000669801 7.60123e-17)
(1.00016 -0.000247706 2.84092e-16)
(1.00188 0.000876757 -1.50623e-16)
(0.999976 -3.02812e-05 3.91398e-18)
(0.999921 -0.000136158 -1.89994e-17)
(0.999834 -0.000271228 -2.1362e-17)
(0.999734 -0.000441818 -3.86752e-18)
(0.999666 -0.000627072 -8.62664e-16)
(0.999655 -0.000787876 1.05563e-15)
(0.99971 -0.000900565 2.9293e-17)
(0.999834 -0.000946061 1.46164e-16)
(1 -0.000881209 6.91338e-16)
(1.00025 -0.000703806 -3.40247e-16)
(1.00025 -0.000273174 5.15512e-16)
(1.00181 0.000836817 3.45072e-16)
(0.999971 -3.68068e-05 -3.54193e-18)
(0.999918 -0.000157922 2.04882e-16)
(0.999841 -0.000307147 -2.07774e-16)
(0.999756 -0.000484808 -1.01302e-16)
(0.999703 -0.000670079 4.43327e-16)
(0.999704 -0.00082582 -2.18075e-16)
(0.999772 -0.000928843 -6.03944e-16)
(0.999906 -0.000961197 -3.13315e-16)
(1.00008 -0.000880472 1.22103e-16)
(1.00035 -0.000680645 6.01733e-16)
(1.00037 -0.000245982 -1.21687e-15)
(1.00178 0.000821802 3.16396e-16)
(0.999965 -4.35812e-05 -5.23168e-17)
(0.999915 -0.000179993 7.93191e-17)
(0.999849 -0.000343304 2.39416e-16)
(0.999779 -0.000527148 4.53214e-16)
(0.999741 -0.00071134 2.41261e-16)
(0.999756 -0.00086132 -2.67698e-16)
(0.999836 -0.000954753 -2.91058e-16)
(0.999981 -0.000974919 -1.39505e-16)
(1.00017 -0.000881033 4.8189e-17)
(1.00045 -0.000668365 -1.30347e-16)
(1.00049 -0.000243428 1.04186e-15)
(1.00177 0.000747665 -5.47053e-16)
(0.999958 -5.06549e-05 2.05986e-17)
(0.99991 -0.00020266 -1.94784e-16)
(0.999851 -0.000381006 1.46112e-17)
(0.999793 -0.000572852 -7.2323e-17)
(0.999768 -0.000759255 7.29801e-17)
(0.999794 -0.000908532 -6.11076e-17)
(0.999883 -0.000999289 5.11995e-17)
(1.00004 -0.00101524 5.58644e-16)
(1.00023 -0.000916517 -6.92257e-17)
(1.00052 -0.000700032 -7.89508e-16)
(1.0006 -0.000290708 -8.78901e-16)
(1.00178 0.000621902 9.73219e-16)
(0.99995 -5.80141e-05 7.32088e-17)
(0.999903 -0.000225692 4.8686e-18)
(0.99985 -0.000419547 1.84487e-16)
(0.999801 -0.000620754 -4.83638e-16)
(0.999786 -0.000811765 -1.15418e-16)
(0.999821 -0.000963802 5.22316e-16)
(0.999919 -0.00105674 -4.43645e-16)
(1.00008 -0.00107403 -6.69033e-16)
(1.00029 -0.000975973 2.04893e-16)
(1.00059 -0.000758372 2.05414e-16)
(1.0007 -0.000361718 6.53543e-16)
(1.0018 0.000493197 -1.37636e-16)
(0.999941 -6.56353e-05 -1.00412e-16)
(0.999895 -0.000248762 -2.31184e-17)
(0.999847 -0.00045777 -2.19874e-16)
(0.999807 -0.000668435 3.65769e-17)
(0.999802 -0.000864264 1.67225e-16)
(0.999846 -0.00101903 -3.60458e-16)
(0.999954 -0.00111441 2.70788e-16)
(1.00013 -0.0011334 7.53848e-16)
(1.00034 -0.00103653 -5.62034e-16)
(1.00066 -0.000815822 2.24156e-16)
(1.00081 -0.00042615 -8.46613e-16)
(1.00184 0.000390773 -9.01818e-16)
(0.999932 -7.3477e-05 6.5188e-18)
(0.999887 -0.000271642 1.92029e-16)
(0.999845 -0.000495063 -1.92583e-16)
(0.999813 -0.000714877 1.48921e-16)
(0.999818 -0.000915069 -4.57618e-16)
(0.999874 -0.00107127 -2.0387e-16)
(0.999993 -0.00116712 6.63736e-17)
(1.00018 -0.0011855 -3.02754e-16)
(1.0004 -0.00108764 -3.94083e-16)
(1.00074 -0.000861038 3.62766e-16)
(1.00091 -0.000474477 2.85397e-16)
(1.00189 0.000312108 1.00441e-17)
(0.999922 -8.14796e-05 2.45279e-17)
(0.999878 -0.000294203 -1.91893e-17)
(0.999842 -0.000531279 5.30644e-16)
(0.999818 -0.000760174 1.53068e-16)
(0.999835 -0.000964906 2.61579e-16)
(0.999904 -0.00112209 -2.92367e-16)
(1.00003 -0.00121704 -1.47847e-16)
(1.00023 -0.0012328 1.2054e-16)
(1.00047 -0.00113192 4.65443e-16)
(1.00081 -0.00089818 -1.21878e-15)
(1.00102 -0.000513472 -4.86146e-16)
(1.00196 0.000242607 5.40685e-16)
(0.999912 -8.95538e-05 -7.57537e-17)
(0.99987 -0.000316318 -6.74217e-17)
(0.99984 -0.000566342 -4.19384e-16)
(0.999823 -0.000804433 -3.31373e-16)
(0.99985 -0.00101456 -2.32219e-16)
(0.999932 -0.00117358 3.64959e-16)
(1.00008 -0.00126776 2.50947e-16)
(1.00029 -0.00128044 -2.76437e-16)
(1.00053 -0.00117586 -3.70924e-16)
(1.00089 -0.000935236 -1.32851e-16)
(1.00112 -0.00055216 6.90403e-16)
(1.00202 0.000173157 -4.8044e-16)
(0.999901 -9.76005e-05 4.07763e-17)
(0.999861 -0.000337894 3.22319e-17)
(0.999838 -0.000600171 4.95389e-17)
(0.999827 -0.000847437 7.90352e-17)
(0.999865 -0.00106388 8.21667e-17)
(0.999958 -0.00122612 -1.48232e-16)
(1.00012 -0.00132062 7.76875e-18)
(1.00034 -0.00133089 -3.82895e-16)
(1.0006 -0.00122287 3.62488e-16)
(1.00097 -0.000976034 1.38157e-15)
(1.00123 -0.000593897 -2.0529e-16)
(1.00209 0.000103394 6.69077e-16)
(0.999889 -0.000105507 -3.93726e-17)
(0.999852 -0.000358867 1.487e-18)
(0.999836 -0.000632734 1.47845e-16)
(0.999833 -0.000888851 2.09057e-16)
(0.99988 -0.00111208 2.31234e-16)
(0.999985 -0.00127859 -1.50226e-16)
(1.00016 -0.00137448 -2.41894e-16)
(1.00039 -0.00138315 5.91485e-16)
(1.00067 -0.00127212 1.43218e-16)
(1.00105 -0.00101938 -1.48907e-15)
(1.00133 -0.000636852 2.35324e-16)
(1.00217 3.6832e-05 2.218e-17)
(0.999877 -0.000113162 9.00861e-17)
(0.999843 -0.000379242 3.30959e-17)
(0.999834 -0.000664163 -3.19561e-16)
(0.999839 -0.000928618 1.37907e-16)
(0.999896 -0.00115858 -5.61286e-17)
(1.00001 -0.00132972 3.67347e-16)
(1.0002 -0.00142752 6.25383e-16)
(1.00045 -0.00143503 1.05292e-16)
(1.00074 -0.00132116 5.10506e-16)
(1.00113 -0.00106258 1.23794e-15)
(1.00143 -0.000678505 1.43164e-15)
(1.00225 -2.50912e-05 -5.33817e-16)
(0.999864 -0.000120449 3.46253e-17)
(0.999833 -0.00039905 -2.74491e-17)
(0.999832 -0.000694716 3.0395e-16)
(0.999847 -0.000967062 -2.77242e-16)
(0.999914 -0.00120346 3.92414e-16)
(1.00004 -0.00137911 4.03344e-18)
(1.00024 -0.00147888 -4.06567e-16)
(1.0005 -0.00148534 1.28185e-16)
(1.0008 -0.00136869 -4.42024e-16)
(1.00121 -0.00110452 -2.16326e-16)
(1.00153 -0.000718507 -5.74235e-16)
(1.00233 -8.39336e-05 -1.0597e-16)
(0.99985 -0.000127262 -4.15244e-17)
(0.999822 -0.000418353 -2.31135e-16)
(0.99983 -0.00072473 -1.26506e-16)
(0.999854 -0.00100481 1.55264e-16)
(0.999933 -0.00124747 -2.81971e-17)
(1.00007 -0.00142744 -2.62006e-16)
(1.00028 -0.00152914 -5.46397e-17)
(1.00056 -0.00153467 -3.37599e-17)
(1.00088 -0.00141545 -5.30596e-16)
(1.00129 -0.00114632 -3.89192e-16)
(1.00164 -0.000758546 -1.72164e-15)
(1.00241 -0.000142339 1.01977e-15)
(0.999835 -0.000133495 -3.95652e-17)
(0.99981 -0.000437183 2.40629e-16)
(0.999825 -0.000754482 -1.71761e-16)
(0.99986 -0.00104251 7.66606e-17)
(0.999951 -0.00129156 -1.88193e-16)
(1.0001 -0.0014759 -4.26319e-16)
(1.00033 -0.00157966 5.40822e-17)
(1.00062 -0.00158455 -6.90499e-17)
(1.00095 -0.00146314 2.87234e-16)
(1.00138 -0.00118976 4.46389e-16)
(1.00174 -0.00080029 1.54071e-15)
(1.0025 -0.000201165 -9.86182e-16)
(0.999819 -0.000139062 2.84585e-17)
(0.999797 -0.000455566 -1.12025e-17)
(0.999819 -0.000784156 2.72379e-17)
(0.999865 -0.00108062 -6.358e-17)
(0.999967 -0.00133651 -2.36473e-16)
(1.00013 -0.00152548 -9.46057e-18)
(1.00037 -0.00163161 -1.25433e-16)
(1.00067 -0.00163626 -6.70022e-16)
(1.00102 -0.00151299 4.03698e-16)
(1.00146 -0.00123579 2.18611e-16)
(1.00184 -0.000844087 6.51851e-17)
(1.00259 -0.000259767 2.21713e-16)
(0.999802 -0.000143889 3.25519e-17)
(0.999782 -0.000473485 -2.63996e-16)
(0.999811 -0.000813789 5.16906e-16)
(0.999867 -0.00111931 4.919e-17)
(0.999982 -0.00138259 1.43442e-16)
(1.00016 -0.0015766 8.69578e-16)
(1.00041 -0.0016854 7.15161e-16)
(1.00073 -0.00169007 3.61953e-16)
(1.00109 -0.00156504 -9.59082e-16)
(1.00154 -0.00128395 -2.79681e-16)
(1.00194 -0.000888941 9.24776e-17)
(1.00268 -0.00031656 -3.31028e-17)
(0.999783 -0.000147931 -6.10034e-17)
(0.999766 -0.000490932 1.05165e-16)
(0.999802 -0.00084335 -6.96965e-17)
(0.999868 -0.00115853 -8.85128e-17)
(0.999995 -0.00142971 -2.55193e-16)
(1.00019 -0.00162913 -5.04928e-16)
(1.00045 -0.0017408 -2.7445e-16)
(1.00078 -0.00174553 -2.17666e-17)
(1.00116 -0.00161852 2.77958e-16)
(1.00162 -0.00133318 -2.65054e-16)
(1.00204 -0.000933669 -1.56318e-15)
(1.00277 -0.000370979 7.90584e-16)
(0.999763 -0.000151156 4.45408e-17)
(0.999749 -0.00050788 6.34537e-18)
(0.999791 -0.000872759 -1.8967e-16)
(0.999867 -0.00119808 -1.45067e-16)
(1.00001 -0.00147757 -8.05045e-17)
(1.00021 -0.00168267 -1.18996e-16)
(1.00049 -0.00179728 -2.17078e-16)
(1.00084 -0.00180195 -2.31594e-16)
(1.00123 -0.00167261 -6.75106e-17)
(1.00171 -0.00138259 -2.45921e-16)
(1.00213 -0.00097769 9.27993e-17)
(1.00286 -0.000423045 -1.57321e-16)
(0.999742 -0.000153562 1.52676e-17)
(0.99973 -0.000524333 1.49434e-16)
(0.999779 -0.000901974 4.09044e-17)
(0.999865 -0.00123781 -1.57095e-17)
(1.00002 -0.00152588 9.88589e-17)
(1.00024 -0.00173687 2.77828e-16)
(1.00053 -0.00185446 1.06947e-16)
(1.0009 -0.00185895 2.67497e-16)
(1.0013 -0.00172696 3.13583e-16)
(1.00179 -0.00143207 -3.06001e-16)
(1.00223 -0.00102137 1.00396e-15)
(1.00295 -0.000473485 -6.20717e-16)
(0.99972 -0.000155152 -2.07032e-17)
(0.999711 -0.000540293 -1.95504e-17)
(0.999766 -0.000930978 -1.47789e-16)
(0.999863 -0.00127762 -9.72731e-17)
(1.00003 -0.00157448 -3.4871e-17)
(1.00026 -0.00179152 -1.78943e-16)
(1.00057 -0.00191219 1.04151e-17)
(1.00095 -0.00191648 -3.11379e-16)
(1.00137 -0.00178173 -2.70522e-17)
(1.00188 -0.00148202 1.0516e-15)
(1.00233 -0.00106547 4.95823e-16)
(1.00305 -0.000523335 5.29574e-17)
(0.999696 -0.000155948 -9.85006e-18)
(0.99969 -0.000555785 -1.14705e-16)
(0.999753 -0.000959811 -5.05486e-17)
(0.99986 -0.00131751 -7.55259e-17)
(1.00004 -0.00162333 5.57598e-16)
(1.00029 -0.00184663 -1.29192e-16)
(1.00061 -0.00197056 1.53799e-16)
(1.00101 -0.0019748 -1.59802e-16)
(1.00144 -0.00183736 -2.55315e-16)
(1.00196 -0.0015331 -2.65172e-16)
(1.00243 -0.00111078 -1.96259e-17)
(1.00314 -0.000573564 -2.00683e-16)
(0.999671 -0.000155974 3.41071e-17)
(0.999669 -0.00057083 -4.08697e-17)
(0.999738 -0.000988522 1.7168e-16)
(0.999856 -0.00135756 3.4661e-16)
(1.00005 -0.00167251 -5.27251e-16)
(1.00031 -0.00190229 4.99053e-16)
(1.00065 -0.00202972 -2.75984e-16)
(1.00107 -0.00203417 -1.44113e-16)
(1.00152 -0.00189427 -1.94146e-16)
(1.00205 -0.00158575 -3.55043e-16)
(1.00253 -0.00115773 -1.50632e-16)
(1.00324 -0.000624333 -1.20414e-16)
(0.999644 -0.000155264 -5.82572e-18)
(0.999646 -0.000585459 -1.56752e-17)
(0.999722 -0.00101718 -1.57875e-17)
(0.99985 -0.00139788 -3.35528e-16)
(1.00006 -0.00172222 -1.44058e-16)
(1.00034 -0.00195871 -1.30492e-17)
(1.00069 -0.00208991 -3.89781e-16)
(1.00112 -0.00209487 7.18417e-16)
(1.00159 -0.00195275 -5.86455e-18)
(1.00213 -0.00164026 2.50816e-16)
(1.00263 -0.0012065 1.77646e-16)
(1.00333 -0.000675451 -5.4148e-18)
(0.999616 -0.000153851 -1.89016e-17)
(0.999622 -0.000599687 1.07927e-16)
(0.999705 -0.00104581 3.21429e-17)
(0.999844 -0.00143858 4.61168e-16)
(1.00006 -0.00177263 2.51677e-16)
(1.00036 -0.00201611 -4.22244e-16)
(1.00073 -0.00215135 1.91734e-16)
(1.00118 -0.00215709 -3.78509e-16)
(1.00166 -0.00201296 1.31057e-15)
(1.00222 -0.00169663 -1.0188e-16)
(1.00273 -0.00125694 2.24031e-17)
(1.00343 -0.000726758 -1.4037e-16)
(0.999587 -0.000151779 -1.97232e-17)
(0.999597 -0.000613535 7.54008e-17)
(0.999686 -0.00107443 -9.05796e-17)
(0.999836 -0.00147972 -4.47588e-16)
(1.00007 -0.00182391 4.63482e-16)
(1.00038 -0.00207469 2.71134e-16)
(1.00077 -0.00221422 3.42943e-16)
(1.00123 -0.00222093 1.53463e-16)
(1.00173 -0.0020749 -1.08863e-16)
(1.0023 -0.00175472 5.46632e-16)
(1.00282 -0.00130876 -9.91192e-16)
(1.00353 -0.000777954 1.11739e-15)
(0.999557 -0.00014909 2.7483e-17)
(0.99957 -0.000627006 -1.44312e-16)
(0.999666 -0.00110301 -8.42607e-17)
(0.999826 -0.00152129 -2.68479e-17)
(1.00007 -0.00187611 -1.77268e-16)
(1.0004 -0.00213456 -5.03317e-18)
(1.00081 -0.00227858 -2.81907e-16)
(1.00128 -0.00228638 -2.13379e-16)
(1.0018 -0.00213841 -1.20382e-15)
(1.00239 -0.00181419 -3.97335e-16)
(1.00292 -0.00136145 -2.55387e-16)
(1.00362 -0.000828685 -2.99584e-17)
(0.999526 -0.000145843 1.05399e-17)
(0.999543 -0.000640119 -1.18651e-17)
(0.999645 -0.00113151 -4.26358e-17)
(0.999815 -0.00156323 3.2563e-16)
(1.00008 -0.00192917 -5.52886e-16)
(1.00042 -0.00219566 -4.10313e-16)
(1.00084 -0.00234436 3.52544e-16)
(1.00134 -0.00235328 -2.33352e-17)
(1.00187 -0.00220323 7.29395e-17)
(1.00247 -0.00187465 4.21107e-16)
(1.00302 -0.00141461 -1.68266e-16)
(1.00372 -0.00087874 3.02914e-16)
(0.999494 -0.000142094 -1.51828e-17)
(0.999515 -0.000652886 1.70166e-16)
(0.999623 -0.00115984 2.88659e-16)
(0.999803 -0.00160539 -9.61764e-17)
(1.00008 -0.00198292 4.35621e-17)
(1.00044 -0.0022578 1.82303e-16)
(1.00088 -0.00241134 -4.20901e-16)
(1.00139 -0.00242133 4.432e-16)
(1.00194 -0.00226895 3.44608e-16)
(1.00256 -0.00193562 -2.83932e-16)
(1.00312 -0.00146773 3.22865e-18)
(1.00382 -0.000927945 -1.89834e-17)
(0.99946 -0.00013792 -4.29714e-18)
(0.999486 -0.000665345 -2.47209e-16)
(0.9996 -0.00118799 -4.85217e-17)
(0.999791 -0.00164764 5.7963e-17)
(1.00008 -0.00203711 6.52277e-16)
(1.00045 -0.00232069 5.20806e-17)
(1.00091 -0.00247918 3.9081e-16)
(1.00144 -0.00249015 -7.239e-16)
(1.00201 -0.00233519 3.6356e-16)
(1.00264 -0.00199673 -4.36718e-16)
(1.00321 -0.00152057 9.36635e-16)
(1.00392 -0.000976177 -4.64623e-16)
(0.999426 -0.000133393 2.14798e-17)
(0.999456 -0.000677538 1.09601e-16)
(0.999577 -0.00121593 -1.16401e-16)
(0.999777 -0.00168984 4.79192e-17)
(1.00008 -0.00209152 -3.92381e-16)
(1.00047 -0.00238402 -1.38156e-16)
(1.00095 -0.00254753 2.26827e-17)
(1.0015 -0.00255941 5.1873e-16)
(1.00208 -0.00240162 3.13104e-16)
(1.00273 -0.00205775 -2.16152e-17)
(1.00331 -0.00157303 1.2341e-15)
(1.00402 -0.00102378 -6.07831e-16)
(0.99939 -0.000128602 1.44411e-18)
(0.999426 -0.000689539 1.19627e-16)
(0.999553 -0.00124372 1.19514e-16)
(0.999764 -0.00173197 -1.44063e-17)
(1.00008 -0.00214599 2.86964e-16)
(1.00049 -0.00244757 3.71087e-16)
(1.00098 -0.00261617 -1.13241e-16)
(1.00155 -0.00262888 5.21093e-16)
(1.00216 -0.00246813 -1.19577e-15)
(1.00281 -0.00211868 -1.32643e-16)
(1.00341 -0.00162529 -1.7765e-15)
(1.00412 -0.00107146 1.40241e-16)
(0.999353 -0.000123626 -6.22996e-17)
(0.999394 -0.000701423 7.44325e-17)
(0.999528 -0.00127143 -2.127e-17)
(0.99975 -0.00177407 1.55163e-16)
(1.00008 -0.00220051 -2.13664e-16)
(1.0005 -0.00251126 -5.20758e-16)
(1.00102 -0.002685 -4.00598e-17)
(1.0016 -0.00269854 -3.71427e-16)
(1.00223 -0.00253475 1.27375e-15)
(1.0029 -0.00217969 -4.29087e-17)
(1.00351 -0.00167758 3.81245e-16)
(1.00422 -0.00111951 7.00929e-16)
(0.999315 -0.000118556 1.54926e-17)
(0.999362 -0.000713287 -3.19113e-16)
(0.999503 -0.0012992 1.09986e-16)
(0.999736 -0.00181628 -5.10123e-16)
(1.00008 -0.00225518 2.55238e-16)
(1.00052 -0.00257517 8.45107e-16)
(1.00105 -0.00275412 -2.19133e-16)
(1.00166 -0.00276852 -5.18898e-16)
(1.0023 -0.00260171 -4.05355e-16)
(1.00299 -0.00224108 -8.01434e-17)
(1.00361 -0.0017303 3.95151e-16)
(1.00432 -0.00116807 -6.40915e-16)
(0.999276 -0.000113465 3.55313e-17)
(0.999328 -0.000725215 9.27122e-17)
(0.999477 -0.00132719 -3.34011e-16)
(0.999721 -0.00185879 4.62623e-16)
(1.00008 -0.0023102 -6.95595e-16)
(1.00054 -0.00263949 -6.94866e-16)
(1.00109 -0.00282371 2.64909e-16)
(1.00171 -0.00283904 9.31644e-16)
(1.00237 -0.00266926 -5.24803e-16)
(1.00307 -0.00230312 2.11163e-16)
(1.00371 -0.00178367 -1.70523e-16)
(1.00443 -0.00121738 6.00372e-17)
(0.999237 -0.000108436 -6.05234e-18)
(0.999293 -0.000737303 2.00096e-16)
(0.99945 -0.00135552 2.66489e-16)
(0.999705 -0.00190181 -3.17215e-16)
(1.00008 -0.00236583 1.54329e-16)
(1.00055 -0.00270451 4.28048e-16)
(1.00112 -0.00289407 1.4395e-16)
(1.00176 -0.00291038 -9.65625e-17)
(1.00244 -0.00273769 7.35645e-16)
(1.00316 -0.00236606 3.74305e-16)
(1.0038 -0.00183786 7.03604e-17)
(1.00453 -0.00126764 6.33439e-17)
(0.999196 -0.000103533 1.36063e-17)
(0.999257 -0.000749621 -2.23221e-16)
(0.999422 -0.00138434 -5.89721e-17)
(0.999688 -0.00194552 1.24232e-16)
(1.00008 -0.0024223 7.51062e-16)
(1.00057 -0.00277047 -3.85245e-16)
(1.00116 -0.00296544 -3.28224e-16)
(1.00182 -0.00298279 -7.4591e-17)
(1.00251 -0.00280719 -7.27611e-16)
(1.00324 -0.00243004 4.23015e-16)
(1.0039 -0.00189288 -5.88318e-17)
(1.00463 -0.00131875 3.76798e-16)
(0.999154 -9.88274e-05 -1.07964e-17)
(0.99922 -0.000762241 1.3977e-16)
(0.999392 -0.00141373 -9.64403e-17)
(0.999669 -0.00199007 3.61891e-16)
(1.00007 -0.00247981 -7.05578e-16)
(1.00058 -0.00283759 4.95761e-16)
(1.00119 -0.00303803 -4.8232e-17)
(1.00187 -0.00305642 -5.03872e-17)
(1.00258 -0.00287787 7.52884e-16)
(1.00333 -0.00249512 -2.90223e-16)
(1.004 -0.00194881 -2.37401e-16)
(1.00473 -0.00137054 -9.51689e-17)
(0.999112 -9.43705e-05 1.51971e-18)
(0.999181 -0.000775212 -2.60512e-17)
(0.999361 -0.00144376 1.17515e-16)
(0.99965 -0.00203554 -4.01407e-16)
(1.00007 -0.00253844 3.48363e-16)
(1.0006 -0.00290596 1.16564e-16)
(1.00122 -0.0031119 1.67882e-16)
(1.00192 -0.00313131 -8.76514e-16)
(1.00265 -0.00294973 -3.67735e-16)
(1.00342 -0.00256123 -1.32243e-15)
(1.0041 -0.00200565 -6.9093e-16)
(1.00484 -0.00142286 -7.08096e-16)
(0.999069 -9.02246e-05 -1.9729e-17)
(0.999141 -0.000788585 1.80595e-17)
(0.999328 -0.00147446 -2.20213e-16)
(0.999629 -0.00208198 1.4477e-17)
(1.00006 -0.00259826 -8.85014e-17)
(1.00061 -0.00297562 5.2667e-18)
(1.00125 -0.00318709 3.10141e-16)
(1.00197 -0.00320747 1.185e-15)
(1.00272 -0.00302274 1.03012e-16)
(1.0035 -0.00262833 8.25342e-16)
(1.0042 -0.0020632 -1.21034e-16)
(1.00494 -0.00147563 1.28506e-15)
(0.999025 -8.64327e-05 1.89821e-17)
(0.9991 -0.00080239 1.09648e-17)
(0.999294 -0.00150586 2.97604e-16)
(0.999606 -0.00212937 -1.74061e-16)
(1.00005 -0.00265921 -2.03814e-16)
(1.00062 -0.00304652 -2.35397e-16)
(1.00128 -0.00326352 -1.42783e-16)
(1.00202 -0.00328481 -4.7513e-16)
(1.00279 -0.00309682 8.55079e-17)
(1.00359 -0.00269636 8.20022e-16)
(1.0043 -0.00212153 7.95535e-16)
(1.00504 -0.0015286 -1.14125e-15)
(0.99898 -8.30489e-05 -1.93798e-17)
(0.999057 -0.000816666 -2.39732e-16)
(0.999259 -0.00153796 -1.27622e-16)
(0.999583 -0.0021777 2.92321e-17)
(1.00005 -0.00272127 5.1094e-16)
(1.00063 -0.00311859 -4.05145e-16)
(1.00131 -0.00334112 -3.61568e-16)
(1.00207 -0.00336328 -4.46946e-16)
(1.00286 -0.00317193 -5.35783e-16)
(1.00367 -0.00276529 -1.77175e-15)
(1.00439 -0.00218108 -5.92103e-16)
(1.00515 -0.001582 5.78577e-16)
(0.998934 -8.01078e-05 9.69898e-18)
(0.999014 -0.000831436 2.00219e-16)
(0.999223 -0.00157077 6.03852e-17)
(0.999558 -0.00222695 3.72554e-16)
(1.00004 -0.00278437 -5.89738e-16)
(1.00064 -0.00319176 5.74863e-16)
(1.00134 -0.00341982 -6.85546e-18)
(1.00212 -0.00344281 1.05324e-15)
(1.00293 -0.00324803 3.80226e-16)
(1.00376 -0.00283512 2.31053e-15)
(1.00449 -0.00224193 3.29257e-16)
(1.00525 -0.00163569 5.39212e-16)
(0.998888 -7.76538e-05 -1.98024e-17)
(0.998969 -0.000846734 4.30111e-17)
(0.999185 -0.00160433 9.36718e-17)
(0.999532 -0.00227712 -1.457e-16)
(1.00003 -0.00284851 5.03899e-16)
(1.00065 -0.00326602 -6.06512e-16)
(1.00137 -0.00349961 5.53733e-16)
(1.00217 -0.00352341 -1.42127e-16)
(1.003 -0.00332516 2.31967e-16)
(1.00384 -0.00290591 -1.68496e-15)
(1.00459 -0.00230386 1.00047e-15)
(1.00536 -0.00168931 -1.20328e-15)
(0.998841 -7.57096e-05 2.12995e-17)
(0.998923 -0.000862574 -1.19066e-16)
(0.999147 -0.00163862 -1.731e-16)
(0.999505 -0.00232822 -1.71136e-16)
(1.00002 -0.00291367 5.21996e-17)
(1.00066 -0.00334134 -1.59679e-16)
(1.0014 -0.00358048 -3.01616e-16)
(1.00222 -0.00360509 -6.69265e-16)
(1.00307 -0.00340337 -2.3968e-16)
(1.00393 -0.00297771 3.93801e-16)
(1.00469 -0.00236689 -9.82773e-16)
(1.00546 -0.0017427 6.95676e-16)
(0.998793 -7.43052e-05 5.13226e-17)
(0.998876 -0.000878984 1.4478e-17)
(0.999107 -0.00167369 -4.60636e-17)
(0.999477 -0.00238025 1.24365e-16)
(1.00001 -0.00297989 -6.88118e-16)
(1.00066 -0.00341776 1.16471e-16)
(1.00143 -0.00366248 5.04695e-16)
(1.00227 -0.00368792 -2.81732e-16)
(1.00314 -0.00348272 9.46313e-17)
(1.00401 -0.00305054 -1.23964e-16)
(1.00478 -0.00243122 2.24319e-16)
(1.00557 -0.00179621 -5.24216e-16)
(0.998745 -7.34473e-05 -3.35026e-17)
(0.998828 -0.000895974 7.35902e-17)
(0.999066 -0.00170952 -1.34657e-16)
(0.999448 -0.00243322 -8.06708e-17)
(0.999992 -0.00304715 5.11915e-16)
(1.00067 -0.00349531 2.11717e-16)
(1.00146 -0.00374563 -2.23456e-16)
(1.00232 -0.0037719 4.58315e-16)
(1.0032 -0.0035632 1.50849e-16)
(1.0041 -0.00312438 2.97543e-16)
(1.00488 -0.00249669 -3.06311e-16)
(1.00567 -0.00184963 -1.10092e-17)
(0.998696 -7.31489e-05 -5.13085e-17)
(0.998779 -0.000913562 -2.6709e-17)
(0.999024 -0.00174612 1.38814e-16)
(0.999418 -0.00248712 1.22704e-16)
(0.999978 -0.00311547 1.59595e-16)
(1.00067 -0.00357397 4.31668e-16)
(1.00148 -0.00382993 -1.93699e-16)
(1.00236 -0.00385705 -8.63759e-17)
(1.00327 -0.00364479 -1.83015e-16)
(1.00418 -0.00319916 -6.69001e-18)
(1.00498 -0.002563 6.6291e-18)
(1.00578 -0.00190255 3.83715e-16)
(0.998646 -7.3399e-05 8.63197e-17)
(0.998728 -0.00093175 -1.39987e-17)
(0.998981 -0.00178348 1.6046e-16)
(0.999387 -0.00254192 -7.33071e-17)
(0.999963 -0.0031848 -1.4051e-16)
(1.00068 -0.00365373 -5.68321e-16)
(1.00151 -0.00391535 -3.44141e-16)
(1.00241 -0.00394329 2.24049e-16)
(1.00334 -0.0037274 3.52783e-17)
(1.00426 -0.0032748 5.36141e-17)
(1.00507 -0.00262986 8.28959e-17)
(1.00589 -0.00195517 3.42957e-17)
(0.998596 -7.41942e-05 -8.60961e-17)
(0.998677 -0.000950552 1.31761e-16)
(0.998937 -0.00182158 -2.3624e-16)
(0.999355 -0.00259757 1.62569e-16)
(0.999948 -0.0032551 -3.77219e-18)
(1.00068 -0.00373451 3.85826e-16)
(1.00153 -0.00400181 3.35868e-16)
(1.00246 -0.00403054 -2.24266e-16)
(1.0034 -0.00381095 3.68847e-16)
(1.00435 -0.00335118 -2.38937e-16)
(1.00517 -0.00269698 7.12916e-16)
(1.00599 -0.00200737 7.18302e-16)
(0.998544 -7.55088e-05 6.59801e-17)
(0.998625 -0.000969965 -9.53793e-17)
(0.998892 -0.00186039 -4.00811e-17)
(0.999322 -0.00265402 1.21019e-16)
(0.999931 -0.00332626 -1.51899e-16)
(1.00068 -0.00381621 -2.36248e-16)
(1.00156 -0.0040892 3.60794e-16)
(1.0025 -0.0041187 -2.11275e-16)
(1.00347 -0.00389531 -4.49132e-16)
(1.00443 -0.00342822 2.41476e-16)
(1.00527 -0.00276425 -4.09201e-16)
(1.0061 -0.00205963 -5.62736e-16)
(0.998492 -7.7327e-05 2.74306e-17)
(0.998572 -0.000990002 -1.01438e-16)
(0.998846 -0.00189991 4.1455e-16)
(0.999288 -0.00271122 -2.0261e-16)
(0.999913 -0.00339823 8.28022e-17)
(1.00069 -0.00389875 -1.92071e-16)
(1.00158 -0.00417743 -4.7415e-16)
(1.00255 -0.00420766 4.11759e-16)
(1.00353 -0.00398041 4.74351e-16)
(1.00451 -0.00350585 -5.98415e-16)
(1.00537 -0.00283164 -2.33276e-16)
(1.00621 -0.00211247 -1.76417e-16)
(0.998439 -7.96128e-05 -7.86238e-17)
(0.998517 -0.00101066 3.06365e-17)
(0.998799 -0.00194011 -1.87639e-16)
(0.999253 -0.00276913 2.56762e-17)
(0.999895 -0.00347093 1.14283e-16)
(1.00069 -0.00398203 4.66645e-16)
(1.0016 -0.00426641 5.0465e-18)
(1.00259 -0.00429735 -2.43603e-17)
(1.0036 -0.00406623 -6.52242e-16)
(1.0046 -0.00358411 9.56894e-17)
(1.00547 -0.00289922 -1.34598e-16)
(1.00632 -0.00216612 7.19187e-17)
(0.998385 -8.23425e-05 -1.26955e-17)
(0.998462 -0.00103195 -2.33728e-17)
(0.998751 -0.001981 -2.73833e-16)
(0.999217 -0.00282774 -5.00404e-17)
(0.999876 -0.00354434 -1.79869e-16)
(1.00069 -0.00406604 -1.3015e-16)
(1.00162 -0.00435613 -1.32719e-16)
(1.00263 -0.0043878 1.63044e-16)
(1.00366 -0.00415279 1.83446e-16)
(1.00468 -0.00366307 3.13688e-16)
(1.00557 -0.00296707 4.41646e-16)
(1.00643 -0.00222053 -2.27452e-16)
(0.998329 -8.54735e-05 3.07011e-17)
(0.998405 -0.00105386 1.59576e-17)
(0.998702 -0.00202258 2.61444e-16)
(0.999181 -0.00288706 -5.25299e-17)
(0.999856 -0.00361846 -9.69188e-17)
(1.00069 -0.00415078 -1.49341e-16)
(1.00165 -0.00444661 4.42854e-16)
(1.00268 -0.00447903 -2.96935e-16)
(1.00373 -0.00424019 1.04872e-16)
(1.00477 -0.00374287 4.08568e-16)
(1.00566 -0.00303535 -2.59597e-16)
(1.00654 -0.00227603 -4.0469e-17)
(0.998272 -8.89768e-05 -4.19781e-17)
(0.998347 -0.00107639 4.34364e-17)
(0.998652 -0.00206488 8.91082e-17)
(0.999143 -0.00294711 1.89861e-16)
(0.999836 -0.00369335 3.42143e-16)
(1.00069 -0.00423632 -2.54671e-16)
(1.00167 -0.00453794 -1.68891e-16)
(1.00272 -0.00457118 1.78053e-17)
(1.00379 -0.00432855 -3.11269e-16)
(1.00485 -0.00382365 -4.47768e-16)
(1.00576 -0.00310431 5.9587e-16)
(1.00665 -0.00233291 2.48662e-16)
(0.998214 -9.28051e-05 6.75633e-17)
(0.998288 -0.00109953 8.25559e-17)
(0.998601 -0.00210791 -8.46438e-17)
(0.999104 -0.00300794 -1.72172e-16)
(0.999814 -0.00376907 4.47805e-17)
(1.00068 -0.00432274 4.16982e-16)
(1.00169 -0.00463022 -2.97639e-16)
(1.00277 -0.00466437 -1.07509e-17)
(1.00386 -0.00441801 3.97235e-16)
(1.00493 -0.00390557 -3.89153e-16)
(1.00587 -0.00317424 -5.05978e-16)
(1.00676 -0.00239122 -1.29071e-16)
(0.998154 -9.69253e-05 8.35909e-18)
(0.998228 -0.00112327 8.45316e-18)
(0.998548 -0.00215167 -2.78511e-16)
(0.999064 -0.0030696 -2.27189e-16)
(0.999791 -0.00384569 -3.8227e-16)
(1.00068 -0.00441017 5.20658e-17)
(1.00171 -0.0047236 8.5365e-17)
(1.00281 -0.00475876 -5.93902e-17)
(1.00392 -0.00450872 -3.26326e-16)
(1.00502 -0.00398876 7.30878e-16)
(1.00597 -0.00324508 3.78081e-16)
(1.00687 -0.00245109 -1.16124e-16)
(0.998092 -0.000101286 -3.96875e-17)
(0.998166 -0.00114758 -7.73657e-17)
(0.998494 -0.00219617 3.71282e-16)
(0.999023 -0.00313212 3.38195e-16)
(0.999767 -0.00392329 -7.43704e-18)
(1.00068 -0.00449868 7.23653e-17)
(1.00173 -0.00481818 -1.12341e-16)
(1.00285 -0.00485447 8.25336e-17)
(1.00399 -0.0046008 3.4739e-16)
(1.0051 -0.00407332 -1.80464e-16)
(1.00607 -0.00331705 1.28407e-16)
(1.00698 -0.00251198 2.1569e-16)
(0.998029 -0.000105852 -2.48342e-18)
(0.998103 -0.00117242 5.353e-17)
(0.998439 -0.0022414 -1.62553e-16)
(0.99898 -0.00319551 -3.19642e-16)
(0.999742 -0.00400192 1.93586e-16)
(1.00067 -0.00458838 -4.43972e-16)
(1.00174 -0.00491408 1.31183e-16)
(1.00289 -0.00495159 -1.94795e-16)
(1.00405 -0.00469433 3.07921e-17)
(1.00519 -0.00415928 1.85093e-16)
(1.00617 -0.00339067 -1.59285e-16)
(1.00709 -0.00257402 -4.80651e-16)
(0.997963 -0.000110569 2.29423e-17)
(0.998038 -0.00119775 -1.48629e-16)
(0.998382 -0.00228733 1.66793e-16)
(0.998936 -0.00325978 2.80177e-16)
(0.999715 -0.00408159 -3.60363e-16)
(1.00067 -0.0046793 -3.04973e-17)
(1.00176 -0.00501134 2.19346e-16)
(1.00293 -0.0050502 -2.64693e-16)
(1.00412 -0.00478937 -3.20617e-16)
(1.00527 -0.00424667 9.06433e-17)
(1.00627 -0.00346605 -2.7752e-16)
(1.00721 -0.00263684 4.23324e-16)
(0.997896 -0.000115402 1.50768e-17)
(0.997972 -0.00122355 7.83362e-17)
(0.998323 -0.00233394 -7.73901e-17)
(0.99889 -0.00332492 2.36107e-16)
(0.999687 -0.00416234 1.75127e-16)
(1.00066 -0.00477147 1.47481e-16)
(1.00178 -0.00511002 -2.48024e-16)
(1.00297 -0.00515033 3.77924e-16)
(1.00418 -0.00488594 -3.36066e-18)
(1.00535 -0.00433549 -7.18596e-16)
(1.00637 -0.00354293 1.37285e-16)
(1.00732 -0.00269991 -2.66395e-17)
(0.997828 -0.000120297 -2.40344e-17)
(0.997904 -0.00124975 8.09232e-17)
(0.998263 -0.00238118 -2.69614e-16)
(0.998842 -0.0033909 -1.97807e-16)
(0.999657 -0.00424414 4.02674e-17)
(1.00065 -0.00486489 1.55079e-16)
(1.00179 -0.00521012 2.59071e-16)
(1.00301 -0.00525198 3.53514e-17)
(1.00424 -0.00498405 2.80006e-17)
(1.00544 -0.00442572 4.78499e-16)
(1.00647 -0.00362123 1.45433e-16)
(1.00744 -0.00276289 -2.31113e-16)
(0.997757 -0.000125224 -1.89979e-17)
(0.997835 -0.00127632 -2.24544e-17)
(0.998201 -0.00242902 2.85771e-16)
(0.998794 -0.00345768 4.56665e-18)
(0.999626 -0.00432697 2.46253e-16)
(1.00064 -0.00495956 -2.32153e-16)
(1.00181 -0.00531164 -1.51949e-16)
(1.00305 -0.00535515 -4.51336e-17)
(1.0043 -0.00508369 5.4391e-18)
(1.00552 -0.00451733 2.90668e-16)
(1.00658 -0.00370119 -4.52574e-16)
(1.00756 -0.0028263 -2.65734e-16)
(0.997684 -0.000130133 5.18053e-18)
(0.997764 -0.00130321 -7.8882e-17)
(0.998138 -0.0024774 -2.76437e-16)
(0.998743 -0.00352523 4.92887e-17)
(0.999594 -0.0044108 2.30268e-17)
(1.00063 -0.00505545 2.92659e-18)
(1.00182 -0.00541457 -8.02883e-17)
(1.00309 -0.00545986 3.49022e-16)
(1.00437 -0.00518487 3.82572e-16)
(1.00561 -0.00461031 -2.54326e-16)