1.45 	0 	0 	-0.307003
2.35 	0 	0 	-0.130689
