/*--------------------------------*- C++ -*----------------------------------*\
  =========                 |
  \\      /  F ield         | OpenFOAM: The Open Source CFD Toolbox
   \\    /   O peration     | Website:  https://openfoam.org
    \\  /    A nd           | Version:  6.0
     \\/     M anipulation  |
\*---------------------------------------------------------------------------*/
FoamFile
{
    version     2.0;
    format      ascii;
    class       volScalarField;
    location    "141";
    object      p;
}
// * * * * * * * * * * * * * * * * * * * * * * * * * * * * * * * * * * * * * //

dimensions      [0 2 -2 0 0 0 0];

internalField   nonuniform List<scalar> 
34500
(
1.00623
1.00644
1.00644
1.00629
1.00601
1.00564
1.0052
1.00473
1.00422
1.00372
1.00319
1.00277
1.00216
1.00202
1.0021
1.00623
1.00648
1.00654
1.00647
1.00629
1.00602
1.00568
1.0053
1.00485
1.0044
1.00388
1.00347
1.00278
1.00284
1.00279
1.00623
1.00646
1.0065
1.00639
1.00615
1.00582
1.00541
1.00496
1.00447
1.00397
1.00344
1.00303
1.00242
1.00269
1.00265
1.00623
1.00646
1.00647
1.00633
1.00606
1.00568
1.00524
1.00476
1.00424
1.00374
1.00321
1.00283
1.00231
1.00272
1.00292
1.00624
1.00647
1.00649
1.00636
1.0061
1.00574
1.00531
1.00484
1.00433
1.00384
1.00333
1.00297
1.00249
1.00296
1.00328
1.00625
1.00648
1.00651
1.0064
1.00616
1.00581
1.0054
1.00494
1.00444
1.00397
1.00346
1.00311
1.00263
1.00314
1.0035
1.00625
1.00649
1.00652
1.00642
1.00618
1.00585
1.00543
1.00497
1.00448
1.004
1.0035
1.00315
1.0027
1.00323
1.00366
1.00626
1.0065
1.00654
1.00644
1.0062
1.00586
1.00545
1.00499
1.00449
1.00401
1.00351
1.00318
1.00276
1.0033
1.0038
1.00627
1.00651
1.00655
1.00645
1.00622
1.00589
1.00548
1.00502
1.00452
1.00404
1.00355
1.00322
1.00282
1.00337
1.00391
1.00628
1.00653
1.00657
1.00647
1.00625
1.00592
1.00551
1.00505
1.00456
1.00408
1.00359
1.00327
1.00289
1.00343
1.00399
1.0063
1.00654
1.00658
1.00649
1.00627
1.00594
1.00553
1.00508
1.00458
1.00411
1.00362
1.0033
1.00294
1.00347
1.00406
1.00631
1.00656
1.0066
1.00651
1.00628
1.00596
1.00555
1.0051
1.0046
1.00412
1.00364
1.00333
1.00299
1.0035
1.0041
1.00633
1.00658
1.00662
1.00653
1.0063
1.00598
1.00557
1.00511
1.00462
1.00414
1.00366
1.00335
1.00303
1.00352
1.00413
1.00634
1.00659
1.00664
1.00655
1.00632
1.006
1.00559
1.00513
1.00464
1.00416
1.00368
1.00338
1.00307
1.00354
1.00415
1.00636
1.00662
1.00666
1.00657
1.00635
1.00602
1.00562
1.00516
1.00466
1.00419
1.00371
1.00341
1.00312
1.00356
1.00415
1.00638
1.00664
1.00668
1.0066
1.00638
1.00605
1.00564
1.00519
1.00469
1.00421
1.00374
1.00344
1.00315
1.00357
1.00415
1.0064
1.00666
1.00671
1.00663
1.00641
1.00608
1.00567
1.00521
1.00471
1.00424
1.00376
1.00347
1.00319
1.00357
1.00414
1.00642
1.00669
1.00674
1.00666
1.00644
1.00611
1.0057
1.00524
1.00474
1.00427
1.00379
1.00349
1.00322
1.00357
1.00412
1.00644
1.00671
1.00676
1.00669
1.00647
1.00614
1.00573
1.00527
1.00477
1.00429
1.00382
1.00351
1.00325
1.00357
1.00409
1.00647
1.00674
1.00679
1.00672
1.0065
1.00618
1.00576
1.0053
1.0048
1.00431
1.00384
1.00354
1.00327
1.00357
1.00406
1.00649
1.00677
1.00682
1.00675
1.00654
1.00621
1.0058
1.00533
1.00482
1.00434
1.00386
1.00355
1.00329
1.00356
1.00403
1.00652
1.0068
1.00685
1.00678
1.00657
1.00625
1.00583
1.00536
1.00485
1.00436
1.00388
1.00357
1.00331
1.00354
1.00399
1.00655
1.00683
1.00688
1.00682
1.0066
1.00628
1.00586
1.00539
1.00488
1.00439
1.0039
1.00359
1.00333
1.00353
1.00394
1.00657
1.00686
1.00692
1.00685
1.00664
1.00631
1.00589
1.00542
1.0049
1.00441
1.00392
1.0036
1.00334
1.00351
1.0039
1.00661
1.00689
1.00695
1.00689
1.00667
1.00635
1.00592
1.00545
1.00493
1.00443
1.00394
1.00361
1.00334
1.00349
1.00385
1.00664
1.00693
1.00698
1.00692
1.00671
1.00638
1.00596
1.00547
1.00495
1.00445
1.00395
1.00361
1.00335
1.00347
1.0038
1.00667
1.00696
1.00702
1.00696
1.00674
1.00641
1.00599
1.0055
1.00497
1.00446
1.00397
1.00362
1.00335
1.00345
1.00375
1.00671
1.007
1.00706
1.007
1.00678
1.00645
1.00602
1.00553
1.00499
1.00448
1.00398
1.00363
1.00335
1.00342
1.0037
1.00674
1.00704
1.0071
1.00704
1.00681
1.00648
1.00605
1.00555
1.00502
1.0045
1.00399
1.00363
1.00335
1.0034
1.00365
1.00678
1.00708
1.00714
1.00708
1.00685
1.00652
1.00608
1.00558
1.00504
1.00451
1.004
1.00363
1.00335
1.00337
1.00359
1.00682
1.00713
1.00718
1.00712
1.0069
1.00656
1.00612
1.00561
1.00506
1.00453
1.00402
1.00364
1.00334
1.00334
1.00354
1.00686
1.00717
1.00723
1.00717
1.00694
1.0066
1.00615
1.00564
1.00509
1.00455
1.00403
1.00364
1.00334
1.00331
1.00348
1.0069
1.00722
1.00728
1.00722
1.00699
1.00664
1.00619
1.00568
1.00512
1.00457
1.00404
1.00364
1.00333
1.00328
1.00343
1.00695
1.00726
1.00733
1.00727
1.00704
1.00669
1.00623
1.00571
1.00515
1.00459
1.00405
1.00364
1.00332
1.00325
1.00337
1.00699
1.00731
1.00738
1.00732
1.00709
1.00674
1.00628
1.00575
1.00517
1.00461
1.00406
1.00364
1.0033
1.00321
1.00331
1.00704
1.00736
1.00743
1.00737
1.00714
1.00678
1.00632
1.00578
1.0052
1.00463
1.00407
1.00363
1.00329
1.00318
1.00325
1.00709
1.00741
1.00748
1.00742
1.00719
1.00683
1.00636
1.00582
1.00523
1.00464
1.00408
1.00363
1.00327
1.00314
1.00319
1.00714
1.00746
1.00753
1.00747
1.00724
1.00688
1.0064
1.00585
1.00525
1.00466
1.00408
1.00362
1.00325
1.0031
1.00313
1.00719
1.00752
1.00758
1.00752
1.00729
1.00692
1.00644
1.00588
1.00527
1.00467
1.00409
1.00361
1.00323
1.00306
1.00307
1.00724
1.00757
1.00764
1.00758
1.00734
1.00697
1.00648
1.00592
1.0053
1.00468
1.00409
1.0036
1.00321
1.00302
1.00301
1.00729
1.00763
1.0077
1.00763
1.00739
1.00702
1.00652
1.00595
1.00532
1.0047
1.00409
1.00359
1.00319
1.00297
1.00294
1.00735
1.00769
1.00775
1.00769
1.00745
1.00706
1.00656
1.00598
1.00534
1.00471
1.00409
1.00358
1.00316
1.00293
1.00288
1.00741
1.00775
1.00781
1.00775
1.0075
1.00711
1.00661
1.00601
1.00537
1.00472
1.00409
1.00356
1.00313
1.00288
1.00282
1.00747
1.00781
1.00788
1.00781
1.00756
1.00717
1.00665
1.00605
1.00539
1.00473
1.00409
1.00355
1.00311
1.00284
1.00275
1.00753
1.00788
1.00794
1.00787
1.00762
1.00722
1.00669
1.00608
1.00542
1.00474
1.00409
1.00353
1.00308
1.00279
1.00269
1.00759
1.00794
1.008
1.00794
1.00768
1.00727
1.00674
1.00612
1.00544
1.00476
1.00409
1.00352
1.00305
1.00274
1.00262
1.00765
1.00801
1.00807
1.008
1.00774
1.00733
1.00679
1.00616
1.00547
1.00477
1.00409
1.0035
1.00302
1.0027
1.00255
1.00772
1.00808
1.00814
1.00807
1.0078
1.00739
1.00684
1.0062
1.00549
1.00478
1.00409
1.00349
1.00298
1.00265
1.00249
1.00779
1.00815
1.00821
1.00814
1.00787
1.00744
1.00689
1.00623
1.00552
1.00479
1.00409
1.00347
1.00295
1.00259
1.00242
1.00786
1.00822
1.00828
1.00821
1.00793
1.0075
1.00694
1.00627
1.00555
1.00481
1.00408
1.00345
1.00292
1.00254
1.00235
1.00793
1.0083
1.00836
1.00828
1.008
1.00757
1.00699
1.00632
1.00557
1.00482
1.00408
1.00343
1.00288
1.00249
1.00228
1.008
1.00837
1.00843
1.00836
1.00807
1.00763
1.00704
1.00636
1.0056
1.00483
1.00408
1.00341
1.00284
1.00243
1.0022
1.00807
1.00845
1.00851
1.00843
1.00814
1.00769
1.0071
1.0064
1.00563
1.00484
1.00407
1.00339
1.0028
1.00237
1.00213
1.00815
1.00853
1.00859
1.00851
1.00822
1.00776
1.00715
1.00644
1.00565
1.00485
1.00407
1.00336
1.00276
1.00232
1.00206
1.00823
1.00861
1.00867
1.00859
1.00829
1.00782
1.0072
1.00648
1.00568
1.00486
1.00406
1.00334
1.00272
1.00226
1.00198
1.00831
1.00869
1.00875
1.00867
1.00836
1.00789
1.00726
1.00652
1.00571
1.00487
1.00405
1.00331
1.00267
1.0022
1.0019
1.00839
1.00878
1.00884
1.00875
1.00844
1.00796
1.00732
1.00656
1.00573
1.00488
1.00404
1.00328
1.00263
1.00213
1.00183
1.00847
1.00886
1.00892
1.00884
1.00852
1.00802
1.00737
1.0066
1.00576
1.00489
1.00403
1.00325
1.00258
1.00207
1.00175
1.00856
1.00895
1.00901
1.00892
1.0086
1.00809
1.00743
1.00665
1.00578
1.00489
1.00402
1.00322
1.00253
1.002
1.00167
1.00864
1.00904
1.0091
1.00901
1.00868
1.00816
1.00749
1.00669
1.00581
1.0049
1.00401
1.00319
1.00248
1.00194
1.00158
1.00873
1.00914
1.00919
1.0091
1.00876
1.00824
1.00755
1.00673
1.00584
1.00491
1.004
1.00316
1.00244
1.00187
1.0015
1.00882
1.00923
1.00929
1.00919
1.00884
1.00831
1.00761
1.00678
1.00586
1.00492
1.00398
1.00313
1.00238
1.0018
1.00142
1.00892
1.00933
1.00938
1.00928
1.00893
1.00839
1.00767
1.00683
1.00589
1.00493
1.00397
1.0031
1.00233
1.00173
1.00133
1.00901
1.00943
1.00948
1.00938
1.00902
1.00846
1.00773
1.00687
1.00592
1.00494
1.00396
1.00306
1.00228
1.00166
1.00124
1.00911
1.00953
1.00958
1.00947
1.00911
1.00854
1.0078
1.00692
1.00595
1.00494
1.00395
1.00303
1.00222
1.00159
1.00115
1.00921
1.00963
1.00968
1.00957
1.0092
1.00863
1.00787
1.00697
1.00598
1.00495
1.00393
1.00299
1.00217
1.00151
1.00106
1.00931
1.00974
1.00979
1.00968
1.00929
1.00871
1.00794
1.00702
1.00601
1.00496
1.00392
1.00296
1.00211
1.00143
1.00097
1.00941
1.00985
1.00989
1.00978
1.00939
1.00879
1.00801
1.00707
1.00604
1.00497
1.0039
1.00292
1.00205
1.00136
1.00088
1.00952
1.00996
1.01
1.00989
1.00949
1.00888
1.00808
1.00713
1.00607
1.00498
1.00389
1.00288
1.00199
1.00128
1.00078
1.00963
1.01007
1.01012
1.00999
1.00959
1.00897
1.00815
1.00718
1.0061
1.00498
1.00387
1.00284
1.00192
1.00119
1.00068
1.00974
1.01018
1.01023
1.0101
1.00969
1.00906
1.00822
1.00723
1.00613
1.00499
1.00385
1.0028
1.00186
1.00111
1.00058
1.00985
1.0103
1.01034
1.01021
1.00979
1.00915
1.00829
1.00728
1.00616
1.00499
1.00383
1.00275
1.00179
1.00102
1.00048
1.00996
1.01042
1.01046
1.01033
1.0099
1.00924
1.00837
1.00734
1.00619
1.005
1.00381
1.00271
1.00173
1.00094
1.00038
1.01008
1.01054
1.01058
1.01044
1.01
1.00933
1.00844
1.00739
1.00622
1.005
1.00379
1.00266
1.00166
1.00085
1.00027
1.0102
1.01067
1.01071
1.01056
1.01011
1.00943
1.00852
1.00745
1.00625
1.00501
1.00377
1.00262
1.00159
1.00076
1.00016
1.01032
1.01079
1.01083
1.01068
1.01022
1.00952
1.0086
1.0075
1.00629
1.00502
1.00375
1.00257
1.00151
1.00066
1.00005
1.01045
1.01092
1.01096
1.01081
1.01034
1.00962
1.00868
1.00756
1.00632
1.00502
1.00373
1.00252
1.00144
1.00057
0.99994
1.01057
1.01106
1.01109
1.01094
1.01046
1.00973
1.00876
1.00762
1.00635
1.00503
1.00371
1.00247
1.00137
1.00047
0.999825
1.0107
1.01119
1.01122
1.01106
1.01058
1.00983
1.00885
1.00768
1.00639
1.00503
1.00368
1.00242
1.00129
1.00037
0.999708
1.01084
1.01133
1.01136
1.0112
1.0107
1.00994
1.00894
1.00775
1.00642
1.00504
1.00366
1.00237
1.00121
1.00027
0.999588
1.01097
1.01147
1.0115
1.01133
1.01082
1.01005
1.00902
1.00781
1.00646
1.00504
1.00363
1.00231
1.00113
1.00017
0.999466
1.01111
1.01161
1.01164
1.01147
1.01095
1.01016
1.00911
1.00787
1.00649
1.00505
1.00361
1.00225
1.00104
1.00006
0.999341
1.01125
1.01176
1.01179
1.01161
1.01108
1.01027
1.0092
1.00794
1.00653
1.00505
1.00358
1.0022
1.00096
0.99995
0.999213
1.01139
1.01191
1.01193
1.01175
1.01121
1.01038
1.0093
1.008
1.00656
1.00506
1.00355
1.00214
1.00087
0.999839
0.999083
1.01154
1.01206
1.01208
1.01189
1.01134
1.0105
1.00939
1.00807
1.0066
1.00506
1.00352
1.00208
1.00078
0.999725
0.99895
1.01169
1.01221
1.01224
1.01204
1.01148
1.01062
1.00949
1.00814
1.00663
1.00506
1.00349
1.00201
1.00069
0.999609
0.998815
1.01184
1.01237
1.01239
1.01219
1.01162
1.01074
1.00958
1.0082
1.00667
1.00506
1.00346
1.00195
1.0006
0.999491
0.998677
1.012
1.01253
1.01255
1.01235
1.01176
1.01086
1.00968
1.00827
1.00671
1.00506
1.00343
1.00188
1.0005
0.999371
0.998537
1.01216
1.0127
1.01271
1.0125
1.0119
1.01099
1.00978
1.00834
1.00674
1.00507
1.00339
1.00182
1.0004
0.999248
0.998393
1.01232
1.01286
1.01288
1.01266
1.01205
1.01112
1.00988
1.00842
1.00678
1.00507
1.00336
1.00175
1.00031
0.999122
0.998246
1.01248
1.01304
1.01305
1.01283
1.0122
1.01125
1.00999
1.00849
1.00682
1.00507
1.00333
1.00168
1.0002
0.998994
0.998096
1.01265
1.01321
1.01322
1.013
1.01235
1.01138
1.0101
1.00857
1.00686
1.00508
1.00329
1.00161
1.0001
0.998863
0.997943
1.01282
1.01339
1.0134
1.01317
1.01251
1.01152
1.01021
1.00865
1.00691
1.00508
1.00326
1.00154
0.999995
0.998728
0.997786
1.013
1.01357
1.01358
1.01334
1.01267
1.01166
1.01032
1.00873
1.00695
1.00508
1.00322
1.00146
0.999886
0.99859
0.997625
1.01318
1.01375
1.01376
1.01352
1.01284
1.0118
1.01044
1.00881
1.00699
1.00508
1.00318
1.00139
0.999773
0.998449
0.997461
1.01336
1.01394
1.01395
1.0137
1.013
1.01195
1.01055
1.00889
1.00703
1.00508
1.00314
1.00131
0.999658
0.998305
0.997294
1.01355
1.01413
1.01414
1.01388
1.01317
1.0121
1.01067
1.00897
1.00708
1.00508
1.0031
1.00122
0.99954
0.998157
0.997123
1.01374
1.01433
1.01434
1.01407
1.01335
1.01225
1.01079
1.00905
1.00712
1.00508
1.00305
1.00114
0.999419
0.998006
0.996948
1.01393
1.01453
1.01453
1.01426
1.01352
1.0124
1.01091
1.00914
1.00716
1.00508
1.00301
1.00105
0.999295
0.997852
0.99677
1.01413
1.01473
1.01474
1.01446
1.0137
1.01255
1.01104
1.00922
1.0072
1.00508
1.00296
1.00096
0.999169
0.997695
0.996588
1.01433
1.01494
1.01494
1.01466
1.01388
1.01271
1.01116
1.00931
1.00724
1.00507
1.00291
1.00087
0.99904
0.997534
0.996403
1.01453
1.01515
1.01515
1.01486
1.01407
1.01287
1.01129
1.0094
1.00729
1.00507
1.00286
1.00078
0.998909
0.997371
0.996214
1.01474
1.01536
1.01537
1.01507
1.01426
1.01304
1.01142
1.00949
1.00733
1.00507
1.00281
1.00068
0.998775
0.997203
0.99602
1.01495
1.01558
1.01559
1.01528
1.01445
1.01321
1.01155
1.00958
1.00738
1.00506
1.00276
1.00059
0.998637
0.997032
0.995823
1.01517
1.01581
1.01581
1.01549
1.01465
1.01338
1.01169
1.00967
1.00742
1.00506
1.0027
1.00049
0.998497
0.996857
0.995621
1.01539
1.01604
1.01604
1.01571
1.01485
1.01355
1.01183
1.00977
1.00747
1.00505
1.00265
1.00038
0.998353
0.996679
0.995415
1.01562
1.01627
1.01627
1.01594
1.01506
1.01373
1.01197
1.00987
1.00752
1.00505
1.00259
1.00028
0.998205
0.996495
0.995204
1.01585
1.01651
1.01651
1.01617
1.01527
1.01392
1.01212
1.00997
1.00756
1.00504
1.00253
1.00017
0.998054
0.996308
0.994989
1.01608
1.01675
1.01675
1.0164
1.01549
1.0141
1.01227
1.01007
1.00761
1.00504
1.00247
1.00006
0.997898
0.996116
0.994769
1.01632
1.017
1.01699
1.01664
1.01571
1.0143
1.01242
1.01017
1.00766
1.00503
1.00241
0.999946
0.997739
0.995921
0.994545
1.01657
1.01725
1.01725
1.01688
1.01593
1.01449
1.01257
1.01027
1.00771
1.00502
1.00234
0.999828
0.997576
0.995721
0.994315
1.01681
1.0175
1.0175
1.01713
1.01616
1.01469
1.01272
1.01038
1.00776
1.00501
1.00228
0.999708
0.99741
0.995516
0.994081
1.01707
1.01777
1.01776
1.01738
1.0164
1.01489
1.01288
1.01048
1.0078
1.005
1.00221
0.999584
0.997239
0.995307
0.993842
1.01733
1.01803
1.01803
1.01764
1.01663
1.01509
1.01304
1.01059
1.00785
1.00498
1.00213
0.999457
0.997065
0.995094
0.993598
1.01759
1.0183
1.0183
1.0179
1.01688
1.0153
1.01321
1.0107
1.0079
1.00497
1.00206
0.999327
0.996886
0.994875
0.993348
1.01786
1.01858
1.01858
1.01817
1.01712
1.01551
1.01337
1.01081
1.00795
1.00496
1.00198
0.999193
0.996703
0.994651
0.993093
1.01813
1.01886
1.01886
1.01845
1.01737
1.01573
1.01354
1.01092
1.008
1.00494
1.0019
0.999056
0.996515
0.994422
0.992832
1.01841
1.01915
1.01915
1.01873
1.01763
1.01595
1.01372
1.01104
1.00805
1.00492
1.00182
0.998914
0.996322
0.994188
0.992566
1.01869
1.01945
1.01945
1.01901
1.01789
1.01618
1.01389
1.01115
1.0081
1.0049
1.00173
0.998768
0.996123
0.993947
0.992294
1.01898
1.01975
1.01975
1.0193
1.01816
1.01641
1.01407
1.01127
1.00815
1.00488
1.00165
0.998617
0.99592
0.993702
0.992016
1.01927
1.02005
1.02005
1.0196
1.01843
1.01664
1.01426
1.01139
1.0082
1.00486
1.00155
0.998462
0.995711
0.99345
0.991732
1.01957
1.02036
1.02037
1.0199
1.01871
1.01688
1.01444
1.01151
1.00825
1.00483
1.00146
0.998302
0.995498
0.993193
0.991442
1.01988
1.02068
1.02068
1.02021
1.019
1.01713
1.01463
1.01163
1.00829
1.0048
1.00136
0.998138
0.995279
0.99293
0.991147
1.02019
1.02101
1.02101
1.02053
1.01929
1.01737
1.01482
1.01175
1.00834
1.00477
1.00125
0.997969
0.995055
0.992663
0.990845
1.02051
1.02134
1.02134
1.02085
1.01958
1.01763
1.01501
1.01188
1.00839
1.00474
1.00115
0.997796
0.994826
0.992388
0.990537
1.02083
1.02167
1.02168
1.02118
1.01988
1.01788
1.01521
1.012
1.00843
1.00471
1.00104
0.997619
0.994592
0.992109
0.990224
1.02117
1.02202
1.02203
1.02151
1.02019
1.01815
1.01541
1.01213
1.00848
1.00467
1.00092
0.997438
0.994352
0.991823
0.989903
1.0215
1.02237
1.02238
1.02185
1.02051
1.01842
1.01562
1.01226
1.00853
1.00464
1.00081
0.997252
0.994107
0.991532
0.989576
1.02185
1.02273
1.02274
1.0222
1.02083
1.01869
1.01583
1.01239
1.00857
1.0046
1.00069
0.997061
0.993856
0.991233
0.989242
1.0222
1.0231
1.02311
1.02256
1.02116
1.01897
1.01604
1.01253
1.00862
1.00456
1.00057
0.996865
0.993599
0.990928
0.988901
1.02255
1.02347
1.02349
1.02293
1.02149
1.01925
1.01626
1.01266
1.00867
1.00451
1.00044
0.996662
0.993335
0.990614
0.988552
1.02292
1.02385
1.02387
1.0233
1.02183
1.01955
1.01648
1.0128
1.00871
1.00447
1.00031
0.996454
0.993064
0.990294
0.988195
1.02329
1.02424
1.02426
1.02368
1.02218
1.01984
1.01671
1.01294
1.00876
1.00442
1.00017
0.996239
0.992785
0.989966
0.98783
1.02367
1.02464
1.02466
1.02407
1.02254
1.02015
1.01694
1.01308
1.0088
1.00436
1.00003
0.996018
0.992499
0.98963
0.987458
1.02405
1.02504
1.02507
1.02447
1.0229
1.02046
1.01717
1.01322
1.00884
1.00431
0.999876
0.995788
0.992204
0.989285
0.987077
1.02445
1.02546
1.02549
1.02487
1.02327
1.02077
1.0174
1.01336
1.00888
1.00424
0.99972
0.995551
0.991902
0.988933
0.986689
1.02485
1.02588
1.02591
1.02529
1.02365
1.02109
1.01764
1.0135
1.00892
1.00418
0.999557
0.995307
0.99159
0.988571
0.986291
1.02526
1.02631
1.02635
1.02571
1.02404
1.02142
1.01788
1.01364
1.00895
1.0041
0.999388
0.995055
0.991272
0.988202
0.985887
1.02568
1.02675
1.02679
1.02614
1.02443
1.02175
1.01813
1.01379
1.00898
1.00403
0.999212
0.994794
0.990944
0.987824
0.985472
1.0261
1.0272
1.02724
1.02658
1.02484
1.02208
1.01838
1.01393
1.00901
1.00395
0.99903
0.994527
0.990609
0.987438
0.985051
1.02654
1.02766
1.02771
1.02703
1.02525
1.02243
1.01863
1.01407
1.00904
1.00386
0.99884
0.994251
0.990265
0.987042
0.98462
1.02698
1.02813
1.02818
1.02749
1.02567
1.02278
1.01889
1.01421
1.00906
1.00377
0.998644
0.993968
0.989912
0.986639
0.984181
1.02744
1.02861
1.02866
1.02796
1.02609
1.02313
1.01915
1.01436
1.00908
1.00367
0.998441
0.993676
0.989551
0.986226
0.983732
1.0279
1.0291
1.02916
1.02844
1.02653
1.0235
1.01941
1.0145
1.0091
1.00357
0.998231
0.993376
0.989181
0.985804
0.983275
1.02837
1.0296
1.02966
1.02893
1.02698
1.02387
1.01968
1.01465
1.00912
1.00346
0.998014
0.993067
0.988801
0.985373
0.982807
1.02885
1.03011
1.03018
1.02944
1.02744
1.02425
1.01995
1.01479
1.00913
1.00335
0.997789
0.99275
0.988412
0.984932
0.982331
1.02934
1.03063
1.03071
1.02995
1.0279
1.02464
1.02022
1.01494
1.00914
1.00323
0.997555
0.992422
0.988013
0.98448
0.981844
1.02985
1.03116
1.03125
1.03047
1.02838
1.02503
1.0205
1.01509
1.00915
1.0031
0.997313
0.992085
0.987603
0.984018
0.981348
1.03036
1.03171
1.0318
1.03101
1.02887
1.02543
1.02079
1.01523
1.00915
1.00297
0.997061
0.991737
0.987182
0.983545
0.98084
1.03089
1.03227
1.03236
1.03156
1.02936
1.02584
1.02108
1.01538
1.00915
1.00282
0.996799
0.991379
0.98675
0.983061
0.980323
1.03142
1.03284
1.03294
1.03212
1.02987
1.02626
1.02137
1.01552
1.00914
1.00267
0.996527
0.991009
0.986306
0.982566
0.979794
1.03197
1.03342
1.03353
1.0327
1.03039
1.02668
1.02166
1.01566
1.00912
1.00252
0.996245
0.990627
0.985851
0.982059
0.979255
1.03253
1.03401
1.03413
1.03328
1.03092
1.02711
1.02196
1.0158
1.0091
1.00235
0.99595
0.990233
0.985382
0.98154
0.978703
1.0331
1.03462
1.03475
1.03389
1.03146
1.02755
1.02226
1.01594
1.00908
1.00217
0.995644
0.989826
0.984902
0.981009
0.978142
1.03368
1.03524
1.03538
1.0345
1.03202
1.028
1.02256
1.01607
1.00904
1.00198
0.995326
0.989406
0.984408
0.980465
0.977568
1.03428
1.03588
1.03603
1.03513
1.03258
1.02846
1.02286
1.01621
1.009
1.00178
0.994995
0.988973
0.983901
0.97991
0.976983
1.03489
1.03653
1.03669
1.03577
1.03316
1.02892
1.02317
1.01634
1.00895
1.00157
0.994651
0.988526
0.98338
0.979341
0.976385
1.03551
1.0372
1.03737
1.03643
1.03375
1.02939
1.02348
1.01646
1.0089
1.00135
0.994293
0.988065
0.982847
0.97876
0.975777
1.03615
1.03788
1.03806
1.03711
1.03435
1.02987
1.02379
1.01658
1.00883
1.00111
0.993921
0.987589
0.982298
0.978164
0.975155
1.0368
1.03858
1.03877
1.0378
1.03497
1.03036
1.0241
1.0167
1.00875
1.00087
0.993535
0.987099
0.981735
0.977556
0.974522
1.03747
1.03929
1.0395
1.0385
1.0356
1.03085
1.02442
1.01681
1.00867
1.00061
0.993133
0.986592
0.981157
0.976933
0.973875
1.03815
1.04002
1.04024
1.03923
1.03624
1.03135
1.02473
1.01692
1.00857
1.00033
0.992716
0.986071
0.980565
0.976297
0.973217
1.03884
1.04077
1.04101
1.03997
1.0369
1.03186
1.02505
1.01702
1.00846
1.00004
0.992282
0.985532
0.979956
0.975646
0.972545
1.03956
1.04153
1.04179
1.04073
1.03757
1.03238
1.02537
1.01711
1.00834
0.999736
0.991832
0.984977
0.979331
0.974981
0.97186
1.04029
1.04232
1.04259
1.0415
1.03826
1.03291
1.02568
1.0172
1.0082
0.999413
0.991364
0.984404
0.97869
0.9743
0.971161
1.04103
1.04312
1.04341
1.0423
1.03896
1.03345
1.026
1.01727
1.00806
0.999074
0.990878
0.983814
0.978032
0.973604
0.970449
1.0418
1.04394
1.04425
1.04311
1.03968
1.03399
1.02632
1.01734
1.00789
0.998717
0.990372
0.983204
0.977356
0.972892
0.969722
1.04258
1.04478
1.04511
1.04395
1.04041
1.03454
1.02663
1.0174
1.00771
0.998341
0.989847
0.982576
0.976664
0.972165
0.968983
1.04338
1.04565
1.046
1.04481
1.04115
1.0351
1.02694
1.01745
1.00752
0.997944
0.9893
0.981927
0.975952
0.971421
0.968228
1.0442
1.04653
1.04691
1.04568
1.04192
1.03566
1.02725
1.01748
1.0073
0.997527
0.988733
0.981258
0.975222
0.970661
0.96746
1.04504
1.04744
1.04784
1.04658
1.0427
1.03623
1.02755
1.0175
1.00707
0.997088
0.988142
0.980567
0.974472
0.969884
0.966676
1.0459
1.04837
1.04879
1.0475
1.04349
1.03681
1.02785
1.01751
1.00682
0.996626
0.987529
0.979856
0.973704
0.96909
0.965878
1.04679
1.04932
1.04977
1.04845
1.0443
1.03739
1.02814
1.0175
1.00654
0.996139
0.986892
0.979121
0.972915
0.968278
0.965064
1.04769
1.0503
1.05078
1.04942
1.04513
1.03798
1.02843
1.01748
1.00624
0.995628
0.98623
0.978364
0.972107
0.96745
0.964236
1.04862
1.05131
1.05181
1.05041
1.04598
1.03858
1.02871
1.01744
1.00592
0.99509
0.985542
0.977583
0.971277
0.966603
0.963392
1.04957
1.05233
1.05287
1.05143
1.04684
1.03917
1.02897
1.01737
1.00557
0.994525
0.984828
0.976778
0.970427
0.965738
0.962533
1.05054
1.05339
1.05396
1.05247
1.04772
1.03977
1.02923
1.01729
1.0052
0.99393
0.984086
0.975948
0.969554
0.964854
0.961657
1.05154
1.05448
1.05508
1.05354
1.04862
1.04038
1.02948
1.01718
1.0048
0.993306
0.983315
0.975093
0.96866
0.963953
0.960767
1.05256
1.05559
1.05622
1.05464
1.04953
1.04098
1.02971
1.01705
1.00436
0.992651
0.982515
0.974212
0.967743
0.963031
0.959859
1.05361
1.05673
1.05741
1.05577
1.05046
1.04159
1.02992
1.01689
1.00389
0.991963
0.981686
0.973304
0.966805
0.962091
0.958936
1.05469
1.05791
1.05862
1.05693
1.05141
1.04219
1.03012
1.0167
1.00339
0.99124
0.980824
0.972369
0.965842
0.961131
0.957995
1.05579
1.05911
1.05987
1.05811
1.05237
1.0428
1.0303
1.01648
1.00286
0.990483
0.979931
0.971406
0.964856
0.960151
0.957039
1.05693
1.06036
1.06115
1.05933
1.05335
1.04339
1.03046
1.01623
1.00229
0.989688
0.979004
0.970414
0.963846
0.959151
0.956065
1.05809
1.06163
1.06247
1.06058
1.05435
1.04399
1.03059
1.01594
1.00167
0.988856
0.978043
0.969394
0.962812
0.958132
0.955075
1.05929
1.06294
1.06383
1.06186
1.05536
1.04457
1.0307
1.01562
1.00102
0.987983
0.977046
0.968343
0.961753
0.957091
0.954066
1.06052
1.06429
1.06523
1.06317
1.05638
1.04515
1.03077
1.01525
1.00032
0.98707
0.976014
0.967263
0.960669
0.95603
0.953042
1.06178
1.06568
1.06667
1.06452
1.05742
1.04572
1.03082
1.01484
0.999574
0.986113
0.974945
0.966151
0.959559
0.954947
0.951999
1.06308
1.06711
1.06816
1.0659
1.05848
1.04627
1.03083
1.01438
0.998782
0.985113
0.973838
0.965008
0.958424
0.953844
0.950939
1.06441
1.06858
1.06969
1.06731
1.05954
1.0468
1.0308
1.01388
0.997938
0.984066
0.972691
0.963832
0.957262
0.952719
0.949861
1.06579
1.07009
1.07126
1.06877
1.06061
1.04732
1.03072
1.01332
0.997042
0.982972
0.971505
0.962624
0.956075
0.951573
0.948765
1.0672
1.07165
1.07288
1.07026
1.0617
1.04781
1.0306
1.0127
0.99609
0.981829
0.970278
0.961383
0.95486
0.950405
0.947651
1.06865
1.07326
1.07456
1.07178
1.06278
1.04827
1.03043
1.01202
0.995081
0.980636
0.969009
0.960108
0.953618
0.949215
0.94652
1.07014
1.07492
1.07629
1.07334
1.06388
1.0487
1.0302
1.01128
0.994011
0.97939
0.967698
0.958799
0.952349
0.948003
0.94537
1.07168
1.07663
1.07807
1.07494
1.06497
1.04909
1.02991
1.01048
0.992878
0.978092
0.966343
0.957455
0.951053
0.946769
0.944203
1.07326
1.0784
1.07991
1.07658
1.06606
1.04944
1.02956
1.0096
0.991681
0.976738
0.964944
0.956077
0.949729
0.945513
0.943017
1.07489
1.08022
1.0818
1.07825
1.06714
1.04975
1.02913
1.00864
0.990415
0.975328
0.9635
0.954663
0.948377
0.944235
0.941814
1.07657
1.08211
1.08376
1.07996
1.06822
1.05
1.02863
1.00761
0.989079
0.97386
0.96201
0.953213
0.946997
0.942934
0.940592
1.0783
1.08406
1.08578
1.0817
1.06928
1.05019
1.02805
1.0065
0.987671
0.972334
0.960474
0.951728
0.94559
0.941612
0.939352
1.08008
1.08607
1.08787
1.08348
1.07032
1.05032
1.02738
1.00529
0.986188
0.970746
0.958891
0.950207
0.944154
0.940266
0.938094
1.08192
1.08816
1.09003
1.08529
1.07134
1.05037
1.02661
1.004
0.984627
0.969098
0.957261
0.948649
0.942691
0.9389
0.936819
1.08382
1.09031
1.09226
1.08713
1.07232
1.05034
1.02574
1.00261
0.982986
0.967387
0.955583
0.947055
0.941198
0.93751
0.935525
1.08578
1.09255
1.09456
1.089
1.07327
1.05021
1.02477
1.00112
0.981264
0.965613
0.953857
0.945425
0.939679
0.9361
0.934214
1.0878
1.09487
1.09694
1.09089
1.07416
1.04999
1.02367
0.999521
0.979457
0.963774
0.952083
0.943758
0.938132
0.934667
0.932884
1.08989
1.09727
1.0994
1.09281
1.075
1.04965
1.02246
0.997818
0.977565
0.96187
0.95026
0.942056
0.936557
0.933213
0.931538
1.09205
1.09977
1.10194
1.09473
1.07577
1.0492
1.02111
0.996001
0.975584
0.9599
0.948388
0.940317
0.934955
0.931737
0.930174
1.09428
1.10236
1.10455
1.09667
1.07645
1.04861
1.01962
0.994069
0.973515
0.957865
0.946469
0.938543
0.933326
0.930241
0.928794
1.09659
1.10505
1.10726
1.09861
1.07705
1.04787
1.01799
0.992016
0.971355
0.955763
0.944501
0.936733
0.931671
0.928724
0.927396
1.09898
1.10786
1.11004
1.10054
1.07754
1.04698
1.01621
0.98984
0.969104
0.953594
0.942486
0.934888
0.929989
0.927187
0.925982
1.10145
1.11077
1.11291
1.10246
1.07791
1.04591
1.01426
0.987537
0.96676
0.95136
0.940423
0.93301
0.928282
0.925629
0.924552
1.10402
1.11381
1.11587
1.10435
1.07813
1.04466
1.01214
0.985105
0.964323
0.949059
0.938314
0.931098
0.92655
0.924052
0.923106
1.10668
1.11698
1.11891
1.10619
1.0782
1.04321
1.00985
0.982542
0.961793
0.946694
0.936159
0.929152
0.924793
0.922456
0.921644
1.10944
1.12029
1.12203
1.10798
1.0781
1.04155
1.00738
0.979846
0.95917
0.944264
0.933959
0.927175
0.923013
0.920842
0.920167
1.11231
1.12374
1.12522
1.1097
1.07779
1.03965
1.00471
0.977015
0.956454
0.94177
0.931715
0.925167
0.921209
0.919209
0.918675
1.1153
1.12734
1.12849
1.11132
1.07726
1.03752
1.00186
0.974048
0.953647
0.939214
0.92943
0.923129
0.919384
0.917559
0.917169
1.1184
1.1311
1.13182
1.11282
1.07649
1.03512
0.9988
0.970947
0.95075
0.936598
0.927103
0.921062
0.917536
0.915891
0.915649
1.12164
1.13503
1.13521
1.11417
1.07544
1.03245
0.99554
0.967712
0.947765
0.933924
0.924737
0.918968
0.915669
0.914208
0.914115
1.12502
1.13914
1.13863
1.11535
1.07409
1.0295
0.992075
0.964344
0.944694
0.931192
0.922333
0.916848
0.913782
0.912509
0.912568
1.12855
1.14344
1.14209
1.11633
1.07241
1.02624
0.988403
0.960845
0.94154
0.928407
0.919895
0.914703
0.911876
0.910795
0.911008
1.13224
1.14793
1.14555
1.11707
1.07038
1.02268
0.984524
0.957219
0.938305
0.925571
0.917422
0.912534
0.909953
0.909067
0.909436
1.13611
1.15262
1.149
1.11752
1.06796
1.01879
0.980439
0.953471
0.934994
0.922686
0.914919
0.910345
0.908014
0.907326
0.907852
1.14017
1.15752
1.15241
1.11765
1.06512
1.01457
0.976152
0.949604
0.93161
0.919755
0.912386
0.908135
0.90606
0.905573
0.906257
1.14444
1.16262
1.15574
1.11741
1.06183
1.01002
0.971668
0.945625
0.928158
0.916783
0.909828
0.905907
0.904093
0.903808
0.904651
1.14894
1.16794
1.15895
1.11675
1.05806
1.00512
0.966993
0.94154
0.924643
0.913772
0.907246
0.903664
0.902113
0.902031
0.903034
1.15368
1.17347
1.16201
1.11561
1.05379
0.999882
0.962137
0.937357
0.921069
0.910728
0.904644
0.901406
0.900122
0.900246
0.901408
1.15869
1.1792
1.16485
1.11393
1.04899
0.994308
0.95711
0.933084
0.917443
0.907653
0.902023
0.899136
0.898121
0.898451
0.899773
1.164
1.18513
1.16741
1.11166
1.04363
0.988403
0.951927
0.92873
0.913771
0.904554
0.899389
0.896857
0.896113
0.896649
0.898129
1.16964
1.19124
1.16964
1.10873
1.03769
0.98218
0.946601
0.924304
0.910058
0.901433
0.896743
0.89457
0.894097
0.894839
0.896477
1.17564
1.1975
1.17144
1.10508
1.03117
0.975654
0.941149
0.919816
0.906312
0.898296
0.89409
0.892277
0.892077
0.893024
0.894817
1.18202
1.20389
1.17274
1.10064
1.02405
0.968849
0.93559
0.915277
0.902539
0.895148
0.891431
0.889982
0.890053
0.891204
0.893151
1.18884
1.21036
1.17342
1.09536
1.01634
0.961791
0.929943
0.910697
0.898746
0.891994
0.888773
0.887686
0.888028
0.88938
0.891477
1.19614
1.21685
1.1734
1.08916
1.00803
0.954511
0.924228
0.906085
0.89494
0.88884
0.886116
0.885392
0.886002
0.887553
0.889798
1.20394
1.2233
1.17255
1.08199
0.999166
0.947046
0.918467
0.901454
0.891129
0.88569
0.883466
0.883102
0.883978
0.885724
0.888113
1.21231
1.22961
1.17074
1.0738
0.989761
0.939439
0.91268
0.896813
0.887321
0.882551
0.880825
0.880819
0.881957
0.883894
0.886423
1.22129
1.23569
1.16784
1.06456
0.979864
0.931733
0.906888
0.892173
0.883523
0.879429
0.878199
0.878545
0.87994
0.882064
0.884727
1.23092
1.2414
1.16371
1.05423
0.969533
0.923978
0.901111
0.887544
0.879744
0.876328
0.87559
0.876284
0.87793
0.880235
0.883027
1.24126
1.2466
1.1582
1.04282
0.958839
0.916222
0.895367
0.882936
0.875992
0.873255
0.873003
0.874037
0.875928
0.878407
0.881323
1.25233
1.2511
1.15117
1.03032
0.94787
0.908515
0.889671
0.87836
0.872276
0.870216
0.87044
0.871808
0.873935
0.876581
0.879616
1.26417
1.25468
1.14245
1.01678
0.936724
0.900903
0.884039
0.873825
0.868605
0.867217
0.867908
0.869598
0.871954
0.874759
0.877904
1.2768
1.25711
1.13192
1.00227
0.925513
0.893431
0.878483
0.869341
0.864986
0.864264
0.865409
0.86741
0.869984
0.87294
0.87619
1.29022
1.25808
1.11943
0.986893
0.914354
0.886134
0.873012
0.864921
0.861432
0.861364
0.862947
0.865248
0.868029