1.45 	0 	0 	-0.295992
2.35 	0 	0 	-0.130714
