1.45 	0 	0 	-0.299204
2.35 	0 	0 	-0.13291
