/*--------------------------------*- C++ -*----------------------------------*\
  =========                 |
  \\      /  F ield         | OpenFOAM: The Open Source CFD Toolbox
   \\    /   O peration     | Website:  https://openfoam.org
    \\  /    A nd           | Version:  6.0
     \\/     M anipulation  |
\*---------------------------------------------------------------------------*/
FoamFile
{
    version     2.0;
    format      ascii;
    class       volScalarField;
    location    "64";
    object      p;
}
// * * * * * * * * * * * * * * * * * * * * * * * * * * * * * * * * * * * * * //

dimensions      [0 2 -2 0 0 0 0];

internalField   nonuniform List<scalar> 
2000
(
-0.348042
-0.353948
-0.355636
-0.354967
-0.353108
-0.350431
-0.347215
-0.343754
-0.340334
-0.336638
-0.35076
-0.356246
-0.357594
-0.356624
-0.354476
-0.351525
-0.348047
-0.344325
-0.34065
-0.336834
-0.356215
-0.360843
-0.3615
-0.35992
-0.357192
-0.353684
-0.349671
-0.345412
-0.341209
-0.337149
-0.364449
-0.367737
-0.367333
-0.364826
-0.361216
-0.356863
-0.352026
-0.346923
-0.341873
-0.337423
-0.375522
-0.376927
-0.375062
-0.371303
-0.366508
-0.361013
-0.355044
-0.348743
-0.342444
-0.3374
-0.389497
-0.388398
-0.384647
-0.37931
-0.373036
-0.36611
-0.358692
-0.350787
-0.342711
-0.336752
-0.406407
-0.402107
-0.396029
-0.388805
-0.380793
-0.372194
-0.363064
-0.353173
-0.342675
-0.335218
-0.426199
-0.417957
-0.409116
-0.399729
-0.389766
-0.37931
-0.368276
-0.356034
-0.342091
-0.331648
-0.448658
-0.435773
-0.423793
-0.412039
-0.399994
-0.38755
-0.37431
-0.358749
-0.338664
-0.321353
-0.473351
-0.455292
-0.43996
-0.425885
-0.412099
-0.398403
-0.384039
-0.366374
-0.341335
-0.317358
-0.499592
-0.476087
-0.457348
-0.441178
-0.42645
-0.413538
-0.402783
-0.394826
-0.394964
-0.414497
-0.526555
-0.497581
-0.47534
-0.456809
-0.440472
-0.42679
-0.416237
-0.409873
-0.412829
-0.430101
-0.553518
-0.519316
-0.493663
-0.472661
-0.454297
-0.438935
-0.426942
-0.419037
-0.418328
-0.426146
-0.579833
-0.54082
-0.512004
-0.48856
-0.467924
-0.45028
-0.435789
-0.424704
-0.418501
-0.417164
-0.60475
-0.561427
-0.529739
-0.503862
-0.48065
-0.460084
-0.442126
-0.426651
-0.414081
-0.404454
-0.62728
-0.580202
-0.545924
-0.517562
-0.491419
-0.467346
-0.445219
-0.42473
-0.405709
-0.388921
-0.64614
-0.595934
-0.559329
-0.528374
-0.498943
-0.470892
-0.444184
-0.418514
-0.393462
-0.370809
-0.659769
-0.60717
-0.56849
-0.534818
-0.501794
-0.469468
-0.438054
-0.4074
-0.377055
-0.34988
-0.666406
-0.61227
-0.571788
-0.535298
-0.498496
-0.461816
-0.425865
-0.390724
-0.356024
-0.325636
-0.664184
-0.609496
-0.567526
-0.528204
-0.487617
-0.446766
-0.406732
-0.367848
-0.329855
-0.297489
-0.651247
-0.597105
-0.554035
-0.512008
-0.467866
-0.423313
-0.379926
-0.338246
-0.298101
-0.264905
-0.625861
-0.573456
-0.529779
-0.485371
-0.438183
-0.390698
-0.34494
-0.301581
-0.260473
-0.227513
-0.586552
-0.537142
-0.493479
-0.447255
-0.397833
-0.348471
-0.301549
-0.257759
-0.216908
-0.185176
-0.532223
-0.487103
-0.444225
-0.397009
-0.346459
-0.296534
-0.249831
-0.206961
-0.16761
-0.138037
-0.462272
-0.422741
-0.381568
-0.334435
-0.284118
-0.235138
-0.190163
-0.149636
-0.113054
-0.0865225
-0.376695
-0.344022
-0.305602
-0.259826
-0.21127
-0.164844
-0.123147
-0.0864028
-0.0538764
-0.031256
-0.276182
-0.251551
-0.217007
-0.173978
-0.128773
-0.0864941
-0.0495528
-0.0179609
0.0092025
0.0269354
-0.162171
-0.146615
-0.117069
-0.0781837
-0.0378624
-0.00122903
0.0295612
0.0545716
0.0746409
0.0860219
-0.0368729
-0.0311869
-0.0076381
0.0258864
0.060077
0.0898985
0.113337
0.129982
0.139915
0.142286
0.0967571
0.0920913
0.108873
0.136201
0.163723
0.186712
0.2032
0.211567
0.210532
0.203803
0.235143
0.219954
0.22936
0.249867
0.270617
0.287731
0.299935
0.305417
0.30437
0.318288
0.374391
0.348756
0.350211
0.363031
0.376051
0.386025
0.392078
0.39332
0.392242
0.405165
0.510555
0.474826
0.468018
0.47257
0.477223
0.479302
0.478239
0.473618
0.467925
0.473028
0.639791
0.594554
0.579489
0.575587
0.571688
0.5657
0.557364
0.54653
0.535272
0.53243
0.758435
0.704502
0.681529
0.66942
0.657254
0.643506
0.628195
0.611358
0.594688
0.584741
0.863103
0.801502
0.77132
0.751676
0.731967
0.711191
0.689604
0.667392
0.645877
0.629721
0.950778
0.882747
0.846374
0.820239
0.794076
0.767327
0.740448
0.713737
0.688162
0.666803
1.01891
0.945869
0.904599
0.873324
0.842078
0.810652
0.779656
0.749468
0.720748
0.695332
1.06548
0.989016
0.944357
0.909525
0.874777
0.840141
0.806333
0.773782
0.742917
0.714716
1.08912
1.01091
0.964523
0.927874
0.891339
0.855073
0.819838
0.786093
0.754141
0.724522
1.08912
1.01091
0.964523
0.927874
0.891339
0.855073
0.819838
0.786093
0.754141
0.724522
1.06548
0.989016
0.944357
0.909525
0.874777
0.840141
0.806333
0.773782
0.742917
0.714716
1.01891
0.945869
0.904599
0.873324
0.842078
0.810652
0.779656
0.749468
0.720748
0.695333
0.950778
0.882747
0.846375
0.820239
0.794077
0.767327
0.740448
0.713737
0.688162
0.666804
0.863103
0.801502
0.77132
0.751676
0.731968
0.711191
0.689604
0.667392
0.645877
0.629721
0.758435
0.704502
0.681529
0.66942
0.657255
0.643506
0.628195
0.611358
0.594688
0.584741
0.639791
0.594554
0.579489
0.575587
0.571688
0.5657
0.557364
0.54653
0.535272
0.53243
0.510555
0.474826
0.468018
0.47257
0.477223
0.479302
0.478239
0.473618
0.467925
0.473028
0.374391
0.348756
0.350212
0.363031
0.376051
0.386025
0.392078
0.39332
0.392242
0.405166
0.235144
0.219954
0.22936
0.249868
0.270618
0.287731
0.299936
0.305417
0.30437
0.318288
0.0967573
0.0920915
0.108873
0.136202
0.163723
0.186713
0.2032
0.211567
0.210533
0.203804
-0.0368727
-0.0311867
-0.00763791
0.0258866
0.0600772
0.0898987
0.113337
0.129982
0.139916
0.142287
-0.162171
-0.146615
-0.117069
-0.0781834
-0.0378622
-0.00122884
0.0295614
0.0545718
0.0746411
0.086022
-0.276182
-0.251551
-0.217007
-0.173978
-0.128773
-0.0864939
-0.0495526
-0.0179607
0.00920269
0.0269356
-0.376695
-0.344022
-0.305602
-0.259825
-0.21127
-0.164844
-0.123146
-0.0864026
-0.0538761
-0.0312558
-0.462271
-0.422741
-0.381568
-0.334435
-0.284118
-0.235138
-0.190163
-0.149636
-0.113054
-0.0865223
-0.532223
-0.487102
-0.444225
-0.397009
-0.346459
-0.296534
-0.24983
-0.20696
-0.16761
-0.138037
-0.586552
-0.537141
-0.493479
-0.447255
-0.397833
-0.348471
-0.301548
-0.257759
-0.216908
-0.185176
-0.62586
-0.573455
-0.529779
-0.485371
-0.438183
-0.390697
-0.34494
-0.301581
-0.260473
-0.227512
-0.651247
-0.597104
-0.554035
-0.512008
-0.467865
-0.423313
-0.379926
-0.338246
-0.298101
-0.264905
-0.664183
-0.609496
-0.567526
-0.528204
-0.487617
-0.446766
-0.406732
-0.367848
-0.329855
-0.297489
-0.666406
-0.61227
-0.571787
-0.535298
-0.498496
-0.461816
-0.425865
-0.390724
-0.356023
-0.325636
-0.659769
-0.60717
-0.56849
-0.534817
-0.501794
-0.469467
-0.438054
-0.4074
-0.377054
-0.349879
-0.646139
-0.595934
-0.559328
-0.528374
-0.498943
-0.470892
-0.444184
-0.418513
-0.393461
-0.370808
-0.62728
-0.580201
-0.545924
-0.517562
-0.491418
-0.467345
-0.445219
-0.424729
-0.405708
-0.38892
-0.604749
-0.561427
-0.529739
-0.503862
-0.480649
-0.460084
-0.442126
-0.426651
-0.414081
-0.404454
-0.579832
-0.54082
-0.512004
-0.48856
-0.467923
-0.45028
-0.435788
-0.424703
-0.418501
-0.417164
-0.553518
-0.519316
-0.493663
-0.472661
-0.454296
-0.438935
-0.426941
-0.419036
-0.418328
-0.426146
-0.526554
-0.497581
-0.47534
-0.456809
-0.440472
-0.42679
-0.416237
-0.409873
-0.412829
-0.4301
-0.499591
-0.476087
-0.457348
-0.441177
-0.426449
-0.413537
-0.402782
-0.394826
-0.394963
-0.414496
-0.473351
-0.455291
-0.439959
-0.425885
-0.412099
-0.398403
-0.384039
-0.366374
-0.341334
-0.317357
-0.448658
-0.435773
-0.423792
-0.412039
-0.399994
-0.38755
-0.37431
-0.358749
-0.338664
-0.321353
-0.426198
-0.417957
-0.409116
-0.399729
-0.389766
-0.37931
-0.368275
-0.356033
-0.34209
-0.331648
-0.406407
-0.402107
-0.396028
-0.388805
-0.380793
-0.372194
-0.363064
-0.353173
-0.342674
-0.335218
-0.389496
-0.388398
-0.384646
-0.37931
-0.373036
-0.36611
-0.358692
-0.350787
-0.342711
-0.336751
-0.375522
-0.376927
-0.375061
-0.371303
-0.366508
-0.361013
-0.355044
-0.348743
-0.342443
-0.3374
-0.364449
-0.367737
-0.367332
-0.364826
-0.361216
-0.356863
-0.352026
-0.346923
-0.341873
-0.337423
-0.356215
-0.360843
-0.3615
-0.35992
-0.357191
-0.353684
-0.349671
-0.345412
-0.341209
-0.337149
-0.35076
-0.356246
-0.357594
-0.356624
-0.354476
-0.351525
-0.348047
-0.344325
-0.34065
-0.336834
-0.348042
-0.353948
-0.355636
-0.354967
-0.353108
-0.350431
-0.347215
-0.343754
-0.340334
-0.336638
-0.290429
-0.126294
-0.0812218
-0.0303209
-0.019216
-0.00778242
-0.00434275
-0.000872546
-0.000455561
0.00217197
-0.291659
-0.126842
-0.0814921
-0.0305194
-0.0192839
-0.00784213
-0.00437243
-0.000893312
-0.000464735
0.00215612
-0.29405
-0.127923
-0.0820275
-0.0309176
-0.0194194
-0.00796131
-0.0044316
-0.000934833
-0.000482915
0.0021246
-0.297461
-0.129514
-0.0828166
-0.0315177
-0.0196224
-0.0081395
-0.00452013
-0.000996949
-0.000509982
0.00207772
-0.301647
-0.13157
-0.0838331
-0.0323178
-0.0198907
-0.00837531
-0.00463752
-0.00107946
-0.000545657
0.00201593
-0.306251
-0.134016
-0.0850278
-0.0333043
-0.0202185
-0.00866518
-0.00478255
-0.00118183
-0.000589586
0.00193989
-0.311143
-0.136921
-0.0864059
-0.0344723
-0.0206065
-0.00900634
-0.00495468
-0.00130311
-0.000641971
0.00185116
-0.316845
-0.140936
-0.0882303
-0.0359227
-0.021098
-0.00941225
-0.00515996
-0.00144363
-0.00070435
0.00175253
-0.321622
-0.146442
-0.0906792
-0.0378205
-0.0217436
-0.00990997
-0.00540754
-0.00160876
-0.000775139
0.00164142
-0.313818
-0.148817
-0.0917902
-0.0395219
-0.0222458
-0.0104019
-0.00565227
-0.00179975
-0.000834808
0.00149487
-0.247286
-0.140718
-0.08817
-0.0427767
-0.0227443
-0.0117337
-0.00636882
-0.00253952
-0.00100056
0.000841651
-0.189192
-0.131709
-0.0821681
-0.0442356
-0.0244777
-0.0141262
-0.00821774
-0.00402302
-0.00176233
-5.86149e-07
-0.147776
-0.11385
-0.0727395
-0.0428053
-0.0259036
-0.0163324
-0.010153
-0.00561459
-0.00269711
-0.000680777
-0.108184
-0.0929487
-0.0633197
-0.0408366
-0.0269534
-0.0181277
-0.0118279
-0.00704973
-0.00358818
-0.00115199
-0.0789462
-0.0756762
-0.0565195
-0.0395817
-0.0277777
-0.0194732
-0.0131404
-0.00820381
-0.00433571
-0.00145066
-0.0588548
-0.062829
-0.0515594
-0.0385822
-0.0281891
-0.0203204
-0.0140673
-0.0090582
-0.00491408
-0.00164432
-0.0458295
-0.0535679
-0.0476976
-0.0376121
-0.0282773
-0.0208018
-0.0146912
-0.00966642
-0.00534269
-0.001781
-0.0375853
-0.0471086
-0.0447355
-0.0367592
-0.0282325
-0.0210716
-0.0150994
-0.0100834
-0.00564541
-0.00187982
-0.0327635
-0.0430078
-0.042728
-0.0361562
-0.0281763
-0.021218
-0.0153443
-0.0103428
-0.00583837
-0.00194441
-0.0305331
-0.0410063
-0.041717
-0.0358592
-0.0281525
-0.0212829
-0.0154575
-0.0104647
-0.00593273
-0.00197468
-0.218585
-0.246482
-0.272261
-0.296205
-0.318699
-0.340249
-0.361473
-0.383017
-0.405383
-0.429225
-0.0679401
-0.0780827
-0.0872473
-0.0956773
-0.10368
-0.111635
-0.120001
-0.129318
-0.140164
-0.154331
-0.0451691
-0.054351
-0.0631472
-0.0715311
-0.0794652
-0.0869045
-0.0938058
-0.100142
-0.10591
-0.111231
-0.018746
-0.0244661
-0.0299798
-0.0353061
-0.0404669
-0.0454855
-0.050385
-0.0551876
-0.0598932
-0.0643811
-0.0130369
-0.0173928
-0.0216242
-0.0257274
-0.0296988
-0.0335344
-0.0372305
-0.0407842
-0.0441761
-0.0473745
-0.0079826
-0.0111999
-0.0143579
-0.0174555
-0.0204921
-0.0234673
-0.0263806
-0.0292304
-0.0320053
-0.0347086
-0.00685906
-0.00939598
-0.0118966
-0.0143569
-0.0167733
-0.0191426
-0.0214625
-0.0237303
-0.02594
-0.028105
-0.00605813
-0.00811606
-0.0101575
-0.0121783
-0.0141748
-0.0161435
-0.0180814
-0.0199854
-0.0218522
-0.0236891
-0.00597056
-0.00774526
-0.00951204
-0.0112664
-0.0130041
-0.0147213
-0.0164144
-0.0180803
-0.0197167
-0.0213251
-0.00591458
-0.00754058
-0.00916397
-0.010781
-0.0123882
-0.0139821
-0.0155597
-0.017118
-0.0186558
-0.020171
0.168014
0.127028
0.0816794
0.0386103
-0.00312818
-0.0440073
-0.0834105
-0.120756
-0.155774
-0.188381
0.117545
0.0916301
0.0648382
0.0419994
0.0218792
0.00320546
-0.0141049
-0.029841
-0.0439761
-0.0566256
0.0734248
0.0577268
0.0427737
0.0298616
0.0180103
0.00654361
-0.00460936
-0.0153607
-0.0256872
-0.0356155
0.0531689
0.0440959
0.0354669
0.0277564
0.0204901
0.0133975
0.00648086
-0.000201084
-0.00662707
-0.0128042
0.0376321
0.0316808
0.0259406
0.0206499
0.0155596
0.0105385
0.0055935
0.00075584
-0.00396192
-0.00855935
0.0273706
0.0234816
0.0196364
0.0159986
0.012456
0.00894068
0.00545393
0.00201252
-0.0013752
-0.00470723
0.019668
0.0169395
0.0141843
0.0115077
0.00886165
0.00621328
0.00356437
0.000926085
-0.0016937
-0.00429017
0.0144876
0.0124925
0.0104472
0.0084141
0.00637661
0.00432112
0.00225
0.000170766
-0.00191021
-0.00398802
0.011157
0.00956204
0.00791809
0.00625436
0.00456606
0.00285007
0.00111027
-0.000647199
-0.00241658
-0.00419269
0.00956086
0.00814024
0.00667628
0.00518322
0.00366045
0.00210902
0.000533268
-0.00106165
-0.00267089
-0.00428997
0.33543
0.334729
0.33318
0.330306
0.325322
0.31699
0.303541
0.28258
0.251473
0.206856
0.245532
0.244415
0.24178
0.237195
0.230325
0.220739
0.207868
0.191053
0.169545
0.14279
0.174701
0.173572
0.170905
0.16638
0.15989
0.151327
0.1405
0.127197
0.111008
0.0920217
0.123091
0.122206
0.120103
0.116541
0.111501
0.10501
0.09706
0.0876618
0.0767369
0.0646207
0.0867574
0.0861129
0.0845739
0.0819609
0.0782809
0.0735865
0.0679118
0.0612949
0.0537162
0.0453844
0.0615783
0.0611149
0.0600063
0.0581242
0.0554817
0.05213
0.0481108
0.0434682
0.0382196
0.0325114
0.044427
0.0440884
0.0432783
0.041903
0.0399742
0.0375323
0.0346108
0.0312426
0.027447
0.0233082
0.0331414
0.0328846
0.0322701
0.031227
0.0297648
0.0279147
0.0257037
0.0231568
0.0202944
0.0171685
0.0263057
0.0260972
0.0255985
0.0247521
0.0235654
0.0220634
0.0202675
0.0181964
0.015868
0.0133137
0.0230853
0.0228988
0.0224536
0.0216985
0.0206397
0.0192992
0.0176958
0.0158457
0.0137657
0.0114785
0.485404
0.487157
0.49349
0.504636
0.520487
0.541347
0.567681
0.600014
0.638881
0.684529
0.483163
0.48489
0.491143
0.502133
0.517736
0.538218
0.563988
0.595482
0.633102
0.676936
0.478732
0.480414
0.486514
0.497201
0.512318
0.53206
0.556719
0.58656
0.62171
0.66196
0.472212
0.473839
0.479729
0.489985
0.504401
0.523067
0.546104
0.573522
0.605029
0.640006
0.463742
0.465319
0.470959
0.480679
0.49421
0.511506
0.532466
0.556756
0.583522
0.611661
0.453489
0.455038
0.460412
0.469513
0.482004
0.497677
0.516164
0.53671
0.557762
0.577662
0.44165
0.443239
0.448366
0.456805
0.468144
0.48199
0.497668
0.513925
0.528423
0.538874
0.428431
0.430246
0.435262
0.443111
0.453326
0.465295
0.477964
0.489445
0.496509
0.496093
0.413902
0.416193
0.421287
0.428673
0.437869
0.448041
0.457692
0.464103
0.462892
0.448813
0.3977
0.400135
0.404802
0.411059
0.418438
0.425989
0.431937
0.433061
0.424595
0.396892
0.3977
0.400135
0.404802
0.411059
0.418439
0.425989
0.431937
0.433061
0.424595
0.396892
0.413902
0.416193
0.421287
0.428673
0.437869
0.448041
0.457692
0.464103
0.462892
0.448813
0.428431
0.430246
0.435262
0.443111
0.453326
0.465295
0.477964
0.489445
0.496509
0.496093
0.44165
0.443239
0.448366
0.456805
0.468145
0.48199
0.497668
0.513925
0.528424
0.538874
0.453489
0.455038
0.460412
0.469513
0.482004
0.497677
0.516164
0.53671
0.557762
0.577662
0.463742
0.465319
0.470959
0.480679
0.49421
0.511506
0.532466
0.556756
0.583522
0.611661
0.472212
0.473839
0.479729
0.489985
0.504401
0.523067
0.546104
0.573522
0.605029
0.640006
0.478732
0.480414
0.486514
0.497201
0.512318
0.53206
0.556719
0.58656
0.62171
0.66196
0.483163
0.48489
0.491143
0.502133
0.517736
0.538218
0.563988
0.595482
0.633102
0.676936
0.485404
0.487157
0.49349
0.504636
0.520487
0.541347
0.567681
0.600014
0.638881
0.684529
0.0230854
0.0228989
0.0224536
0.0216986
0.0206398
0.0192993
0.0176959
0.0158458
0.0137658
0.0114786
0.0263058
0.0260973
0.0255986
0.0247522
0.0235655
0.0220635
0.0202676
0.0181965
0.0158681
0.0133138
0.0331415
0.0328847
0.0322702
0.0312271
0.0297649
0.0279148
0.0257038
0.0231569
0.0202945
0.0171686
0.0444271
0.0440885
0.0432784
0.0419031
0.0399743
0.0375324
0.0346109
0.0312427
0.0274471
0.0233083
0.0615784
0.061115
0.0600064
0.0581243
0.0554818
0.0521301
0.048111
0.0434683
0.0382197
0.0325115
0.0867575
0.086113
0.084574
0.081961
0.078281
0.0735866
0.0679119
0.061295
0.0537163
0.0453845
0.123091
0.122206
0.120103
0.116541
0.111501
0.10501
0.0970602
0.0876619
0.0767371
0.0646208
0.174701
0.173572
0.170905
0.16638
0.15989
0.151327
0.1405
0.127197
0.111008
0.0920218
0.245532
0.244415
0.24178
0.237195
0.230325
0.22074
0.207868
0.191053
0.169545
0.14279
0.33543
0.33473
0.33318
0.330306
0.325322
0.316991
0.303541
0.28258
0.251473
0.206856
0.00956096
0.00814033
0.00667637
0.00518331
0.00366054
0.00210912
0.000533358
-0.00106156
-0.0026708
-0.00428988
0.0111571
0.00956213
0.00791818
0.00625445
0.00456615
0.00285016
0.00111036
-0.000647107
-0.00241649
-0.0041926
0.0144877
0.0124926
0.0104473
0.0084142
0.00637671
0.00432122
0.00225009
0.000170861
-0.00191012
-0.00398793
0.0196681
0.0169396
0.0141844
0.0115078
0.00886175
0.00621338
0.00356447
0.000926184
-0.0016936
-0.00429007
0.0273707
0.0234817
0.0196365
0.0159987
0.0124561
0.00894079
0.00545403
0.00201263
-0.0013751
-0.00470713
0.0376322
0.0316809
0.0259407
0.02065
0.0155597
0.0105387
0.00559361
0.000755954
-0.00396181
-0.00855924
0.053169
0.044096
0.035467
0.0277565
0.0204902
0.0133976
0.00648098
-0.000200959
-0.00662694
-0.0128041
0.0734249
0.0577269
0.0427739
0.0298617
0.0180104
0.00654375
-0.00460921
-0.0153605
-0.025687
-0.0356154
0.117545
0.0916302
0.0648384
0.0419996
0.0218794
0.00320561
-0.0141048
-0.0298408
-0.0439759
-0.0566254
0.168015
0.127028
0.0816796
0.0386104
-0.00312799
-0.0440071
-0.0834103
-0.120755
-0.155774
-0.188381
-0.00591449
-0.00754049
-0.00916389
-0.0107809
-0.0123881
-0.013982
-0.0155596
-0.017118
-0.0186557
-0.0201709
-0.00597047
-0.00774517
-0.00951196
-0.0112663
-0.013004
-0.0147212
-0.0164143
-0.0180802
-0.0197167
-0.0213251
-0.00605804
-0.00811597
-0.0101574
-0.0121782
-0.0141747
-0.0161434
-0.0180813
-0.0199853
-0.0218521
-0.023689
-0.00685897
-0.00939589
-0.0118965
-0.0143568
-0.0167732
-0.0191425
-0.0214624
-0.0237302
-0.0259399
-0.028105
-0.0079825
-0.0111998
-0.0143578
-0.0174554
-0.020492
-0.0234672
-0.0263805
-0.0292303
-0.0320052
-0.0347085
-0.0130368
-0.0173927
-0.0216241
-0.0257273
-0.0296987
-0.0335342
-0.0372304
-0.0407841
-0.0441759
-0.0473744
-0.0187459
-0.024466
-0.0299797
-0.035306
-0.0404667
-0.0454853
-0.0503849
-0.0551875
-0.0598931
-0.064381
-0.045169
-0.0543508
-0.063147
-0.0715309
-0.079465
-0.0869044
-0.0938057
-0.100142
-0.10591
-0.111231
-0.0679399
-0.0780825
-0.0872472
-0.0956771
-0.10368
-0.111635
-0.120001
-0.129318
-0.140164
-0.154331
-0.218585
-0.246482
-0.272261
-0.296205
-0.318699
-0.340248
-0.361473
-0.383017
-0.405383
-0.429225
-0.030533
-0.0410062
-0.0417169
-0.0358592
-0.0281524
-0.0212827
-0.0154572
-0.0104645
-0.00593255
-0.0019746
-0.0327635
-0.0430077
-0.042728
-0.0361561
-0.0281762
-0.0212178
-0.0153441
-0.0103425
-0.00583818
-0.00194433
-0.0375852
-0.0471086
-0.0447355
-0.0367591
-0.0282324
-0.0210714
-0.0150992
-0.0100831
-0.0056452
-0.00187973
-0.0458295
-0.0535679
-0.0476976
-0.0376121
-0.0282772
-0.0208016
-0.0146909
-0.0096661
-0.00534244
-0.00178091
-0.0588547
-0.062829
-0.0515594
-0.0385823
-0.0281891
-0.0203201
-0.014067
-0.0090578
-0.00491379
-0.00164423
-0.0789461
-0.0756762
-0.0565195
-0.0395818
-0.0277777
-0.0194729
-0.01314
-0.0082033
-0.00433535
-0.0014506
-0.108184
-0.0929488
-0.0633199
-0.0408369
-0.0269534
-0.0181274
-0.0118274
-0.00704905
-0.00358775
-0.00115197
-0.147776
-0.11385
-0.0727397
-0.0428058
-0.0259036
-0.0163319
-0.0101523
-0.00561367
-0.0026966
-0.000680845
-0.189192
-0.131709
-0.0821685
-0.0442362
-0.0244778
-0.0141257
-0.0082169
-0.00402179
-0.00176174
-7.75537e-07
-0.247286
-0.140718
-0.0881705
-0.0427776
-0.0227446
-0.0117333
-0.00636784
-0.00253801
-0.000999917
0.000841329
-0.313817
-0.148817
-0.0917907
-0.0395227
-0.0222461
-0.0104016
-0.00565141
-0.00179834
-0.000834238
0.00149451
-0.321622
-0.146442
-0.0906796
-0.0378213
-0.0217438
-0.00990963
-0.00540674
-0.00160745
-0.000774613
0.00164109
-0.316845
-0.140936
-0.0882307
-0.0359233
-0.0210982
-0.00941195
-0.00515923
-0.00144248
-0.000703883
0.00175223
-0.311143
-0.136921
-0.0864063
-0.0344729
-0.0206067
-0.00900607
-0.00495404
-0.00130213
-0.00064156
0.0018509
-0.30625
-0.134016
-0.0850281
-0.0333048
-0.0202186
-0.00866494
-0.00478199
-0.00118102
-0.000589229
0.00193967
-0.301647
-0.13157
-0.0838334
-0.0323183
-0.0198908
-0.00837511
-0.00463704
-0.00107882
-0.000545353
0.00201575
-0.297461
-0.129514
-0.0828169
-0.0315181
-0.0196225
-0.00813933
-0.00451974
-0.000996474
-0.000509731
0.00207758
-0.29405
-0.127923
-0.0820277
-0.0309179
-0.0194195
-0.00796118
-0.0044313
-0.00093453
-0.000482716
0.0021245
-0.291659
-0.126842
-0.0814923
-0.0305195
-0.0192839
-0.00784205
-0.00437222
-0.000893181
-0.000464588
0.00215607
-0.290429
-0.126294
-0.0812218
-0.0303209
-0.019216
-0.00778239
-0.00434267
-0.000872523
-0.000455502
0.00217195
)
;

boundaryField
{
    inlet
    {
        type            zeroGradient;
    }
    outlet
    {
        type            fixedValue;
        value           uniform 0;
    }
    cylinder
    {
        type            zeroGradient;
    }
    top
    {
        type            symmetryPlane;
    }
    bottom
    {
        type            symmetryPlane;
    }
    defaultFaces
    {
        type            empty;
    }
}


// ************************************************************************* //
