/*--------------------------------*- C++ -*----------------------------------*\
  =========                 |
  \\      /  F ield         | OpenFOAM: The Open Source CFD Toolbox
   \\    /   O peration     | Website:  https://openfoam.org
    \\  /    A nd           | Version:  6.0
     \\/     M anipulation  |
\*---------------------------------------------------------------------------*/
FoamFile
{
    version     2.0;
    format      ascii;
    class       surfaceScalarField;
    location    "0.5";
    object      phi;
}
// * * * * * * * * * * * * * * * * * * * * * * * * * * * * * * * * * * * * * //

dimensions      [0 3 -1 0 0 0 0];

internalField   nonuniform List<scalar> 
370
(
2.76104e-08
-2.76113e-08
-5.70815e-08
8.4692e-08
-2.24203e-07
1.67122e-07
-4.35227e-07
2.11024e-07
-6.83592e-07
2.48365e-07
-9.84913e-07
3.01321e-07
-1.36786e-06
3.82948e-07
-1.86931e-06
5.01446e-07
-2.52835e-06
6.59049e-07
-3.37277e-06
8.44415e-07
-4.39274e-06
1.01997e-06
-5.50447e-06
1.11173e-06
-6.51979e-06
1.01532e-06
-7.14937e-06
6.29578e-07
-7.06494e-06
-8.44246e-08
-6.0307e-06
-1.03425e-06
-4.09575e-06
-1.93495e-06
-1.79731e-06
-2.29843e-06
-1.71248e-07
-1.62607e-06
-1.71248e-07
-1.25106e-07
9.7495e-08
-5.0436e-07
4.63947e-07
-1.05041e-06
7.13177e-07
-1.70554e-06
8.66149e-07
-2.4657e-06
1.00853e-06
-3.36324e-06
1.19886e-06
-4.44758e-06
1.46729e-06
-5.76609e-06
1.81995e-06
-7.33888e-06
2.23184e-06
-9.1257e-06
2.63123e-06
-1.09937e-05
2.88796e-06
-1.27052e-05
2.82327e-06
-1.39414e-05
2.2515e-06
-1.43567e-05
1.04492e-06
-1.3646e-05
-7.95158e-07
-1.16238e-05
-3.05644e-06
-8.36073e-06
-5.19804e-06
-4.4254e-06
-6.23377e-06
-1.11455e-06
-4.93692e-06
-1.28579e-06
-3.44787e-07
4.42282e-07
-1.0903e-06
1.20946e-06
-2.03663e-06
1.6595e-06
-3.09874e-06
1.92826e-06
-4.27038e-06
2.18017e-06
-5.58196e-06
2.51044e-06
-7.06987e-06
2.9552e-06
-8.74993e-06
3.50001e-06
-1.05914e-05
4.07334e-06
-1.24975e-05
4.53734e-06
-1.43031e-05
4.69352e-06
-1.57955e-05
4.31569e-06
-1.67488e-05
3.20475e-06
-1.69478e-05
1.24393e-06
-1.61878e-05
-1.55513e-06
-1.42659e-05
-4.97837e-06
-1.10345e-05
-8.42943e-06
-6.64671e-06
-1.06215e-05
-2.13479e-06
-9.44884e-06
-3.42059e-06
-5.89176e-07
1.03146e-06
-1.70698e-06
2.32726e-06
-2.9987e-06
2.95122e-06
-4.33425e-06
3.26381e-06
-5.69347e-06
3.53939e-06
-7.09172e-06
3.90869e-06
-8.54404e-06
4.40752e-06
-1.00442e-05
5.0002e-06
-1.15521e-05
5.58119e-06
-1.29924e-05
5.97771e-06
-1.42689e-05
5.96998e-06
-1.52852e-05
5.33199e-06
-1.59574e-05
3.87699e-06
-1.61999e-05
1.4864e-06
-1.588e-05
-1.87505e-06
-1.4755e-05
-6.10341e-06
-1.24365e-05
-1.07479e-05
-8.5328e-06
-1.45252e-05
-3.39152e-06
-1.45901e-05
-6.81211e-06
-8.52892e-07
1.88435e-06
-2.30537e-06
3.77974e-06
-3.81873e-06
4.46458e-06
-5.21959e-06
4.66467e-06
-6.4802e-06
4.8e-06
-7.60913e-06
5.03762e-06
-8.61791e-06
5.4163e-06
-9.51044e-06
5.89273e-06
-1.02811e-05
6.35186e-06
-1.09214e-05
6.61798e-06
-1.14326e-05
6.48121e-06
-1.18361e-05
5.73547e-06
-1.21678e-05
4.20872e-06
-1.24501e-05
1.76865e-06
-1.26383e-05
-1.68679e-06
-1.25368e-05
-6.20497e-06
-1.1669e-05
-1.16156e-05
-9.20508e-06
-1.69892e-05
-4.53629e-06
-1.92589e-05
-1.13484e-05
-1.1662e-06
3.05055e-06
-2.89722e-06
5.51076e-06
-4.45126e-06
6.01862e-06
-5.66484e-06
5.87826e-06
-6.54411e-06
5.67927e-06
-7.11772e-06
5.61123e-06
-7.41545e-06
5.71403e-06
-7.46967e-06
5.94696e-06
-7.32111e-06
6.2033e-06
-7.02699e-06
6.32386e-06
-6.66823e-06
6.12246e-06
-6.34986e-06
5.41709e-06
-6.19075e-06
4.04961e-06
-6.30163e-06
1.87953e-06
-6.74876e-06
-1.23966e-06
-7.47734e-06
-5.47639e-06
-8.13218e-06
-1.09608e-05
-7.7432e-06
-1.73782e-05
-4.8428e-06
-2.21593e-05
-1.61912e-05
-1.61992e-06
4.67047e-06
-3.53185e-06
7.42268e-06
-4.81434e-06
7.30112e-06
-5.49239e-06
6.5563e-06
-5.69419e-06
5.88106e-06
-5.50223e-06
5.41928e-06
-4.9708e-06
5.1826e-06
-4.15063e-06
5.12679e-06
-3.1064e-06
5.15907e-06
-1.9291e-06
5.14656e-06
-7.41698e-07
4.93505e-06
3.04594e-07
4.3708e-06
1.04017e-06
3.31403e-06
1.28969e-06
1.63002e-06
8.8548e-07
-8.35458e-07
-2.87556e-07
-4.30336e-06
-2.14462e-06
-9.10373e-06
-3.92818e-06
-1.55946e-05
-3.70755e-06
-2.23799e-05
-1.98988e-05
-2.414e-06
7.08447e-06
-4.0369e-06
9.04559e-06
-4.24481e-06
7.50902e-06
-3.7054e-06
6.0169e-06
-2.78839e-06
4.96405e-06
-1.61416e-06
4.24504e-06
-2.19256e-07
3.7877e-06
1.37232e-06
3.53522e-06
3.12173e-06
3.40965e-06
4.95687e-06
3.31141e-06
6.76216e-06
3.12977e-06
8.37979e-06
2.75317e-06
9.61554e-06
2.07828e-06
1.02448e-05
1.00071e-06
1.00109e-05
-6.01484e-07
8.64124e-06
-2.93372e-06
5.91271e-06
-6.3752e-06
2.08793e-06
-1.17698e-05
-9.43102e-07
-1.93489e-05
-2.08419e-05
-3.49095e-06
1.05754e-05
-1.9795e-06
7.53414e-06
9.46988e-07
4.58254e-06
3.63851e-06
3.32537e-06
6.02445e-06
2.57811e-06
8.22347e-06
2.04602e-06
1.03182e-05
1.69293e-06
1.23713e-05
1.48216e-06
1.44194e-05
1.36155e-06
1.64545e-05
1.2763e-06
1.84114e-05
1.17286e-06
2.01658e-05
9.98799e-07
2.15365e-05
7.07547e-07
2.22846e-05
2.52604e-07
2.20978e-05
-4.14609e-07
2.05636e-05
-1.39961e-06
1.71581e-05
-2.9697e-06
1.14027e-05
-6.01441e-06
4.05711e-06
-1.20033e-05
-1.67847e-05
1.05754e-05
1.81096e-05
2.26921e-05
2.60175e-05
2.85956e-05
3.06416e-05
3.23345e-05
3.38167e-05
3.51782e-05
3.64545e-05
3.76274e-05
3.86262e-05
3.93337e-05
3.95863e-05
3.91717e-05
3.77721e-05
3.48024e-05
2.8788e-05
1.67847e-05
)
;

boundaryField
{
    movingWall
    {
        type            calculated;
        value           uniform 0;
    }
    fixedWalls
    {
        type            calculated;
        value           uniform 0;
    }
    frontAndBack
    {
        type            empty;
        value           nonuniform 0();
    }
}


// ************************************************************************* //
