/*--------------------------------*- C++ -*----------------------------------*\
  =========                 |
  \\      /  F ield         | OpenFOAM: The Open Source CFD Toolbox
   \\    /   O peration     | Website:  https://openfoam.org
    \\  /    A nd           | Version:  6.0
     \\/     M anipulation  |
\*---------------------------------------------------------------------------*/
FoamFile
{
    version     2.0;
    format      ascii;
    class       volScalarField;
    location    "2";
    object      p;
}
// * * * * * * * * * * * * * * * * * * * * * * * * * * * * * * * * * * * * * //

dimensions      [0 2 -2 0 0 0 0];

internalField   nonuniform List<scalar> 
2000
(
-0.41057
-0.413844
-0.411894
-0.406645
-0.399405
-0.390738
-0.381152
-0.371542
-0.362786
-0.351551
-0.414419
-0.417218
-0.414931
-0.409419
-0.401941
-0.393043
-0.383215
-0.373327
-0.364282
-0.352985
-0.422175
-0.424004
-0.421034
-0.414989
-0.407026
-0.397655
-0.387331
-0.376868
-0.36721
-0.355759
-0.433812
-0.43414
-0.430129
-0.423277
-0.41458
-0.404488
-0.393393
-0.382017
-0.371348
-0.359582
-0.449277
-0.447525
-0.442097
-0.434165
-0.424484
-0.413412
-0.401247
-0.388557
-0.376358
-0.363989
-0.468468
-0.464004
-0.456769
-0.447487
-0.436578
-0.424268
-0.410712
-0.396247
-0.381841
-0.368368
-0.491197
-0.483349
-0.473916
-0.463025
-0.450667
-0.436885
-0.421647
-0.404949
-0.387512
-0.372081
-0.517147
-0.505247
-0.493237
-0.480501
-0.466489
-0.451017
-0.433813
-0.414372
-0.392681
-0.373584
-0.545836
-0.52929
-0.514387
-0.499626
-0.483824
-0.466498
-0.446974
-0.423791
-0.395277
-0.368946
-0.576583
-0.55498
-0.53701
-0.520239
-0.50291
-0.484364
-0.463552
-0.437974
-0.404233
-0.370969
-0.608506
-0.581675
-0.560579
-0.541904
-0.523567
-0.505297
-0.486899
-0.468568
-0.454565
-0.454837
-0.640629
-0.608623
-0.584314
-0.563436
-0.543421
-0.524035
-0.505229
-0.487728
-0.475987
-0.474348
-0.672051
-0.635152
-0.607685
-0.584401
-0.562201
-0.540787
-0.520116
-0.500798
-0.485755
-0.476069
-0.701908
-0.660549
-0.630082
-0.604244
-0.5794
-0.555169
-0.531463
-0.508641
-0.488371
-0.470733
-0.729241
-0.683935
-0.65065
-0.622082
-0.594106
-0.566303
-0.538603
-0.511216
-0.485042
-0.460387
-0.752901
-0.704221
-0.668299
-0.636799
-0.605227
-0.573256
-0.54097
-0.508601
-0.476651
-0.446186
-0.771518
-0.720106
-0.681727
-0.647098
-0.611551
-0.575025
-0.537916
-0.500617
-0.46347
-0.428498
-0.783516
-0.730109
-0.68947
-0.651558
-0.611792
-0.570567
-0.528727
-0.486901
-0.445398
-0.407213
-0.787183
-0.732621
-0.689964
-0.648703
-0.60466
-0.558865
-0.512685
-0.467003
-0.422139
-0.381975
-0.780756
-0.725988
-0.681628
-0.63709
-0.588943
-0.538987
-0.489134
-0.440476
-0.393334
-0.352343
-0.762526
-0.708603
-0.662954
-0.615398
-0.563585
-0.510162
-0.457548
-0.406956
-0.358669
-0.317923
-0.730936
-0.678999
-0.632606
-0.582513
-0.527758
-0.471845
-0.417594
-0.366241
-0.317969
-0.278461
-0.684717
-0.635975
-0.589529
-0.537634
-0.480951
-0.423772
-0.369189
-0.318341
-0.271262
-0.233911
-0.622991
-0.578695
-0.533049
-0.480344
-0.423012
-0.366005
-0.312524
-0.263518
-0.218822
-0.184484
-0.545379
-0.506796
-0.462957
-0.410663
-0.354174
-0.298922
-0.248063
-0.202284
-0.161174
-0.130649
-0.452096
-0.420467
-0.379562
-0.329073
-0.275044
-0.223184
-0.176472
-0.135302
-0.09899
-0.0730575
-0.344029
-0.320516
-0.28374
-0.236531
-0.186596
-0.139714
-0.0985776
-0.0633122
-0.0330188
-0.0125579
-0.222788
-0.208409
-0.176933
-0.13445
-0.0901534
-0.0497161
-0.0154881
0.012519
0.0351495
0.0487585
-0.090728
-0.0862617
-0.0611148
-0.0245925
0.0128414
0.0457171
0.0718991
0.0909253
0.102915
0.107067
0.0490844
0.0431719
0.0612119
0.0909553
0.121038
0.146404
0.165013
0.175196
0.175758
0.170535
0.192997
0.17655
0.186882
0.209256
0.231954
0.250854
0.264641
0.27142
0.27138
0.286822
0.337075
0.310184
0.312247
0.326424
0.340839
0.352074
0.359236
0.361389
0.361072
0.375235
0.477368
0.440393
0.433898
0.439345
0.444897
0.447768
0.447385
0.443308
0.438068
0.444028
0.610051
0.563587
0.548572
0.54516
0.541737
0.536147
0.528142
0.517567
0.506523
0.504204
0.7315
0.676363
0.653218
0.641261
0.629224
0.615556
0.600301
0.583501
0.566869
0.5572
0.838381
0.775605
0.74507
0.725307
0.705455
0.684513
0.662774
0.640429
0.618815
0.602755
0.927734
0.858556
0.821695
0.795235
0.768723
0.741627
0.714441
0.687472
0.661695
0.640296
0.997058
0.922901
0.881046
0.8493
0.817559
0.785659
0.754248
0.723715
0.694719
0.669166
1.04439
0.966827
0.921522
0.886127
0.850792
0.815602
0.781312
0.74836
0.717173
0.688773
1.06839
0.989089
0.942025
0.904769
0.867607
0.830749
0.795001
0.760828
0.728532
0.698684
1.06835
0.989053
0.941992
0.904741
0.867584
0.830731
0.794986
0.760814
0.72852
0.698675
1.04428
0.966718
0.921424
0.886044
0.850725
0.815548
0.781266
0.74832
0.71714
0.688747
0.996868
0.922719
0.880882
0.84916
0.817445
0.785566
0.754171
0.72365
0.694669
0.669127
0.927465
0.858298
0.821463
0.795037
0.768559
0.741494
0.714333
0.687385
0.661632
0.640247
0.838029
0.775267
0.744765
0.725044
0.705235
0.684335
0.662631
0.640318
0.618738
0.602696
0.731061
0.675942
0.652833
0.640924
0.628938
0.615322
0.600114
0.583357
0.56677
0.557124
0.60952
0.563076
0.548099
0.54474
0.541374
0.535842
0.527894
0.517373
0.506387
0.504093
0.476738
0.439786
0.433331
0.438831
0.444444
0.447377
0.447055
0.44304
0.437867
0.443852
0.336336
0.309472
0.311579
0.325811
0.340286
0.351582
0.358802
0.361016
0.360769
0.374955
0.192141
0.175726
0.186106
0.208538
0.231295
0.25025
0.264083
0.270908
0.270924
0.286386
0.0481044
0.04223
0.060324
0.090129
0.12027
0.145684
0.164327
0.174534
0.175102
0.169876
-0.0918333
-0.0873243
-0.0621184
-0.0255305
0.0119624
0.0448828
0.0710924
0.0901336
0.102129
0.10629
-0.224014
-0.209589
-0.178051
-0.135501
-0.0911428
-0.0506609
-0.0164061
0.0116154
0.034257
0.047882
-0.345364
-0.321805
-0.284968
-0.237691
-0.187694
-0.140765
-0.0995975
-0.0643132
-0.0340019
-0.013518
-0.453525
-0.42185
-0.380889
-0.330336
-0.276246
-0.224336
-0.177587
-0.136391
-0.100055
-0.0740954
-0.546881
-0.508257
-0.464367
-0.412017
-0.355472
-0.30017
-0.249269
-0.203455
-0.162314
-0.131759
-0.624546
-0.580215
-0.534528
-0.481776
-0.424396
-0.367342
-0.313815
-0.264768
-0.220032
-0.185661
-0.686309
-0.637537
-0.591062
-0.539132
-0.482411
-0.42519
-0.370559
-0.319663
-0.272539
-0.235151
-0.732551
-0.680591
-0.63418
-0.584065
-0.529282
-0.473331
-0.419034
-0.367629
-0.319306
-0.279758
-0.764152
-0.710213
-0.664556
-0.616988
-0.565155
-0.511701
-0.459041
-0.408398
-0.360057
-0.319272
-0.782384
-0.727604
-0.683241
-0.6387
-0.590539
-0.540555
-0.490662
-0.441956
-0.394763
-0.353735
-0.7888
-0.73423
-0.691572
-0.65031
-0.606257
-0.560439
-0.514225
-0.468503
-0.423596
-0.383396
-0.785109
-0.731697
-0.691056
-0.653143
-0.613369
-0.572126
-0.530258
-0.488403
-0.446867
-0.408653
-0.773073
-0.72166
-0.683278
-0.648647
-0.613092
-0.576551
-0.539423
-0.502106
-0.464938
-0.429945
-0.754404
-0.705725
-0.6698
-0.638296
-0.606718
-0.574737
-0.54244
-0.510064
-0.478104
-0.447629
-0.730677
-0.685376
-0.652089
-0.623517
-0.595535
-0.567726
-0.540022
-0.512637
-0.486465
-0.461811
-0.703267
-0.661915
-0.631448
-0.605608
-0.58076
-0.556527
-0.53282
-0.510007
-0.489749
-0.472123
-0.673325
-0.636435
-0.60897
-0.585688
-0.563486
-0.542071
-0.521403
-0.502095
-0.487073
-0.47741
-0.641813
-0.609819
-0.585514
-0.56464
-0.544627
-0.525239
-0.506432
-0.488941
-0.477224
-0.475616
-0.6096
-0.582782
-0.561692
-0.543023
-0.524687
-0.506411
-0.488005
-0.469674
-0.455687
-0.455981
-0.577585
-0.555997
-0.538034
-0.521267
-0.503936
-0.48538
-0.464548
-0.438953
-0.405175
-0.371854
-0.546747
-0.530216
-0.515318
-0.500558
-0.48475
-0.467409
-0.447863
-0.42466
-0.396119
-0.369748
-0.517967
-0.506079
-0.494071
-0.481331
-0.46731
-0.451821
-0.434594
-0.415136
-0.393428
-0.374305
-0.491925
-0.484087
-0.474652
-0.463753
-0.451381
-0.437581
-0.422322
-0.40561
-0.388163
-0.372717
-0.469103
-0.464646
-0.457406
-0.448109
-0.437182
-0.424854
-0.411282
-0.396806
-0.382395
-0.368912
-0.449815
-0.448067
-0.44263
-0.43468
-0.424977
-0.413888
-0.401709
-0.389013
-0.376814
-0.364438
-0.434245
-0.434573
-0.430552
-0.423681
-0.414963
-0.404854
-0.393751
-0.382371
-0.371703
-0.359933
-0.422494
-0.424321
-0.421342
-0.41528
-0.407298
-0.397914
-0.387583
-0.37712
-0.367463
-0.356009
-0.414617
-0.417413
-0.41512
-0.409596
-0.402103
-0.393195
-0.383363
-0.373476
-0.364432
-0.353133
-0.410638
-0.41391
-0.411958
-0.406704
-0.399459
-0.390789
-0.381201
-0.371591
-0.362835
-0.3516
-0.171309
0.016966
0.00451368
0.0105895
0.00346163
0.00239395
0.00114684
0.000687172
0.000320796
0.000164669
-0.174938
0.0162906
0.00439838
0.0104768
0.00344879
0.00238931
0.0011507
0.000681844
0.000322586
0.000163884
-0.182085
0.0148932
0.0041661
0.0102432
0.00341978
0.00237067
0.00114847
0.000674166
0.000321591
0.000161974
-0.192454
0.0126875
0.00382441
0.00989167
0.00337332
0.00233521
0.00113884
0.000666106
0.000317534
0.000159327
-0.205496
0.00957716
0.00338827
0.00943092
0.00330726
0.00228529
0.00112452
0.000656913
0.000311567
0.000156096
-0.220315
0.0055229
0.00287892
0.00887486
0.00321981
0.00222371
0.00110788
0.000645675
0.000304884
0.00015237
-0.23624
0.000385462
0.00227119
0.00823325
0.00310919
0.00215103
0.00108856
0.000632353
0.000297477
0.000148223
-0.254092
-0.00668923
0.00137973
0.0074846
0.00296859
0.00206586
0.00106564
0.000617044
0.000289422
0.000143742
-0.272246
-0.0165868
9.21091e-05
0.00659604
0.00278929
0.00196575
0.0010393
0.000600158
0.000280894
0.00013888
-0.273686
-0.0246
-0.000537673
0.00576365
0.00258844
0.00185462
0.00101263
0.000583317
0.000273129
0.000133222
-0.222067
-0.0348669
0.0021515
0.00442027
0.00218489
0.00154918
0.000948436
0.00053294
0.000250312
0.000110525
-0.159205
-0.0443301
-0.00155399
0.00125341
0.000395175
0.000627334
0.000576041
0.000360221
0.000175811
7.5258e-05
-0.110798
-0.0420495
-0.00436072
-0.000155606
-0.000551979
4.94027e-08
0.000250311
0.00019516
9.67482e-05
4.21159e-05
-0.071792
-0.0347731
-0.00628994
-0.00123676
-0.00116635
-0.000497515
-5.80237e-05
2.99112e-05
1.60241e-05
9.62885e-06
-0.0455558
-0.027371
-0.00750087
-0.00220295
-0.00159725
-0.000872678
-0.000326456
-0.00012346
-5.99508e-05
-2.04172e-05
-0.0280635
-0.0208733
-0.00788893
-0.00294858
-0.00190125
-0.00113686
-0.000543221
-0.000257357
-0.000127227
-4.64777e-05
-0.0167344
-0.0157007
-0.00774588
-0.00347202
-0.00212401
-0.00131833
-0.000709111
-0.000367423
-0.000182973
-6.76515e-05
-0.0095849
-0.0119206
-0.00738149
-0.0038078
-0.0022855
-0.00143969
-0.00082788
-0.000450592
-0.000225308
-8.36598e-05
-0.00541591
-0.00947332
-0.00702474
-0.004
-0.00239168
-0.00151472
-0.00090393
-0.000505666
-0.000253432
-9.43906e-05
-0.00349355
-0.00827149
-0.0068187
-0.0040893
-0.002445
-0.00155061
-0.000941005
-0.000532917
-0.00026753
-9.97564e-05
-0.232367
-0.256604
-0.27844
-0.298254
-0.316532
-0.333842
-0.350784
-0.367918
-0.38552
-0.404586
-0.0773401
-0.0863261
-0.0942011
-0.101147
-0.107389
-0.113193
-0.118879
-0.124835
-0.13152
-0.14065
-0.0387083
-0.0458605
-0.0524831
-0.0585596
-0.0640729
-0.0690034
-0.073332
-0.0770494
-0.0801674
-0.0830732
-0.0094861
-0.013904
-0.0180372
-0.0219004
-0.0255062
-0.0288681
-0.0320031
-0.0349261
-0.0376369
-0.0402472
0.000675287
-0.00257799
-0.00567304
-0.00859836
-0.0113581
-0.0139593
-0.0164035
-0.0186895
-0.0208048
-0.0228236
0.00721167
0.00484122
0.00255177
0.000350258
-0.00176668
-0.00380286
-0.00575978
-0.00763835
-0.0094336
-0.0111915
0.00995678
0.00814338
0.00637807
0.00465508
0.00297861
0.00135472
-0.000214553
-0.00172946
-0.00318951
-0.00462248
0.0114705
0.0100168
0.00859228
0.00720008
0.00584087
0.00451432
0.00322155
0.00196313
0.000738857
-0.000464386
0.0121687
0.0109381
0.00972552
0.00853711
0.00737273
0.00623063
0.00511152
0.0040164
0.00294547
0.00189471
0.0124543
0.0113559
0.0102685
0.0091851
0.00811132
0.00705402
0.00601518
0.00499542
0.00399424
0.00301079
0.141801
0.0998073
0.0544242
0.0116346
-0.0296306
-0.0696113
-0.107617
-0.143067
-0.175704
-0.205455
0.101062
0.075213
0.0492847
0.027216
0.00764219
-0.0104914
-0.0271542
-0.0421259
-0.055395
-0.0670823
0.0662505
0.0512687
0.037597
0.0259435
0.0152634
0.00501104
-0.00481306
-0.0141067
-0.0228423
-0.031037
0.0521658
0.0437851
0.0361938
0.0295022
0.0231964
0.0170747
0.0111737
0.00555474
0.000239282
-0.00477307
0.0419864
0.0367582
0.0319247
0.0275298
0.0233178
0.0191979
0.015193
0.0113334
0.00762798
0.00407641
0.0352216
0.031923
0.0287814
0.025847
0.0230021
0.0201998
0.0174516
0.0147747
0.0121756
0.00965548
0.0302528
0.0280371
0.0258582
0.0237702
0.0217227
0.0196884
0.0176722
0.0156849
0.0137335
0.0118222
0.0268015
0.0252391
0.0236688
0.0221208
0.0205809
0.0190403
0.0175017
0.0159707
0.0144523
0.0129506
0.0245975
0.0233878
0.0221597
0.0209279
0.0196886
0.0184386
0.0171814
0.0159219
0.0146641
0.0134118
0.0235143
0.0224459
0.0213616
0.0202743
0.0191787
0.0180687
0.0169479
0.0158212
0.0146936
0.0135691
0.317701
0.316911
0.315161
0.311964
0.306531
0.297613
0.283417
0.261505
0.229141
0.18289
0.23208
0.230927
0.2282
0.223466
0.216392
0.206556
0.193392
0.176245
0.154343
0.127144
0.166174
0.165053
0.162402
0.157904
0.151459
0.142968
0.13226
0.119142
0.103229
0.0846466
0.11937
0.118514
0.116479
0.113032
0.108161
0.101895
0.0942388
0.0852112
0.0747483
0.063187
0.0873315
0.0867276
0.0852859
0.0828392
0.0793986
0.0750207
0.0697476
0.0636288
0.0566626
0.0490632
0.0657342
0.0653141
0.0643099
0.0626065
0.0602195
0.0572001
0.0535926
0.0494453
0.044783
0.039747
0.0514009
0.0511057
0.0503997
0.0492026
0.0475276
0.0454139
0.0428965
0.0400111
0.036783
0.0332955
0.0421748
0.0419592
0.0414433
0.0405687
0.0393451
0.0378018
0.035965
0.0338605
0.0315096
0.0289611
0.0366811
0.0365117
0.0361067
0.0354199
0.0344587
0.0332458
0.0318011
0.0301437
0.0282915
0.0262739
0.0341209
0.0339725
0.0336177
0.0330163
0.0321746
0.0311119
0.0298452
0.0283901
0.0267625
0.0249839
0.462527
0.464166
0.47026
0.481038
0.496414
0.51673
0.542515
0.574376
0.61294
0.658543
0.46043
0.462047
0.468061
0.47868
0.493798
0.513717
0.538905
0.569885
0.607153
0.650903
0.456219
0.457796
0.463661
0.473977
0.488602
0.507756
0.531783
0.561035
0.59574
0.635827
0.449984
0.451515
0.457175
0.467064
0.480985
0.49904
0.52139
0.548118
0.579041
0.61373
0.441852
0.443343
0.44876
0.45812
0.471159
0.487832
0.508052
0.531543
0.557547
0.585214
0.431982
0.433453
0.438609
0.447358
0.459366
0.474414
0.49213
0.51178
0.531863
0.551041
0.420562
0.422077
0.426987
0.435079
0.445946
0.459179
0.474081
0.489379
0.50271
0.512122
0.407792
0.409526
0.414314
0.421813
0.431559
0.442929
0.454837
0.465338
0.471078
0.469281
0.393747
0.395932
0.400773
0.407786
0.416496
0.426066
0.434963
0.440388
0.437733
0.421865
0.378057
0.380364
0.384756
0.390617
0.397482
0.404401
0.40957
0.409682
0.399714
0.369731
0.377377
0.379678
0.384069
0.38993
0.396802
0.403733
0.408924
0.409073
0.399169
0.369286
0.393074
0.39525
0.400089
0.407105
0.415826
0.425417
0.434349
0.439831
0.437268
0.421533
0.407139
0.408861
0.413649
0.421155
0.430919
0.442321
0.45428
0.46486
0.470714
0.469056
0.419944
0.421447
0.426358
0.434462
0.445355
0.458632
0.473599
0.488991
0.502441
0.511977
0.431416
0.432877
0.438035
0.446801
0.458843
0.473945
0.491735
0.511482
0.531672
0.550946
0.441358
0.44284
0.448262
0.457643
0.470721
0.48745
0.507744
0.531322
0.557412
0.585147
0.449578
0.451104
0.45677
0.466681
0.480641
0.49875
0.521163
0.54796
0.578945
0.613679
0.455917
0.457492
0.463364
0.4737
0.488358
0.507555
0.531631
0.56093
0.595675
0.635788
0.460244
0.461859
0.46788
0.478512
0.493653
0.5136
0.538818
0.569826
0.607115
0.650878
0.462464
0.464102
0.470199
0.480982
0.496366
0.516692
0.542486
0.574356
0.612928
0.658535
0.0339014
0.0337546
0.0334033
0.0328066
0.0319697
0.0309123
0.0296527
0.0282073
0.0265924
0.0248289
0.0364409
0.0362717
0.0358664
0.0351798
0.0342207
0.0330126
0.0315757
0.029929
0.0280899
0.0260876
0.041906
0.0416913
0.0411759
0.0403014
0.0390789
0.0375385
0.0357067
0.033609
0.0312663
0.0287268
0.0510867
0.0507921
0.050087
0.0488912
0.0472174
0.0451054
0.0425903
0.0397079
0.0364834
0.0330002
0.0653653
0.0649456
0.0639419
0.0622392
0.0598528
0.0568338
0.0532264
0.049079
0.0444171
0.0393838
0.0869015
0.0862981
0.0848567
0.0824095
0.078968
0.0745891
0.0693155
0.0631969
0.0562319
0.0486359
0.118872
0.118016
0.115982
0.112535
0.107662
0.101393
0.093734
0.0847048
0.0742416
0.0626818
0.165608
0.164486
0.161836
0.157338
0.15089
0.142397
0.131685
0.118563
0.102647
0.0840642
0.231452
0.230298
0.227571
0.222834
0.215757
0.205917
0.192748
0.175596
0.153688
0.126487
0.317023
0.316234
0.314484
0.311285
0.305848
0.296927
0.282727
0.260813
0.22845
0.182207
0.0233853
0.0223461
0.0212863
0.0202124
0.0191259
0.0180262
0.0169164
0.0158005
0.014682
0.0135642
0.0244329
0.0232444
0.0220348
0.0208204
0.0195983
0.0183647
0.0171224
0.0158762
0.0146302
0.0133883
0.0265799
0.0250296
0.0234719
0.0219405
0.020419
0.0188962
0.0173751
0.0158619
0.0143615
0.0128773
0.0299695
0.0277686
0.0256019
0.0235223
0.0214828
0.0194593
0.0174568
0.0154852
0.0135508
0.0116567
0.0348652
0.0315706
0.0284293
0.025498
0.0226596
0.0198662
0.0171278
0.0144605
0.0118711
0.00936114
0.041562
0.0363311
0.0314915
0.0270948
0.0228826
0.0187628
0.0147588
0.0109012
0.00720005
0.00365573
0.0516659
0.0432874
0.0356921
0.0289935
0.0226776
0.0165462
0.0106379
0.00501479
-0.000301397
-0.00531106
0.0656712
0.0506845
0.0369961
0.0253233
0.014623
0.00435132
-0.00549111
-0.0148017
-0.023552
-0.0317578
0.1004
0.0745338
0.0485807
0.0264872
0.00688655
-0.0112771
-0.0279717
-0.0429739
-0.0562682
-0.0679737
0.141094
0.0990706
0.0536558
0.0108032
-0.0305381
-0.0705968
-0.108677
-0.144197
-0.176901
-0.206717
0.01245
0.0113422
0.0102433
0.00915573
0.00808172
0.00702341
0.00598288
0.00496169
0.00395968
0.0029767
0.0121541
0.0109311
0.00972278
0.00853228
0.00736235
0.00621525
0.00509275
0.00399582
0.00292404
0.00187355
0.0114125
0.0099703
0.00855358
0.00716514
0.0058074
0.00448234
0.00319131
0.00193488
0.00071291
-0.000487507
0.00980564
0.00799993
0.0062417
0.00453261
0.00287397
0.00126661
-0.000289201
-0.00179347
-0.00324434
-0.00466863
0.00693188
0.00458479
0.00232115
0.000141626
-0.00195394
-0.00396668
-0.005899
-0.00775341
-0.00952616
-0.0112649
0.000268731
-0.00295903
-0.00602544
-0.00892884
-0.0116681
-0.0142428
-0.0166541
-0.0189032
-0.0209801
-0.0229629
-0.010018
-0.0144265
-0.0185439
-0.0223814
-0.0259534
-0.0292759
-0.0323657
-0.0352376
-0.0378918
-0.040446
-0.0394328
-0.0465779
-0.0531853
-0.0592419
-0.0647287
-0.0696231
-0.0739035
-0.0775574
-0.0805938
-0.083407
-0.0782378
-0.0872132
-0.095067
-0.101989
-0.1082
-0.113962
-0.119591
-0.125474
-0.132064
-0.141077
-0.233684
-0.25796
-0.279823
-0.29966
-0.31795
-0.335253
-0.352163
-0.369234
-0.38673
-0.405627
-0.00347662
-0.00826512
-0.00677415
-0.00405479
-0.00244307
-0.00154672
-0.000935973
-0.000533851
-0.000273074
-0.000106822
-0.00539982
-0.00946589
-0.00698513
-0.00397014
-0.00239118
-0.00151191
-0.000899139
-0.00050716
-0.000258808
-9.96539e-05
-0.00957074
-0.0119119
-0.00734981
-0.00378532
-0.00228756
-0.00143859
-0.00082451
-0.000453822
-0.000229445
-8.60556e-05
-0.0167211
-0.0156899
-0.0077225
-0.00345847
-0.00212883
-0.00131954
-0.000707411
-0.00037165
-0.000186912
-6.84083e-05
-0.028046
-0.020859
-0.00787445
-0.00294509
-0.00190881
-0.00114
-0.000543387
-0.000263973
-0.000133085
-4.62837e-05
-0.0455332
-0.0273559
-0.00749902
-0.00220926
-0.00160902
-0.000879403
-0.000329131
-0.000134064
-6.76963e-05
-1.89372e-05
-0.0717574
-0.0347606
-0.00630738
-0.00125473
-0.00118547
-0.000510571
-6.22527e-05
1.5864e-05
6.8118e-06
1.21356e-05
-0.110744
-0.0420427
-0.004398
-0.000185415
-0.000580451
-1.99604e-05
0.000245907
0.00017835
8.47997e-05
4.46452e-05
-0.159129
-0.0443367
-0.00160532
0.00121516
0.000359156
0.000602033
0.000569534
0.000341059
0.000160762
7.64322e-05
-0.222034
-0.0348985
0.002089
0.00437132
0.002143
0.0015222
0.000935842
0.000510431
0.000234543
0.000109178
-0.273793
-0.0246507
-0.00058439
0.00571464
0.00255021
0.00183052
0.000994717
0.000562531
0.000254176
0.000129689
-0.272428
-0.0166377
5.11373e-05
0.00654534
0.00275159
0.00194328
0.00101969
0.000580384
0.000260221
0.000134957
-0.25436
-0.00674089
0.00134344
0.0074314
0.00293111
0.00204494
0.0010448
0.00059903
0.000267321
0.000139785
-0.236528
0.000331165
0.00223789
0.00817926
0.00307329
0.00213096
0.00106689
0.000616872
0.000274839
0.000144441
-0.220591
0.00546633
0.0028474
0.00882242
0.00318706
0.00220377
0.00108527
0.000633423
0.000282335
0.000148916
-0.205737
0.0095239
0.00335781
0.00938182
0.00327915
0.00226454
0.0011005
0.000648619
0.000289668
0.000153082
-0.192647
0.0126459
0.00379518
0.0098471
0.0033513
0.00231252
0.00111273
0.000662613
0.00029678
0.000156845
-0.182221
0.0148686
0.00414029
0.0102057
0.00340461
0.00234706
0.00112199
0.000675327
0.000303542
0.000160144
-0.175018
0.01628
0.00438037
0.0104511
0.00344023
0.00237103
0.00113005
0.000684565
0.000310047
0.000162698
-0.171335
0.0169632
0.00450729
0.0105802
0.00345895
0.00238732
0.001139
0.00068829
0.000316277
0.000164221
)
;

boundaryField
{
    inlet
    {
        type            zeroGradient;
    }
    outlet
    {
        type            fixedValue;
        value           uniform 0;
    }
    cylinder
    {
        type            zeroGradient;
    }
    top
    {
        type            symmetryPlane;
    }
    bottom
    {
        type            symmetryPlane;
    }
    defaultFaces
    {
        type            empty;
    }
}


// ************************************************************************* //
