/*--------------------------------*- C++ -*----------------------------------*\
  =========                 |
  \\      /  F ield         | OpenFOAM: The Open Source CFD Toolbox
   \\    /   O peration     | Website:  https://openfoam.org
    \\  /    A nd           | Version:  6.0
     \\/     M anipulation  |
\*---------------------------------------------------------------------------*/
FoamFile
{
    version     2.0;
    format      ascii;
    class       surfaceScalarField;
    location    "2";
    object      phi;
}
// * * * * * * * * * * * * * * * * * * * * * * * * * * * * * * * * * * * * * //

dimensions      [0 3 -1 0 0 0 0];

internalField   nonuniform List<scalar> 
3880
(
-1.63473e-05
1.63245e-05
2.28392e-08
-4.08165e-05
2.42301e-05
2.39094e-07
-5.76523e-05
1.63283e-05
5.0753e-07
-5.62893e-05
-2.09419e-06
7.31221e-07
-2.98448e-05
-2.73603e-05
9.15791e-07
2.55865e-05
-5.65017e-05
1.07039e-06
0.000111278
-8.6887e-05
1.19572e-06
0.000226022
-0.000116033
1.28827e-06
0.000366234
-0.000141514
1.30211e-06
-0.000161183
1.30177e-06
0.000526115
-1.54855e-05
3.181e-05
-3.76623e-05
4.64068e-05
-5.11089e-05
2.97749e-05
-4.55307e-05
-7.67234e-06
-1.42054e-05
-5.86856e-05
4.67325e-05
-0.00011744
0.000138622
-0.000178777
0.000260395
-0.000237806
0.000408592
-0.00028971
-0.000330007
0.000577416
-1.3705e-05
4.5515e-05
-3.11838e-05
6.38856e-05
-3.77206e-05
3.63117e-05
-2.3607e-05
-2.17859e-05
1.74999e-05
-9.97926e-05
8.93261e-05
-0.000189266
0.000193299
-0.00028275
0.000328598
-0.000373105
0.000492019
-0.000453131
-0.000515779
0.000677791
-1.09031e-05
5.64181e-05
-2.10612e-05
7.40437e-05
-1.68995e-05
3.21499e-05
1.03153e-05
-4.90008e-05
6.62365e-05
-0.000155714
0.000154232
-0.000277262
0.000275721
-0.000404238
0.000430166
-0.00052755
0.000614749
-0.000637714
-0.000724828
0.000823799
-6.92237e-06
6.33405e-05
-6.8043e-06
7.39257e-05
1.22889e-05
1.30567e-05
5.76496e-05
-9.43614e-05
0.000133799
-0.000231863
0.000243354
-0.000386816
0.000387437
-0.000548322
0.000565702
-0.000705815
0.000775818
-0.00084783
-0.000961368
0.00101236
-1.56269e-06
6.49032e-05
1.22088e-05
6.01542e-05
5.10735e-05
-2.58081e-05
0.000120379
-0.000163667
0.000222965
-0.000334449
0.000360092
-0.000523943
0.000532015
-0.000720245
0.000738203
-0.000912004
0.000976846
-0.00108647
-0.00122747
0.00124295
5.37411e-06
5.95291e-05
3.65925e-05
2.89357e-05
0.000100742
-8.99572e-05
0.000200782
-0.000263707
0.000337302
-0.000470969
0.000509442
-0.000696083
0.000715648
-0.000926451
0.000954305
-0.00115066
0.00122376
-0.00135593
-0.00152369
0.00151999
1.40078e-05
4.55213e-05
6.67059e-05
-2.37624e-05
0.000162144
-0.000185395
0.000300654
-0.000402217
0.00048019
-0.000650504
0.000697043
-0.000912936
0.00094662
-0.00117603
0.00122454
-0.00142858
0.00152794
-0.00165933
-0.00185203
0.00185628
2.4278e-05
2.12432e-05
0.000102313
-0.000101798
0.000234982
-0.000318065
0.000420131
-0.000587366
0.00065324
-0.000883614
0.000927655
-0.00118735
0.00123491
-0.00148328
0.00156558
-0.00175926
0.00191249
-0.00200624
-0.00222233
0.00228279
3.58177e-05
-1.45745e-05
0.000142147
-0.000208127
0.000316769
-0.000492687
0.000555676
-0.000826272
0.000853178
-0.00118112
0.00120179
-0.00153596
0.00159182
-0.00187331
0.00200995
-0.00217739
0.00243792
-0.00243421
-0.00263568
0.00285127
4.78668e-05
-6.24413e-05
0.000183521
-0.000343781
0.000401418
-0.000710584
0.000695878
-0.00112073
0.0010612
-0.00154643
0.00149233
-0.0019671
0.00198615
-0.00236713
0.00254419
-0.00273543
0.00317883
-0.00306885
-0.00338437
0.00392752
5.95381e-05
-0.000121979
0.000223143
-0.000507386
0.000480786
-0.000968227
0.000823142
-0.00146309
0.00124111
-0.0019644
0.00172606
-0.00245205
0.00227028
-0.00291135
0.00286724
-0.00333238
0.00350858
-0.0037102
-0.00404159
0.0041658
7.04099e-05
-0.000192389
0.00025934
-0.000696316
0.000551143
-0.00126003
0.000931264
-0.00184321
0.00138527
-0.00241841
0.00189876
-0.00296554
0.00245756
-0.00347015
0.00304723
-0.00392205
0.00365062
-0.00431359
-0.00463328
0.00424231
8.04392e-05
-0.000272828
0.000291682
-0.000907559
0.000611642
-0.00157999
0.00101974
-0.00225131
0.0014958
-0.00289447
0.0020201
-0.00348984
0.00257371
-0.00402376
0.00313866
-0.00448699
0.0036971
-0.00487203
-0.00516699
0.00423081
8.96596e-05
-0.000362488
0.000320023
-0.00113792
0.000661968
-0.00192193
0.00108865
-0.00267799
0.00157448
-0.0033803
0.00209553
-0.00401088
0.00263023
-0.00455847
0.00315997
-0.00501673
0.00366911
-0.00538118
-0.00564346
0.00414558
9.79967e-05
-0.000460485
0.000343956
-0.00138388
0.000701315
-0.00227929
0.00113706
-0.00311374
0.00162093
-0.00386417
0.00212611
-0.00451606
0.00263015
-0.00506252
0.0031156
-0.00550218
0.00357011
-0.00583568
-0.00606033
0.00398699
0.000105218
-0.000565703
0.000362676
-0.00164134
0.0007282
-0.00264482
0.00116304
-0.00354858
0.00163323
-0.00433436
0.00211049
-0.00499332
0.00257302
-0.00552504
0.00300575
-0.00593491
0.00340013
-0.00623006
-0.00641448
0.00375427
0.000110962
-0.000676665
0.000375088
-0.00190547
0.000740753
-0.00301048
0.00116422
-0.00397204
0.00160909
-0.00477923
0.00204705
-0.00543128
0.00245825
-0.00593625
0.00283091
-0.00630756
0.00316046
-0.00655962
-0.00670326
0.00344924
0.000114794
-0.000791459
0.000379993
-0.00217066
0.000737101
-0.00336759
0.00113853
-0.00437347
0.00154687
-0.00518757
0.00193525
-0.00581966
0.00228684
-0.00628783
0.00259368
-0.0066144
0.00285515
-0.00682109
-0.00692517
0.00307707
0.000116277
-0.000907736
0.000376283
-0.00243067
0.000715725
-0.00370703
0.00108464
-0.00474239
0.00144623
-0.00554916
0.00177632
-0.00614974
0.00206192
-0.00657344
0.00229914
-0.00685161
0.00249093
-0.00701289
-0.00708005
0.00264581
0.000115024
-0.00102276
0.000363096
-0.00267874
0.000675721
-0.00401966
0.00100234
-0.00506901
0.00130833
-0.00585515
0.00157334
-0.00641476
0.00178871
-0.00678881
0.00195445
-0.00701735
0.00207659
-0.00713503
-0.00716893
0.00216547
0.000110694
-0.00113345
0.00033983
-0.00290788
0.000616797
-0.00429663
0.000892391
-0.0053446
0.00113566
-0.00609843
0.00133089
-0.00660999
0.00147384
-0.00693175
0.00156805
-0.00711157
0.00162194
-0.00718892
-0.00719388
0.00164689
0.000103066
-0.00123652
0.000306293
-0.00311111
0.00053943
-0.00452976
0.000756639
-0.00556181
0.000931927
-0.00627372
0.00105467
-0.00673273
0.00112487
-0.00700195
0.00114901
-0.00713571
0.00113712
-0.00717703
-0.00715772
0.00110096
9.20174e-05
-0.00132854
0.000262633
-0.00328172
0.000444699
-0.00471183
0.000597675
-0.00571478
0.000701522
-0.00637756
0.000750868
-0.00678207
0.000749511
-0.00700059
0.000706153
-0.00709236
0.000631686
-0.00710256
-0.00706374
0.000537703
7.75419e-05
-0.00140608
0.000209344
-0.00341352
0.000334213
-0.0048367
0.00041863
-0.0057992
0.000449189
-0.00640812
0.000425658
-0.00675854
0.000355041
-0.00692997
0.000247468
-0.00698478
0.000114015
-0.00696911
-0.00691549
-3.42351e-05
5.97572e-05
-0.00146584
0.000147255
-0.00350102
0.00021003
-0.00489947
0.000222982
-0.00581215
0.000179691
-0.00636483
8.47627e-05
-0.00666361
-5.2218e-05
-0.00679299
-0.000220427
-0.00681657
-0.000409217
-0.00678032
-0.0067166
-0.000608102
3.89254e-05
-0.00150476
7.75524e-05
-0.00353965
7.46456e-05
-0.00489657
1.45073e-05
-0.00575201
-0.00010228
-0.00624804
-0.000266697
-0.0064992
-0.000467119
-0.00659257
-0.000692594
-0.0065911
-0.00093341
-0.0065395
-0.00647017
-0.00117984
1.54833e-05
-0.00152024
1.82524e-06
-0.00352599
-6.89488e-05
-0.00482579
-0.000202649
-0.00561831
-0.000392005
-0.00605869
-0.000624097
-0.0062671
-0.000885641
-0.00633103
-0.00116586
-0.00631088
-0.00145641
-0.00624895
-0.00617612
-0.00175047
-9.91473e-06
-0.00151033
-7.78502e-05
-0.00345805
-0.000217141
-0.0046865
-0.000423813
-0.00541164
-0.000684671
-0.00579783
-0.000983626
-0.00596815
-0.00130599
-0.00600867
-0.00164093
-0.00597593
-0.0019816
-0.00590828
-0.00582705
-0.00233067
-3.63307e-05
-0.001474
-0.000158728
-0.00333566
-0.000365229
-0.00448
-0.000642807
-0.00513406
-0.00097383
-0.00546681
-0.00134076
-0.00560122
-0.00172876
-0.00562066
-0.00212758
-0.00557711
-0.00253382
-0.00550204
-0.00543092
-0.00292995
-6.25503e-05
-0.00141145
-0.000237361
-0.00316085
-0.000506927
-0.00421043
-0.00084985
-0.00479114
-0.00124548
-0.00507118
-0.00167717
-0.00516953
-0.00213339
-0.00516444
-0.00260684
-0.00510367
-0.00309656
-0.00501231
-0.00488815
-0.00363933
-8.75268e-05
-0.00132392
-0.000310791
-0.00293758
-0.000636621
-0.0038846
-0.00103497
-0.00439279
-0.00148103
-0.00462513
-0.00195617
-0.00469439
-0.00244725
-0.00467336
-0.00294534
-0.00460558
-0.00344432
-0.00451333
-0.00440455
-0.00392792
-0.000110659
-0.00121326
-0.000377744
-0.0026705
-0.000753131
-0.00350922
-0.00119874
-0.00394718
-0.00168596
-0.0041379
-0.00219465
-0.00418569
-0.00271131
-0.00415671
-0.00322702
-0.00408986
-0.00373476
-0.00400559
-0.00391434
-0.00422496
-0.00013164
-0.00108162
-0.000437732
-0.00236441
-0.000856509
-0.00309044
-0.00134294
-0.00346075
-0.00186555
-0.0036153
-0.00240354
-0.0036477
-0.00294382
-0.00361642
-0.00347835
-0.00355533
-0.00400171
-0.00348223
-0.00340659
-0.00450946
-0.000150242
-0.000931381
-0.000490402
-0.00202425
-0.000946693
-0.00263415
-0.00146828
-0.00293916
-0.00202162
-0.00306195
-0.00258583
-0.0030835
-0.00314861
-0.00305364
-0.00370309
-0.00300086
-0.00424543
-0.00293989
-0.00287853
-0.00477348
-0.000166244
-0.000765137
-0.000535361
-0.00165513
-0.00102334
-0.00214617
-0.00157463
-0.00238787
-0.00215425
-0.00248234
-0.00274146
-0.00249628
-0.00332484
-0.00247026
-0.00389857
-0.00242713
-0.00445998
-0.00237849
-0.00233044
-0.00500807
-0.000179418
-0.00058572
-0.000572148
-0.0012624
-0.00108585
-0.00163247
-0.00166132
-0.00181239
-0.00226253
-0.00188113
-0.00286902
-0.00188979
-0.00347011
-0.00186917
-0.00406084
-0.0018364
-0.00463928
-0.00180005
-0.0017646
-0.00520512
-0.000189538
-0.000396181
-0.000600278
-0.000851659
-0.00113355
-0.00109919
-0.00172744
-0.00121851
-0.00234522
-0.00126335
-0.0029667
-0.00126831
-0.00358179
-0.00125408
-0.00418611
-0.00123208
-0.00477823
-0.00120793
-0.00118457
-0.00535825
-0.000196409
-0.000199772
-0.000619312
-0.000428755
-0.00116578
-0.000552729
-0.0017721
-0.000612182
-0.00240113
-0.00063432
-0.00303286
-0.000636579
-0.0036576
-0.000629345
-0.00427137
-0.000618318
-0.004873
-0.000606289
-0.00059472
-0.00546286
-0.000199884
1.11649e-07
-0.000628919
2.80484e-07
-0.00118203
3.80214e-07
-0.00179462
4.08417e-07
-0.00242933
3.94981e-07
-0.00306627
3.61353e-07
-0.00369594
3.18855e-07
-0.00431453
2.73074e-07
-0.00492104
2.22094e-07
1.60661e-07
-0.00551592
-0.000199885
0.000199997
-0.000628923
0.000429319
-0.00118204
0.000553493
-0.00179463
0.000613003
-0.00242935
0.000635114
-0.00306629
0.000637305
-0.00369596
0.000629985
-0.00431455
0.000618866
-0.00492106
0.000606735
0.000595043
-0.00551595
-0.000196413
0.000396409
-0.000619323
0.000852229
-0.0011658
0.00109997
-0.00177213
0.00121934
-0.00240117
0.00126415
-0.00303292
0.00126905
-0.00365766
0.00125473
-0.00427143
0.00123263
-0.00487308
0.00120838
0.0011849
-0.00546293
-0.000189543
0.000585952
-0.000600295
0.00126298
-0.00113359
0.00163326
-0.00172749
0.00181324
-0.00234529
0.00188195
-0.00296679
0.00189054
-0.00358189
0.00186983
-0.00418622
0.00183697
-0.00477835
0.00180051
0.00176493
-0.00535837
-0.000179423
0.000765375
-0.000572168
0.00165573
-0.00108589
0.00214699
-0.00166139
0.00238874
-0.00226262
0.00248318
-0.00286913
0.00249706
-0.00347025
0.00247094
-0.00406099
0.00242771
-0.00463944
0.00237896
0.00233077
-0.00520528
-0.000166248
0.000931623
-0.000535381
0.00202486
-0.00102338
0.00263499
-0.00157471
0.00294007
-0.00215436
0.00306283
-0.0027416
0.0030843
-0.00332501
0.00305435
-0.00389876
0.00300147
-0.00446018
0.00294038
0.00287887
-0.00500828
-0.000150244
0.00108187
-0.000490417
0.00236503
-0.000946734
0.0030913
-0.00146835
0.00346169
-0.00202174
0.00361621
-0.00258598
0.00364855
-0.0031488
0.00361717
-0.0037033
0.00355597
-0.00424566
0.00348273
0.00340693
-0.00477372
-0.000131639
0.00121351
-0.000437738
0.00267113
-0.000856538
0.0035101
-0.001343
0.00394815
-0.00186565
0.00413886
-0.00240368
0.00418658
-0.002944
0.00415749
-0.00347857
0.00409053
-0.00400195
0.00400611
0.00391469
-0.00450971
-0.000110652
0.00132416
-0.000377735
0.00293821
-0.000753137
0.0038855
-0.00119877
0.00439379
-0.00168603
0.00462612
-0.00219477
0.00469532
-0.00271147
0.00467419
-0.00322723
0.00460629
-0.00373499
0.00451388
0.00440491
-0.00422521
-8.75117e-05
0.00141167
-0.00031076
0.00316146
-0.000636593
0.00421134
-0.00103496
0.00479216
-0.00148105
0.0050722
-0.00195623
0.0051705
-0.00244736
0.00516532
-0.00294549
0.00510443
-0.00344451
0.00501289
0.00488856
-0.00392816
-6.25256e-05
0.0014742
-0.000237304
0.00333624
-0.000506854
0.00448089
-0.00084978
0.00513509
-0.00124543
0.00546785
-0.00167715
0.00560222
-0.0021334
0.00562157
-0.00260689
0.00557791
-0.00309665
0.00550265
0.0054315
-0.00363959
-3.62954e-05
0.00151049
-0.000158641
0.00345859
-0.000365103
0.00468735
-0.000642661
0.00541264
-0.000973684
0.00579887
-0.00134063
0.00596916
-0.00172865
0.0060096
-0.0021275
0.00597676
-0.00253371
0.00590886
0.00582753
-0.00292974
-9.86866e-06
0.00152036
-7.773e-05
0.00352645
-0.000216953
0.00482657
-0.000423577
0.00561927
-0.000684408
0.0060597
-0.000983354
0.00626811
-0.00130572
0.00633197
-0.00164068
0.00631172
-0.00198141
0.00624958
0.00617661
-0.00233049
1.55392e-05
0.00150482
1.97826e-06
0.00354001
-6.86972e-05
0.00489725
-0.000202315
0.00575289
-0.000391612
0.006249
-0.000623666
0.00650016
-0.000885189
0.00659349
-0.0011654
0.00659194
-0.00145598
0.00654016
0.00647069
-0.00175006
3.8989e-05
0.00146583
7.77352e-05
0.00350126
7.49601e-05
0.00490002
1.49412e-05
0.00581291
-0.000101749
0.00636569
-0.000266096
0.00666451
-0.00046647
0.00679386
-0.000691918
0.00681739
-0.000932736
0.00678098
0.00671714
-0.00117918
5.98259e-05
0.00140601
0.000147462
0.00341363
0.000210401
0.00483708
0.000223511
0.00579979
0.000180357
0.00640884
8.55373e-05
0.00675933
-5.13633e-05
0.00693076
-0.000219519
0.00698554
-0.000408289
0.00696975
0.00691602
-0.00060717
7.76129e-05
0.00132839
0.000209568
0.00328167
0.00033463
0.00471202
0.000419242
0.00571518
0.00044998
0.00637811
0.000426599
0.00678271
0.000356099
0.00700126
0.000248611
0.00709303
0.000115206
0.00710315
0.00706424
-3.30183e-05
9.20872e-05
0.00123631
0.000262865
0.00311089
0.000445147
0.00452974
0.000598354
0.00556198
0.000702421
0.00627404
0.00075196
0.00673317
0.000750761
0.00700246
0.000707527
0.00713626
0.000633143
0.00717754
0.00715817
0.000539213
0.000103131
0.00113318
0.000306524
0.0029075
0.000539892
0.00429637
0.000757362
0.00534451
0.00093291
0.00609849
0.00105589
0.00661019
0.00112629
0.00693206
0.0011506
0.00711195
0.00113884
0.0071893
0.00719424
0.00110277
0.000110752
0.00102242
0.00034005
0.0026782
0.000617256
0.00401916
0.000893133
0.00506863
0.0011367
0.00585493
0.00133221
0.00641468
0.00147541
0.00678886
0.00156984
0.00701752
0.0016239
0.00713525
0.00716916
0.00164898
0.000115074
0.000907349
0.000363295
0.00242998
0.000676158
0.0037063
0.00100307
0.00474172
0.00130938
0.00554861
0.00157472
0.00614935
0.00179038
0.0065732
0.00195639
0.00685151
0.00207875
0.00701289
0.00708009
0.00216782
0.000116314
0.000791035
0.000376452
0.00216984
0.000716121
0.00336663
0.00108533
0.0043725
0.00144726
0.00518669
0.0017777
0.00581891
0.00206365
0.00628724
0.00230118
0.00661398
0.00249326
0.00682081
0.00692498
0.00264837
0.000114816
0.000676219
0.000380124
0.00190453
0.000737435
0.00300932
0.00113914
0.0039708
0.00154783
0.004778
0.00193658
0.00543016
0.00228855
0.00593527
0.00259576
0.00630676
0.00285758
0.00655899
0.00670276
0.00307979
0.000110968
0.000565251
0.000375173
0.00164033
0.000741013
0.00264348
0.00116474
0.00354707
0.00160994
0.0043328
0.00204828
0.00499182
0.00245989
0.00552366
0.00283296
0.0059337
0.00316291
0.00622904
0.00641363
0.00345204
0.00010521
0.000460041
0.000362716
0.00138282
0.000728379
0.00227782
0.00116344
0.003112
0.00163394
0.00386231
0.00211157
0.00451418
0.00257452
0.00506071
0.0030077
0.00550052
0.00340251
0.00583423
0.00605908
0.00375707
9.79758e-05
0.000362065
0.000343953
0.00113685
0.000701411
0.00192036
0.00113734
0.00267607
0.00162148
0.00337817
0.00212701
0.00400866
0.00263147
0.00455625
0.00311738
0.00501461
0.00357236
0.00537924
0.00564174
0.00398969
8.96284e-05
0.000272437
0.000319985
0.000906491
0.000661991
0.00157835
0.00108881
0.00224925
0.00157487
0.00289211
0.00209623
0.0034873
0.00263133
0.00402115
0.00316152
0.00448442
0.00367116
0.00486961
0.00516479
0.00414811
8.04018e-05
0.000192035
0.000291617
0.000695275
0.000611602
0.00125837
0.0010198
0.00184105
0.00149603
0.00241587
0.00202059
0.00296274
0.00257456
0.00346718
0.00313994
0.00391904
0.00369886
0.00431068
0.00463057
0.00423308
7.03692e-05
0.000121666
0.000259255
0.00050639
0.000551052
0.000966572
0.000931221
0.00146089
0.00138534
0.00196175
0.00189904
0.00244904
0.00245813
0.00290809
0.0030482
0.00332898
0.00365205
0.00370683
0.00403838
0.00424424
5.94961e-05
6.21697e-05
0.000223044
0.000342842
0.000480651
0.000708965
0.000823009
0.00111853
0.00124104
0.00154373
0.00172611
0.00196396
0.00227055
0.00236365
0.00286781
0.00273172
0.00350956
0.00306508
0.00338068
0.00416727
4.78246e-05
1.43451e-05
0.000183411
0.000207255
0.000401245
0.00049113
0.000695659
0.000824115
0.00106096
0.00117843
0.00149212
0.0015328
0.00198603
0.00186975
0.00254423
0.00217351
0.00317914
0.00243017
0.0026315
0.00392833
3.57763e-05
-2.14312e-05
0.000142031
0.000101001
0.000316567
0.000316594
0.000555384
0.000585298
0.000852798
0.000881013
0.00120133
0.00118427
0.00159129
0.00147979
0.00200935
0.00175545
0.0024372
0.00200232
0.00221838
0.00285031
2.4239e-05
-4.56701e-05
0.000102197
2.30426e-05
0.000234768
0.000184023
0.0004198
0.000400266
0.000652775
0.000648039
0.000927038
0.000910009
0.00123412
0.00117271
0.00156462
0.00142495
0.00191135
0.00165559
0.00184827
0.00228146
1.39726e-05
-5.96427e-05
6.65982e-05
-2.9583e-05
0.000161938
8.86833e-05
0.000300324
0.00026188
0.000479709
0.000468654
0.000696384
0.000693334
0.000945762
0.000923329
0.00122346
0.00114725
0.00152664
0.00135242
0.00152015
0.00185475
5.3444e-06
-6.49871e-05
3.64996e-05
-6.07382e-05
0.00010056
2.46226e-05
0.000200485
0.000161955
0.000336863
0.000332276
0.000508833
0.000521364
0.000714844
0.000717318
0.000953286
0.000908809
0.00122252
0.00108318
0.00122416
0.00151852
-1.58603e-06
-6.34011e-05
1.21346e-05
-7.44588e-05
5.0928e-05
-1.41707e-05
0.000120139
9.27441e-05
0.000222605
0.000229811
0.000359586
0.000384383
0.00053134
0.000545563
0.000737341
0.000702808
0.000975782
0.000844742
0.000958261
0.00124168
-6.93891e-06
-5.64622e-05
-6.85706e-06
-7.45407e-05
1.2184e-05
-3.32117e-05
5.74738e-05
4.74542e-05
0.000133531
0.000153754
0.000242972
0.000274942
0.000386919
0.000401615
0.000565031
0.000524696
0.000774977
0.000634796
0.000721897
0.00101134
-1.09128e-05
-4.55494e-05
-2.10936e-05
-6.43599e-05
-1.69654e-05
-3.734e-05
1.02016e-05
2.02873e-05
6.60573e-05
9.78979e-05
0.00015397
0.000187029
0.000275357
0.000280229
0.000429685
0.000370368
0.000614135
0.000450346
0.000512988
0.000823044
-1.37057e-05
-3.18437e-05
-3.11923e-05
-4.68733e-05
-3.77452e-05
-3.07871e-05
-2.36607e-05
6.20284e-06
1.74049e-05
5.68323e-05
8.91751e-05
0.000115259
0.000193076
0.000176327
0.000328289
0.000235156
0.000491611
0.000287024
0.000327317
0.000677282
-1.54788e-05
-1.63648e-05
-3.76504e-05
-2.47017e-05
-5.1097e-05
-1.73405e-05
-4.55268e-05
6.32685e-07
-1.4221e-05
2.55265e-05
4.66837e-05
5.43545e-05
0.000138529
8.44825e-05
0.000260246
0.000113438
0.000408382
0.000138888
0.000158554
0.000577145
-1.6342e-05
-4.08046e-05
-5.76376e-05
-5.62737e-05
-2.98313e-05
2.55936e-05
0.000111272
0.000225998
0.000366188
0.000526044
0.00340049
-0.00288773
1.33573e-05
0.0054736
-0.00207406
9.49089e-07
0.00662064
-0.00114831
1.2642e-06
0.00707393
-0.000452494
-7.91596e-07
0.00724171
-0.000164641
-3.13613e-06
0.00727166
-2.82476e-05
-1.70389e-06
0.00724528
2.64179e-05
-3.75125e-08
0.00719244
5.81537e-05
-5.31489e-06
0.00712836
6.49129e-05
-8.30444e-07
7.24458e-05
-5.74788e-07
0.00344613
-0.00575645
0.00546336
-0.00409129
0.00659585
-0.0022808
0.00704815
-0.000904797
0.00721858
-0.000335065
0.00725272
-6.23876e-05
0.00723096
4.81781e-05
0.00718287
0.000106241
0.00712359
0.000124191
0.000139496
0.00353062
-0.00860928
0.00544188
-0.00600254
0.00654599
-0.00338492
0.00699663
-0.00135543
0.00717244
-0.000510878
0.00721495
-0.000104895
0.0072024
6.07316e-05
0.0071638
0.00014484
0.0071141
0.000173891
0.000196935
0.00364156
-0.011427
0.00540718
-0.00776816
0.00647062
-0.00444836
0.00691946
-0.00180428
0.00710355
-0.000694965
0.00715859
-0.000159936
0.00715978
5.95388e-05
0.00713535
0.00016927
0.00709994
0.000209301
0.000240029
0.00376258
-0.0141773
0.00535633
-0.00936192
0.00636907
-0.0054611
0.00681678
-0.00225199
0.00701225
-0.000890428
0.00708397
-0.000231659
0.00710337
4.01343e-05
0.00709771
0.000174937
0.00708121
0.000225794
0.000264136
0.00387577
-0.0168101
0.00528567
-0.0107718
0.00624058
-0.00641601
0.0066888
-0.00270021
0.006899
-0.00110063
0.00699153
-0.000324188
0.00703352
-1.85654e-06
0.0070511
0.00015736
0.00705803
0.000218859
0.000264729
0.00396203
-0.0192521
0.00519041
-0.0120002
0.00608426
-0.00730986
0.00653577
-0.00315172
0.00676438
-0.00132924
0.0068818
-0.000441615
0.00695064
-7.06947e-05
0.00699581
0.000112196
0.00703054
0.000184126
0.000237427
0.00400114
-0.021397
0.00506419
-0.0130632
0.0058991
-0.00814477
0.00635801
-0.00361063
0.00660905
-0.00158028
0.00675543
-0.000587993
0.00685524
-0.000170509
0.00693218
3.52638e-05
0.00699891
0.000117396
0.000178018
0.00399316
-0.0231074
0.00490383
-0.0139739
0.0056851
-0.00892604
0.00615608
-0.00408161
0.00643382
-0.00185802
0.00661314
-0.000767307
0.0067479
-0.00030527
0.00686059
-7.74294e-05
0.00696332
1.46636e-05
8.24863e-05
0.00395424
-0.0242103
0.00472462
-0.0147443
0.00544449
-0.00964591
0.00593122
-0.00456833
0.00623942
-0.00216622
0.00645573
-0.000983622
0.00662922
-0.000478757
0.00678148
-0.000229688
0.00692399
-0.000127847
-5.29816e-05
0.044461
-0.0161796
-0.0524917
0.0424636
-0.0127469
0.0414984
-0.00868075
0.0418617
-0.00493165
0.042232
-0.00253655
0.0425151
-0.00126672
0.042685
-0.000648624
0.0427868
-0.000331462
0.0428455
-0.000186567
-7.97765e-05
0.047864
-0.00853693
-0.0555066
0.0448573
-0.00974022
0.043095
-0.0069184
0.0425715
-0.00440816
0.0425621
-0.00252713
0.0426679
-0.00137258
0.042762
-0.000742703
0.0428284
-0.000397875
0.0428709
-0.00022901
-9.93084e-05
0.0481436
-0.00358385
-0.0530967
0.0453356
-0.00693222
0.0437745
-0.00535728
0.0430524
-0.00368607
0.0428402
-0.00231498
0.0428187
-0.001351
0.0428436
-0.000767635
0.0428728
-0.000427113
0.0428955
-0.000251668
-0.000110457
0.0475721
-0.000917607
-0.0502384
0.0453544
-0.00471453
0.0440715
-0.00407435
0.0433656
-0.00298016
0.043059
-0.00200837
0.0429522
-0.00124426
0.0429218
-0.000737196
0.0429176
-0.000422937
0.0429206
-0.000254611
-0.000113043
0.0468686
0.000342972
-0.0481292
0.0452432
-0.00308905
0.0442041
-0.00303533
0.0435678
-0.00234379
0.0432252
-0.00166577
0.0430642
-0.00108324
0.0429918
-0.000664857
0.0429599
-0.000391006
0.042945
-0.000239759
-0.000107578
0.0462435
0.000812645
-0.0467132
0.0451024
-0.00194787
0.0442604
-0.00219336
0.0436971
-0.00178051
0.0433481
-0.00131682
0.0431543
-0.000889436
0.0430514
-0.000561907
0.0429974
-0.000337054
0.0429675
-0.000209802
-9.50062e-05
0.045741
0.000850525
-0.0457789
0.0449666
-0.00117349
0.0442807
-0.00150738
0.043779
-0.00127886
0.0434363
-0.000974157
0.0432239
-0.000676991
0.0430994
-0.000437428
0.0430288
-0.000266402
0.0429867
-0.000167747
-7.65382e-05
0.0453722
0.000659588
-0.0451812
0.0448516
-0.000652923
0.0442831
-0.000938841
0.043829
-0.00082482
0.0434964
-0.000641571
0.0432743
-0.000454816
0.0431355
-0.000298641
0.0430529
-0.000183857
0.0430019
-0.000116687
-5.35444e-05
0.0451311
0.000353252
-0.0448248
0.0447684
-0.000290148
0.0442788
-0.000449272
0.0438573
-0.000403367
0.0435337
-0.000317906
0.043307
-0.000228125
0.0431596
-0.000151236
0.0430695
-9.37239e-05
0.0430125
-5.97045e-05
-2.74969e-05
0.0450117
-0.0446584
0.0447215
0.0442722
0.0438689
0.043551
0.0433229
0.0431716
0.0430779
0.0430182
0.0568984
0.0019687
-0.0562213
0.0574354
0.00254008
0.0577949
0.00308969
0.0579393
0.00360993
0.0578327
0.00409355
0.0574442
0.00453411
0.0567485
0.00492652
0.0557233
0.00526748
0.0543332
0.00555592
0.00576899
0.0510639
0.00144485
-0.0505401
0.051624
0.00198001
0.0522079
0.00250581
0.0528003
0.00301751
0.0533836
0.00351022
0.0539387
0.00397901
0.0544462
0.00441903
0.0548879
0.0048258
0.0552484
0.00519539
0.0055108
0.0473966
0.00106685
-0.0470186
0.0478433
0.00153332
0.048355
0.00199418
0.0489262
0.0024463
0.0495499
0.0028865
0.0502173
0.00331157
0.0509181
0.0037183
0.0516404
0.00410342
0.0523725
0.00446335
0.00478658
0.0449274
0.000801202
-0.0446618
0.0452642
0.0011966
0.0456709
0.00158741
0.0461461
0.0019711
0.0466874
0.00234523
0.0472916
0.00270741
0.0479546
0.00305532
0.0486713
0.00338666
0.0494359
0.00369882
0.00398409
0.043407
0.000600542
-0.0432063
0.043677
0.000926574
0.0440155
0.00124892
0.0444211
0.00156551
0.0448919
0.00187435
0.0454259
0.00217348
0.0460201
0.00246105
0.0466716
0.00273523
0.0473765
0.0029939
0.00323135
0.0424311
0.000441242
-0.0422718
0.0426578
0.000699883
0.0429511
0.000955646
0.0433097
0.0012069
0.043732
0.00145203
0.044216
0.00168951
0.0447592
0.00191782
0.045359
0.00213551
0.046012
0.00234091
0.0025301
0.0418117
0.000309735
-0.0416802
0.042009
0.000502543
0.0422714
0.000693263
0.0425976
0.000880666
0.0429861
0.00106355
0.0434349
0.00124076
0.0439415
0.00141117
0.0445034
0.00157365
0.0451173
0.00172698
0.00186853
0.0414227
0.000196657
-0.0413096
0.0416006
0.000324674
0.0418425
0.000451362
0.0421472
0.000575903
0.0425133
0.000697494
0.0429387
0.000815354
0.0434212
0.000928721
0.043958
0.00103685
0.044546
0.0011389
0.00123332
0.0411938
9.5215e-05
-0.0410923
0.0413594
0.000159087
0.0415884
0.000222335
0.0418797
0.000284548
0.0422319
0.000345329
0.042643
0.000404276
0.0431107
0.000461003
0.0436324
0.000515129
0.0442051
0.000566243
0.000613595
0.0410869
-0.0409917
0.041246
0.0414683
0.0417528
0.0420982
0.0425024
0.0429635
0.0434786
0.0440448
0.0485097
-0.00348304
-0.0479566
0.0492196
-0.0030406
0.0500349
-0.00256578
0.050913
-0.00205789
0.0518257
-0.0015208
0.052754
-0.000962578
0.0536799
-0.000388127
0.0545827
0.000198119
0.0554389
0.00079065
0.00138314
0.0481236
-0.00352477
-0.0480819
0.048203
-0.00311994
0.0483196
-0.0026824
0.0484795
-0.00221784
0.048688
-0.00172929
0.0489486
-0.00122311
0.0492639
-0.000703416
0.0496352
-0.000173235
0.0500618
0.000364096
0.000904806
0.0467884
-0.00323983
-0.0470734
0.0465537
-0.00288518
0.0463749
-0.0025036
0.0462574
-0.00210035
0.0462067
-0.00167855
0.0462254
-0.00124188
0.0463152
-0.000793221
0.0464772
-0.000335162
0.0467117
0.000129531
0.000597891
0.0454015
-0.00284296
-0.0457983
0.0450592
-0.0025429
0.0447758
-0.00222025
0.0445551
-0.00187959
0.0443999
-0.00152338
0.0443123
-0.00115426
0.0442936
-0.000774575
0.0443451
-0.000386677
0.0444677
6.96965e-06
0.000403798
0.0444408
-0.00240276
-0.044881
0.0440527
-0.00215473
0.0437213
-0.00188889
0.0434501
-0.00160838
0.0432418
-0.0013151
0.0430987
-0.00101108
0.0430223
-0.000698256
0.0430143
-0.000378604
0.0430754
-5.41748e-05
0.000272921
0.0437902
-0.00193952
-0.0442534
0.043378
-0.00174251
0.0430209
-0.00153181
0.0427221
-0.00130961
0.0424843
-0.00107731
0.0423097
-0.00083644
0.0422
-0.000588538
0.0421565
-0.000335173
0.0421803
-7.79702e-05
0.000181402
0.0433776
-0.00146336
-0.0438538
0.0429516
-0.00131645
0.0425793
-0.00115957
0.0422639
-0.000994168
0.0420079
-0.000821258
0.0418134
-0.000641947
0.0416822
-0.00045737
0.0416157
-0.000268696
0.0416149
-7.71288e-05
0.000116099
0.0431236
-0.000979075
-0.0436079
0.0426888
-0.000881617
0.0423068
-0.000777632
0.0419807
-0.000668014
0.0417128
-0.000553426
0.0415055
-0.000434581
0.0413603
-0.000312222
0.0412787
-0.000187117
0.0412617
-6.00599e-05
6.81393e-05
0.0429779
-0.000490192
-0.0434668
0.042538
-0.000441699
0.0421503
-0.000389975
0.0418178
-0.000335444
0.0415428
-0.000278434
0.0413275
-0.00021929
0.0411736
-0.000158378
0.0410826
-9.60762e-05
0.0410553
-3.27747e-05
3.11262e-05
0.0429126
-0.0434028
0.0424709
0.0420809
0.0417455
0.0414671
0.0412478
0.0410894
0.0409933
0.0409605
0.0429508
0.000165934
-0.000187762
0.0430041
0.000495231
-0.000548617
0.0430941
0.000827323
-0.000917284
0.0432393
0.00116969
-0.00131493
0.043471
0.00152826
-0.00175995
0.0438339
0.00190817
-0.00227106
0.0443879
0.00231289
-0.00286691
0.0452059
0.00274637
-0.00356433
0.0463842
0.00318403
-0.00436236
0.00372111
-0.00529349
0.042967
0.000127888
0.0430785
0.00038371
0.0432667
0.000639121
0.043542
0.000894386
0.0439195
0.00115074
0.0444184
0.00140929
0.0450608
0.00167052
0.045871
0.00193614
0.0468635
0.00219157
0.00250268
0.0429662
9.05796e-05
0.0430767
0.000273244
0.04326
0.000455799
0.0435197
0.000634712
0.0438609
0.000809527
0.0442904
0.000979825
0.0448159
0.00114502
0.0454468
0.0013052
0.0461861
0.00145229
0.00161539
0.0429576
6.19232e-05
0.0430433
0.000187559
0.0431859
0.000313218
0.0433855
0.000435043
0.0436428
0.000552273
0.0439582
0.000664394
0.0443321
0.00077115
0.0447644
0.000872915
0.0452502
0.000966412
0.0010673
0.0429491
4.17152e-05
0.0430101
0.000126615
0.0431118
0.000211454
0.0432536
0.000293262
0.0434345
0.000371411
0.0436533
0.000445538
0.0439089
0.000515625
0.0441997
0.000582119
0.0445224
0.000643726
0.000708598
0.042943
2.76699e-05
0.0429855
8.41191e-05
0.0430564
0.000140489
0.043155
0.000194728
0.04328
0.00024643
0.0434301
0.0002954
0.043604
0.000341758
0.0438001
0.000385965
0.0440162
0.000427653
0.00047134
0.0429388
1.78052e-05
0.0429687
5.4204e-05
0.0430187
9.05398e-05
0.0430879
0.000125492
0.0431755
0.000158826
0.0432804
0.000190457
0.0434017
0.000220536
0.0435382
0.000249448
0.0436887
0.000277168
0.000306208
0.0429361
1.06001e-05
0.042958
3.23058e-05
0.0429946
5.39714e-05
0.0430453
7.48207e-05
0.0431094
9.47322e-05
0.0431861
0.000113677
0.0432749
0.00013178
0.043375
0.000149311
0.0434859
0.000166337
0.000184201
0.0429346
4.94324e-06
0.0429518
1.5085e-05
0.0429806
2.5204e-05
0.0430204
3.49458e-05
0.0430709
4.42604e-05
0.0431315
5.31411e-05
0.0432016
6.16576e-05
0.0432809
6.99488e-05
0.0433692