/*--------------------------------*- C++ -*----------------------------------*\
  =========                 |
  \\      /  F ield         | OpenFOAM: The Open Source CFD Toolbox
   \\    /   O peration     | Website:  https://openfoam.org
    \\  /    A nd           | Version:  6.0
     \\/     M anipulation  |
\*---------------------------------------------------------------------------*/
FoamFile
{
    version     2.0;
    format      ascii;
    class       volVectorField;
    location    "2";
    object      U;
}
// * * * * * * * * * * * * * * * * * * * * * * * * * * * * * * * * * * * * * //

dimensions      [0 1 -1 0 0 0 0];

internalField   nonuniform List<vector> 
2000
(
(-0.00208673 0.00157035 6.75802e-20)
(-0.00660286 0.0021941 7.95221e-20)
(-0.0107908 0.00123328 -7.52839e-20)
(-0.0117468 -0.000657469 -1.51551e-19)
(-0.00853408 -0.00306985 -1.0405e-19)
(-0.0011436 -0.00570409 1.37275e-19)
(0.0100765 -0.00830792 7.7565e-20)
(0.0243077 -0.0106629 -3.21294e-20)
(0.0401921 -0.0125759 -7.73125e-20)
(0.0577586 -0.0138401 5.50655e-20)
(-0.00251135 0.00461391 -1.67643e-19)
(-0.00693015 0.00645412 2.29469e-19)
(-0.0102814 0.003651 2.07432e-20)
(-0.00999478 -0.00190267 -1.29896e-19)
(-0.00531949 -0.00900765 6.1692e-19)
(0.00364124 -0.01678 -2.68183e-19)
(0.0164599 -0.0244773 -2.83933e-19)
(0.0322705 -0.0314548 3.39444e-19)
(0.0496762 -0.0371483 -3.25722e-19)
(0.0685339 -0.0409168 1.68935e-19)
(-0.00329647 0.00734008 2.80458e-20)
(-0.00742716 0.0100478 1.07412e-20)
(-0.00903997 0.00532866 6.84676e-19)
(-0.00623043 -0.00379253 2.36542e-19)
(0.00138165 -0.0154012 4.58176e-20)
(0.0134696 -0.0280906 3.78345e-19)
(0.0294513 -0.0406754 -7.11254e-19)
(0.0483699 -0.0521089 1.51444e-20)
(0.068755 -0.0614559 -4.1249e-19)
(0.0901153 -0.0676533 4.28776e-19)
(-0.00431393 0.00954128 -5.28066e-20)
(-0.00776985 0.0125548 3.00696e-19)
(-0.0066077 0.00582315 -8.70998e-19)
(8.40679e-05 -0.00667322 -1.09449e-19)
(0.0121376 -0.0224325 -6.25478e-19)
(0.0288962 -0.0396253 6.41961e-19)
(0.0495503 -0.0567056 -6.74641e-19)
(0.0730131 -0.0722746 4.69168e-19)
(0.0977187 -0.085032 1.95626e-19)
(0.122645 -0.0935216 -2.06285e-19)
(-0.00536344 0.0110189 -5.90532e-19)
(-0.00746277 0.0135946 7.6247e-21)
(-0.00228725 0.00476723 1.08042e-18)
(0.00976779 -0.010774 3.1592e-19)
(0.0278182 -0.0301141 -1.01104e-18)
(0.0507747 -0.0511388 6.28093e-19)
(0.0775306 -0.0720631 6.90966e-19)
(0.106838 -0.0912215 -6.12207e-19)
(0.137035 -0.106972 4.33096e-19)
(0.16639 -0.117525 1.11826e-19)
(-0.00616756 0.0115905 8.05441e-20)
(-0.00583343 0.0128444 1.45397e-20)
(0.00485709 0.00189452 -1.39462e-18)
(0.0239166 -0.0161796 -7.72256e-19)
(0.0495929 -0.0382566 9.14418e-19)
(0.0802674 -0.062103 -1.06308e-18)
(0.114463 -0.0858566 1.2024e-18)
(0.150743 -0.107723 -1.07718e-19)
(0.187387 -0.125785 -3.35955e-19)
(0.2218 -0.13803 -9.49863e-19)
(-0.00636913 0.0111007 -1.7787e-19)
(-0.00204159 0.0100667 -3.24398e-19)
(0.0159747 -0.00293853 -3.97029e-19)
(0.0438718 -0.0228224 8.39126e-19)
(0.0789057 -0.0464781 1.54496e-18)
(0.118836 -0.0717261 -3.21118e-19)
(0.161734 -0.0968211 -7.50995e-19)
(0.205933 -0.120051 2.30329e-19)
(0.249741 -0.139368 -1.41338e-18)
(0.289641 -0.152716 1.54276e-18)
(-0.00553891 0.00944409 1.08901e-18)
(0.00488613 0.00514607 -5.96694e-19)
(0.032364 -0.00972808 1.15333e-18)
(0.0711313 -0.0304913 -1.88143e-18)
(0.117369 -0.0542552 -8.93798e-19)
(0.168129 -0.0790343 -1.23076e-18)
(0.220931 -0.103385 3.63195e-19)
(0.273804 -0.125937 -9.65438e-19)
(0.325224 -0.144748 2.10609e-18)
(0.370925 -0.15805 5.62379e-19)
(-0.00320002 0.00659529 8.15757e-20)
(0.015985 -0.0018623 9.69511e-19)
(0.0553596 -0.0182993 1.93037e-18)
(0.107207 -0.0388683 5.85987e-19)
(0.166612 -0.0610493 1.73447e-18)
(0.229853 -0.0830809 9.20712e-20)
(0.293747 -0.103837 9.15455e-21)
(0.355811 -0.122345 6.93692e-19)
(0.414729 -0.136899 5.37646e-19)
(0.466083 -0.147071 -1.75437e-18)
(0.00112013 0.00264719 -6.47627e-19)
(0.0322253 -0.0106781 -1.08633e-18)
(0.0861444 -0.0282912 -1.57902e-18)
(0.153407 -0.0476319 3.77955e-20)
(0.228143 -0.0666742 -8.01122e-19)
(0.305971 -0.0837951 1.26197e-18)
(0.383082 -0.0978678 -3.44977e-18)
(0.456273 -0.107771 1.54863e-18)
(0.523563 -0.111863 5.62352e-19)
(0.580335 -0.113076 1.71846e-18)
(0.00780512 -0.00214932 3.25111e-19)
(0.054307 -0.0207251 -1.24514e-18)
(0.12538 -0.0390781 1.1138e-18)
(0.210174 -0.0564431 -4.32865e-19)
(0.302194 -0.0715638 4.7109e-19)
(0.396928 -0.0830761 1.01607e-18)
(0.490975 -0.089715 -1.36463e-18)
(0.582183 -0.089913 1.63437e-19)
(0.669475 -0.0831363 -6.42352e-19)
(0.751919 -0.0762166 1.13482e-18)
(0.0170776 -0.00736139 4.64064e-19)
(0.0825016 -0.0310335 -1.1306e-18)
(0.172905 -0.0494897 1.54774e-18)
(0.276364 -0.0642939 -9.63911e-19)
(0.385809 -0.0754406 -3.57344e-19)
(0.49646 -0.0824408 2.11438e-19)
(0.604842 -0.0849037 1.16397e-19)
(0.708685 -0.0824678 1.43277e-18)
(0.805973 -0.0764154 4.03061e-19)
(0.892832 -0.0722991 1.6199e-18)
(0.0290121 -0.0124089 -4.1342e-19)
(0.116749 -0.0402397 1.45965e-18)
(0.228136 -0.0576192 -1.22844e-18)
(0.350483 -0.068765 -1.44634e-18)
(0.476169 -0.0751289 2.02117e-18)
(0.600007 -0.077205 -1.52608e-18)
(0.718147 -0.0754676 4.04023e-19)
(0.827807 -0.0703854 -2.30498e-18)
(0.926294 -0.0634451 1.71438e-18)
(1.00921 -0.0576998 7.51262e-20)
(0.0435721 -0.0166657 -5.36863e-19)
(0.156725 -0.0468518 -5.23511e-19)
(0.290222 -0.0613929 -1.12526e-18)
(0.430997 -0.0673304 1.36413e-18)
(0.571062 -0.0676526 -6.82333e-20)
(0.704978 -0.0638195 8.80451e-19)
(0.82876 -0.0570295 1.58166e-18)
(0.939535 -0.0482349 -4.86366e-19)
(1.03474 -0.0386256 -1.62636e-18)
(1.11064 -0.0296241 3.21707e-18)
(0.0606255 -0.0195277 -2.75567e-19)
(0.201834 -0.0494523 -3.3059e-19)
(0.357966 -0.0589377 6.05523e-19)
(0.51607 -0.0579127 -1.12872e-18)
(0.668143 -0.0509121 1.93971e-19)
(0.808847 -0.0403044 1.72109e-19)
(0.934504 -0.0278824 6.84313e-20)
(1.04272 -0.014883 -2.44962e-20)
(1.13168 -0.00212732 -1.93093e-19)
(1.19879 0.00987117 -2.72262e-18)
(0.0799353 -0.020439 1.12024e-18)
(0.25118 -0.0468035 -7.83972e-19)
(0.429756 -0.048754 9.4298e-21)
(0.603434 -0.0390649 -1.21457e-18)
(0.764671 -0.0237503 -4.33736e-19)
(0.908716 -0.00597311 4.09701e-19)
(1.0327 0.0120402 3.06937e-19)
(1.13523 0.0289381 -1.10059e-18)
(1.21565 0.0443022 8.71884e-19)
(1.27273 0.0581199 -1.14267e-18)
(0.101141 -0.0189039 4.79697e-19)
(0.303559 -0.0379103 -4.2958e-19)
(0.503581 -0.0298111 1.80632e-18)
(0.69043 -0.0100471 1.87016e-19)
(0.857613 0.0140649 4.25349e-19)
(1.00152 0.0387672 1.88933e-18)
(1.1206 0.061628 -2.93166e-19)
(1.21487 0.0813979 2.50118e-19)
(1.28511 0.0981488 9.43687e-20)
(1.33153 0.112171 -1.35554e-19)
(0.123742 -0.0145037 3.32141e-19)
(0.357462 -0.0220692 8.11764e-19)
(0.577099 -0.00159691 -8.80552e-19)
(0.774156 0.0291724 -3.00351e-19)
(0.943857 0.0619398 -3.70239e-19)
(1.0843 0.0926658 5.67974e-19)
(1.19573 0.119023 -2.92066e-19)
(1.27984 0.140131 7.84414e-19)
(1.33898 0.156683 2.57292e-19)
(1.37478 0.169195 -4.24453e-19)
(0.147093 -0.00692203 -3.58748e-19)
(0.411124 0.00108188 3.21072e-19)
(0.647756 0.0358521 -6.91682e-19)
(0.851653 0.0779503 3e-19)
(1.02045 0.118584 -3.12157e-19)
(1.1545 0.15386 -3.88352e-19)
(1.25616 0.181932 -3.09185e-19)
(1.329 0.202582 3.44106e-19)
(1.37686 0.217258 -6.41243e-19)
(1.4027 0.22669 3.9265e-19)
(0.170416 0.00402141 -1.26872e-19)
(0.462597 0.0315165 -2.5173e-19)
(0.712924 0.0819405 1.2034e-19)
(0.920103 0.135027 7.18409e-21)
(1.08483 0.182148 1.00923e-19)
(1.21012 0.22008 1.37806e-19)
(1.30067 0.247868 1.27086e-19)
(1.3619 0.26623 -1.68487e-19)
(1.39899 0.277476 1.42127e-19)
(1.41605 0.282559 -2.2311e-19)
(0.19283 0.0183372 -7.30635e-20)
(0.509846 0.0687818 -2.74421e-20)
(0.770067 0.135525 1.11916e-19)
(0.977013 0.198606 -5.12806e-20)
(1.13496 0.250369 1.37773e-19)
(1.24986 0.288835 -1.77863e-19)
(1.32876 0.314331 4.14727e-20)
(1.37877 0.328738 4.39851e-20)
(1.40617 0.335275 -1.80562e-20)
(1.41597 0.335123 6.9688e-20)
(0.21339 0.0358371 -7.78492e-20)
(0.550868 0.111982 -3.60676e-19)
(0.816891 0.194952 -2.61576e-20)
(1.02037 0.26646 7.76492e-21)
(1.16947 0.320719 -4.7805e-19)
(1.27314 0.357565 6.258e-20)
(1.3406 0.378942 -5.39291e-20)
(1.38042 0.38803 -1.30722e-19)
(1.39963 0.388944 2.73853e-19)
(1.4039 0.383079 -5.02409e-19)
(0.231145 0.0561146 -3.76731e-20)
(0.583811 0.159782 7.32264e-19)
(0.851494 0.258124 1.19465e-19)
(1.04874 0.336044 -6.51572e-19)
(1.18767 0.390538 -5.38076e-20)
(1.28004 0.423765 -6.34753e-19)
(1.33698 0.43952 4.68346e-19)
(1.36808 0.442321 -1.72106e-19)
(1.38087 0.437096 3.07956e-19)
(1.38137 0.425433 -2.32975e-19)
(0.245194 0.0785403 -2.40351e-19)
(0.607103 0.210454 2.36611e-19)
(0.872476 0.322598 -1.70807e-19)
(1.06135 0.404625 1.28861e-18)
(1.18955 0.457164 6.42119e-19)
(1.27129 0.48508 -1.50193e-19)
(1.31913 0.49413 5.16716e-19)
(1.34333 0.490108 -3.39821e-19)
(1.35155 0.478615 -9.69413e-20)
(1.35 0.461413 6.55546e-19)
(0.254749 0.102273 -4.19688e-19)
(0.619556 0.26194 5.45436e-19)
(0.879021 0.385697 -1.08247e-18)
(1.0581 0.469411 1.55696e-19)
(1.17576 0.518032 3.56102e-19)
(1.24813 0.539361 -5.30783e-19)
(1.28869 0.541089 -6.59814e-19)
(1.30795 0.530134 3.01545e-19)
(1.31345 0.512592 -3.68923e-19)
(1.31142 0.490406 4.89365e-19)
(0.259193 0.126286 -1.05314e-19)
(0.620443 0.311949 -5.57985e-19)
(0.870934 0.444646 3.05453e-19)
(1.0395 0.527677 5.43659e-19)
(1.14747 0.570769 -3.21498e-19)
(1.21221 0.584701 -2.5095e-19)
(1.24754 0.578954 -1.91558e-19)
(1.26386 0.561338 -9.04428e-20)
(1.2684 0.538251 3.83616e-21)
(1.26726 0.511857 2.65872e-19)
(0.258133 0.149413 8.77231e-20)
(0.609563 0.358076 -5.04097e-19)
(0.848645 0.496716 8.53119e-19)
(1.00665 0.576888 -4.99374e-19)
(1.1063 0.613264 1.76158e-19)
(1.16545 0.619463 -2.37896e-19)
(1.19774 0.606502 2.5883e-19)
(1.21305 0.582803 1.07931e-19)
(1.21819 0.55485 7.35813e-20)
(1.21911 0.525137 -1.22295e-19)
(0.251442 0.17041 -2.38581e-19)
(0.587265 0.397943 4.82539e-19)
(0.813165 0.539369 -1.38631e-20)
(0.961133 0.614816 -1.25328e-19)
(1.0542 0.643749 -2.35152e-19)
(1.10999 0.642323 4.50421e-20)
(1.14145 0.622776 -7.86621e-20)
(1.15766 0.593814 -5.35372e-20)
(1.16493 0.561734 4.90672e-20)
(1.16902 0.52952 9.38809e-20)
(0.239293 0.18804 1.4333e-19)
(0.554439 0.429348 -1.18607e-19)
(0.76601 0.570403 -4.21498e-20)
(0.904837 0.639617 1.97573e-19)
(0.993203 0.660788 -1.00264e-19)
(1.04792 0.652179 -4.93082e-20)
(1.08084 0.626921 -2.07776e-19)
(1.10009 0.593704 -9.98991e-20)
(1.11152 0.558329 -1.34684e-19)
(1.12032 0.524469 9.86032e-20)
(0.222174 0.20117 1.33433e-20)
(0.512481 0.450443 -7.55349e-20)
(0.709097 0.588113 7.89583e-20)
(0.839812 0.649958 -2.07591e-19)
(0.925181 0.663303 4.39162e-20)
(0.980724 0.647908 4.11755e-19)
(1.0171 0.617387 -1.28133e-19)
(1.04163 0.580118 1.41443e-19)
(1.05974 0.541298 2.24203e-19)
(1.07482 0.506438 8.3967e-19)
(0.20089 0.208894 5.7075e-19)
(0.463255 0.459906 -3.69654e-19)
(0.644707 0.591515 9.44446e-19)
(0.76822 0.645389 -1.60072e-19)
(0.851694 0.651282 8.43501e-19)
(0.908921 0.629583 5.32878e-19)
(0.949316 0.59359 -1.24684e-18)
(0.979529 0.55044 1.9214e-18)
(1.00429 0.50247 -4.11133e-19)
(1.01984 0.454049 8.31404e-19)
(0.176525 0.21059 -3.21565e-19)
(0.409053 0.456999 -2.44492e-19)
(0.575567 0.580359 2.56365e-19)
(0.692726 0.626444 -5.76058e-19)
(0.774926 0.626415 -1.81261e-18)
(0.833761 0.600817 -7.41301e-19)
(0.877186 0.562714 -6.56619e-19)
(0.910873 0.519316 3.29524e-19)
(0.938088 0.474104 2.69979e-18)
(0.95456 0.432102 -5.57169e-19)
(0.150354 0.205915 1.83441e-19)
(0.352471 0.441417 -7.58197e-19)
(0.504818 0.554667 1.64143e-19)
(0.616743 0.593455 -1.19786e-18)
(0.698689 0.589171 2.60851e-18)
(0.759902 0.561895 -3.09281e-19)
(0.806841 0.524091 1.43583e-18)
(0.844159 0.482608 -2.04754e-18)
(0.874492 0.440921 6.47189e-19)
(0.895029 0.403385 1.02085e-19)
(0.123719 0.194786 1.36675e-19)
(0.296132 0.413278 8.29742e-19)
(0.4355 0.514776 -2.46332e-18)
(0.543361 0.546819 1.19181e-18)
(0.626026 0.539774 1.77529e-21)
(0.690406 0.512584 -4.03514e-19)
(0.741543 0.476767 5.15973e-19)
(0.783223 0.438574 -5.05309e-19)
(0.817719 0.401137 -1.73187e-18)
(0.843209 0.367744 -4.81151e-19)
(0.097943 0.177382 4.58004e-19)
(0.242542 0.373133 5.13484e-19)
(0.370422 0.461442 2.11149e-18)
(0.475283 0.487307 -1.17729e-18)
(0.559362 0.478834 2.42539e-18)
(0.627334 0.453202 -5.20904e-19)
(0.682939 0.420656 -5.47814e-19)
(0.729209 0.38668 6.50234e-19)
(0.768127 0.353939 4.2364e-19)
(0.798608 0.324789 1.53258e-18)
(0.0742771 0.154134 -4.70102e-19)
(0.194008 0.321963 1.55284e-19)
(0.3121 0.395863 4.32779e-20)
(0.414857 0.416101 1.2076e-18)
(0.500722 0.407392 -3.01193e-18)
(0.572333 0.384585 5.13784e-19)
(0.63227 0.356395 1.12575e-18)
(0.682912 0.327421 -1.35964e-18)
(0.726007 0.299817 4.7853e-19)
(0.761117 0.275186 -2.22016e-18)
(0.0538499 0.125716 1.0063e-19)
(0.152563 0.261151 5.41188e-19)
(0.262707 0.319645 2.10312e-19)
(0.364068 0.33477 2.85679e-19)
(0.45178 0.326852 5.44714e-19)
(0.526729 0.307941 1.61642e-18)
(0.59052 0.28502 -1.97617e-18)
(0.64499 0.261728 -1.10983e-18)
(0.691708 0.239704 1.83426e-19)
(0.730818 0.219981 1.44437e-18)
(0.0376263 0.0930195 -6.09742e-19)
(0.119913 0.192435 -7.14507e-20)
(0.224041 0.234753 -6.03929e-19)
(0.324535 0.245207 8.64353e-20)
(0.413881 0.238921 -5.15466e-19)
(0.491584 0.224773 -5.88343e-19)
(0.558487 0.207857 -8.75572e-19)
(0.616006 0.190802 2.35315e-18)
(0.665593 0.174759 4.04215e-19)
(0.707876 0.160337 -6.16865e-19)
(0.0263691 0.0571241 3.29234e-19)
(0.0973877 0.117851 4.34203e-19)
(0.197481 0.143449 1.69762e-19)
(0.297487 0.149574 -9.19834e-19)
(0.388045 0.145546 -4.2739e-19)
(0.467704 0.136798 -9.21778e-20)
(0.536784 0.126429 1.79277e-19)
(0.596418 0.116029 1.44032e-19)
(0.647984 0.106275 -1.10776e-18)
(0.692466 0.0974843 6.36057e-19)
(0.0206064 0.0192497 -1.71544e-19)
(0.085896 0.0396527 -1.94657e-19)
(0.183968 0.0482079 1.54781e-19)
(0.283758 0.0502212 1.37248e-19)
(0.374958 0.0488365 1.40565e-19)
(0.455631 0.045881 2.14407e-19)
(0.52583 0.042393 -1.15368e-20)
(0.586544 0.0389033 -2.80348e-19)
(0.639121 0.0356367 2.65413e-19)
(0.684726 0.0326899 -3.99147e-19)
(0.0206084 -0.0192944 -1.726e-19)
(0.0859009 -0.0397649 -1.85367e-19)
(0.183975 -0.0483599 1.70623e-19)
(0.283766 -0.0503845 3.33446e-19)
(0.374967 -0.0489945 2.21634e-19)
(0.455639 -0.0460255 -2.91807e-19)
(0.525838 -0.0425205 -1.57926e-19)
(0.586552 -0.0390124 6.91524e-20)
(0.639127 -0.0357253 1.54565e-19)
(0.684731 -0.032754 -9.19436e-20)
(0.026375 -0.0571689 4.11447e-19)
(0.0974024 -0.117963 -5.21529e-19)
(0.197502 -0.143601 -4.30112e-20)
(0.297511 -0.149737 2.8838e-19)
(0.38807 -0.145703 -1.30063e-18)
(0.467729 -0.136942 5.54811e-19)
(0.536808 -0.126556 5.71115e-19)
(0.59644 -0.116137 -6.73353e-19)
(0.648004 -0.106363 6.41808e-19)
(0.692483 -0.0975477 -2.82448e-19)
(0.037636 -0.0930645 -7.12215e-20)
(0.119938 -0.192548 -8.59855e-21)
(0.224076 -0.234906 -1.40327e-18)
(0.324575 -0.245371 -4.4433e-19)
(0.413923 -0.239079 -4.48353e-20)
(0.491626 -0.224916 -7.30344e-19)
(0.558527 -0.207982 1.35908e-18)
(0.616043 -0.190909 -4.86873e-20)
(0.665625 -0.174845 7.74128e-19)
(0.707905 -0.160399 -6.78625e-19)
(0.0538634 -0.125761 1.19901e-19)
(0.152597 -0.261264 -5.50444e-19)
(0.262756 -0.319797 1.69751e-18)
(0.364125 -0.334933 2.4096e-19)
(0.451838 -0.327009 1.17705e-18)
(0.526787 -0.308083 -1.14702e-18)
(0.590576 -0.285144 1.20304e-18)
(0.645041 -0.261832 -8.68249e-19)
(0.691752 -0.239789 -3.82022e-19)
(0.730858 -0.22004 3.22294e-19)
(0.0742944 -0.154179 1.06196e-18)
(0.194052 -0.322076 3.16155e-21)
(0.312162 -0.396016 -1.77628e-18)
(0.414928 -0.416265 -5.13996e-19)
(0.500796 -0.407549 1.711e-18)
(0.572406 -0.384726 -9.99382e-19)
(0.63234 -0.356517 -1.15679e-18)
(0.682978 -0.327523 1.04113e-18)
(0.726063 -0.299898 -7.06422e-19)
(0.761166 -0.275241 -1.52582e-19)
(0.097964 -0.177426 -1.5909e-19)
(0.242595 -0.373245 -6.59739e-21)
(0.370498 -0.461595 1.91022e-18)
(0.47537 -0.48747 1.09657e-18)
(0.559451 -0.47899 -1.29165e-18)
(0.627423 -0.453342 1.56655e-18)
(0.683024 -0.420777 -1.69235e-18)
(0.729288 -0.38678 1.70353e-19)
(0.768192 -0.354018 5.05571e-19)
(0.798666 -0.324839 1.16313e-18)
(0.123743 -0.194829 1.75875e-19)
(0.296193 -0.413389 2.79288e-19)
(0.435588 -0.514927 2.99723e-19)
(0.543462 -0.546982 -1.0002e-18)
(0.62613 -0.53993 -1.77491e-18)
(0.690508 -0.512725 3.74524e-19)
(0.741641 -0.476888 1.0944e-18)
(0.783314 -0.438673 -3.12007e-19)
(0.817793 -0.401213 1.86801e-18)
(0.843274 -0.367788 -1.825e-18)
(0.15038 -0.205955 -9.88833e-19)
(0.352539 -0.441525 3.64758e-19)
(0.504916 -0.554817 -1.01973e-18)
(0.616856 -0.593618 1.64632e-18)
(0.698805 -0.589328 8.2621e-19)
(0.760016 -0.562037 1.16812e-18)
(0.806949 -0.524213 -2.64017e-19)
(0.844258 -0.482707 1.07296e-18)
(0.874571 -0.440998 -2.2652e-18)
(0.895097 -0.403425 -5.93767e-19)
(0.176552 -0.210627 6.90752e-20)
(0.409126 -0.457101 -6.43607e-19)
(0.575673 -0.580505 -9.92875e-19)
(0.692848 -0.626606 -4.40654e-19)
(0.775051 -0.626573 -1.23808e-18)
(0.833883 -0.600962 -1.33151e-19)
(0.877302 -0.562839 1.20063e-19)
(0.91098 -0.519419 -4.81112e-19)
(0.93817 -0.474184 -5.5242e-19)
(0.954632 -0.432144 1.4478e-18)
(0.200916 -0.208926 2.89165e-19)
(0.463329 -0.460001 3.83266e-19)
(0.644818 -0.591657 7.14823e-19)
(0.768348 -0.64555 4.13026e-20)
(0.851826 -0.651443 4.99504e-19)
(0.90905 -0.629731 -6.68803e-19)
(0.949437 -0.593721 2.07344e-18)
(0.979637 -0.550549 -9.11207e-19)
(1.00437 -0.502556 -4.60206e-19)
(1.01992 -0.454098 -1.4027e-18)
(0.222198 -0.201197 -1.0713e-19)
(0.512553 -0.450529 1.28335e-19)
(0.709209 -0.588248 -1.44061e-19)
(0.839943 -0.650116 9.29007e-20)
(0.925317 -0.663465 -1.13195e-19)
(0.980855 -0.648062 -3.08756e-19)
(1.01723 -0.617525 4.03572e-19)
(1.04174 -0.580239 -1.56352e-19)
(1.05982 -0.54138 2.08881e-19)
(1.07489 -0.506533 -4.79237e-19)
(0.239312 -0.188061 3.17709e-20)
(0.554505 -0.429425 -2.12976e-19)
(0.766117 -0.570531 1.65336e-19)
(0.904966 -0.639772 6.03568e-20)
(0.993338 -0.660951 -1.00475e-19)
(1.04805 -0.65234 3.75087e-20)
(1.08096 -0.62707 -6.44731e-21)
(1.1002 -0.593838 -2.65081e-19)
(1.1116 -0.55843 -1.46127e-19)
(1.12038 -0.524545 -4.22348e-19)
(0.251453 -0.170425 -1.34538e-19)
(0.587321 -0.398008 4.8413e-19)
(0.813263 -0.539487 -3.33428e-19)
(0.961254 -0.614966 -2.13083e-19)
(1.05432 -0.643914 2.22296e-19)
(1.11012 -0.64249 -6.52584e-20)
(1.14157 -0.622937 2.9431e-20)
(1.15777 -0.593963 9.64369e-20)
(1.165 -0.561859 -1.08692e-19)
(1.16907 -0.529621 3.33105e-21)
(0.258135 -0.14942 -2.91157e-19)
(0.609603 -0.358129 -2.01688e-19)
(0.848728 -0.496822 -4.88312e-19)
(1.00676 -0.577032 5.63651e-19)
(1.10642 -0.613429 -3.81227e-20)
(1.16557 -0.619636 2.2227e-19)
(1.19785 -0.606674 3.03223e-19)
(1.21315 -0.582968 -1.02027e-19)
(1.21826 -0.554997 -9.20023e-20)
(1.21917 -0.525263 1.48178e-19)
(0.259184 -0.126288 -1.91197e-19)
(0.620462 -0.31199 -2.4678e-19)
(0.870995 -0.44474 3.84822e-19)
(1.03959 -0.527813 -5.95902e-19)
(1.14757 -0.570933 1.04232e-19)
(1.21231 -0.584881 5.90908e-20)
(1.24764 -0.579139 1.03204e-19)
(1.26395 -0.561521 -6.58958e-20)
(1.26846 -0.538422 -9.34407e-20)
(1.2673 -0.512011 -5.15123e-19)
(0.254727 -0.102271 7.98132e-19)
(0.619551 -0.261971 -6.23342e-19)
(0.879053 -0.385779 2.67951e-20)
(1.05816 -0.469539 -8.2425e-19)
(1.17584 -0.518194 -2.46141e-19)
(1.24822 -0.539546 2.01603e-19)
(1.28877 -0.541287 1.48588e-19)
(1.30803 -0.530335 -5.02795e-19)
(1.31351 -0.512788 2.55322e-19)
(1.31147 -0.490589 -4.32216e-19)
(0.245158 -0.0785357 3.91066e-19)
(0.60707 -0.210476 -3.90668e-19)
(0.872474 -0.322669 1.42364e-18)
(1.06138 -0.404744 1.18052e-19)
(1.1896 -0.457323 3.25778e-19)
(1.27135 -0.485269 1.18892e-18)
(1.31919 -0.494338 -2.39353e-19)
(1.3434 -0.490326 7.34455e-20)
(1.3516 -0.478835 -2.21625e-20)
(1.35004 -0.461626 -6.53513e-20)
(0.231095 -0.0561096 3.00078e-19)
(0.583747 -0.159799 6.92741e-19)
(0.851454 -0.258187 -7.15456e-19)
(1.04873 -0.336156 -2.21117e-19)
(1.18768 -0.390694 -2.36276e-19)
(1.28007 -0.423957 4.56642e-19)
(1.33702 -0.439739 -2.1711e-19)
(1.36813 -0.442556 5.19166e-19)
(1.38091 -0.437341 1.31078e-19)
(1.38141 -0.425675 -2.31317e-19)
(0.213328 -0.0358338 -3.25151e-19)
(0.550773 -0.111996 3.05752e-19)
(0.816809 -0.19501 -6.3202e-19)
(1.02031 -0.266567 2.66241e-19)
(1.16944 -0.320873 -2.68048e-19)
(1.27313 -0.35776 -3.19834e-19)
(1.34061 -0.37917 -2.49025e-19)
(1.38045 -0.388281 2.74997e-19)
(1.39966 -0.389211 -4.814e-19)
(1.40393 -0.38335 3.07274e-19)
(0.192756 -0.0183375 -1.21711e-19)
(0.509722 -0.0687994 -2.42619e-19)
(0.769941 -0.135582 1.14394e-19)
(0.976904 -0.198711 8.28335e-21)
(1.13488 -0.250523 9.21381e-20)
(1.24981 -0.289034 1.32176e-19)
(1.32873 -0.314568 1.12698e-19)
(1.37877 -0.329003 -1.52466e-19)
(1.40618 -0.335563 1.24386e-19)
(1.41599 -0.335419 -1.97459e-19)
(0.170334 -0.00402645 -7.75014e-20)
(0.462446 -0.0315401 -3.16255e-20)
(0.712757 -0.0820007 1.19258e-19)
(0.919943 -0.135134 -5.34647e-20)
(1.08469 -0.182304 1.50662e-19)
(1.21002 -0.220283 -1.89871e-19)
(1.3006 -0.248113 4.90519e-20)
(1.36186 -0.266508 4.19272e-20)
(1.39897 -0.277782 -1.46803e-20)
(1.41605 -0.28288 6.84753e-20)
(0.147006 0.0069116 -9.32097e-20)
(0.41095 -0.0011145 -4.00326e-19)
(0.647549 -0.0359198 -3.36667e-20)
(0.851443 -0.0780633 1.34815e-20)
(1.02026 -0.118745 -5.62256e-19)
(1.15434 -0.154069 5.88475e-20)
(1.25603 -0.182186 -6.31911e-20)
(1.32891 -0.202872 -1.68814e-19)
(1.37681 -0.217581 3.68403e-19)
(1.40268 -0.227034 -6.7159e-19)
(0.123653 0.0144876 -5.3498e-20)
(0.357271 0.0220255 8.62839e-19)
(0.576859 0.00151758 1.15399e-19)
(0.773899 -0.0292957 -7.8724e-19)
(0.943607 -0.0621107 -9.71944e-20)
(1.08408 -0.0928844 -8.87973e-19)
(1.19554 -0.119287 6.86665e-19)
(1.2797 -0.140434 -2.73407e-19)
(1.33889 -0.157023 5.18559e-19)
(1.37472 -0.16956 -4.46989e-19)
(0.101053 0.0188825 -3.01848e-19)
(0.303358 0.0378542 3.59279e-19)
(0.503313 0.0297168 -2.5154e-19)
(0.690131 0.00990898 1.73695e-18)
(0.857309 -0.0142502 9.19425e-19)
(1.00123 -0.039 -2.37859e-19)
(1.12035 -0.0619065 9.27972e-19)
(1.21466 -0.0817165 -5.97709e-19)
(1.28495 -0.0985061 -1.80476e-19)
(1.33142 -0.112555 1.36429e-18)
(0.079852 0.0204129 -5.6179e-19)
(0.250977 0.046735 8.46296e-19)
(0.42947 0.0486425 -1.61842e-18)
(0.603101 0.0389076 2.81614e-19)
(0.764319 0.0235452 7.01953e-19)
(0.908371 0.00572028 -8.80171e-19)
(1.03239 -0.0123393 -1.53872e-18)
(1.13495 -0.0292783 8.19743e-19)
(1.21543 -0.0446819 -1.03431e-18)
(1.27257 -0.0585271 1.64193e-18)
(0.0605492 0.0194981 -1.38412e-19)
(0.201634 0.0493716 -8.54359e-19)
(0.35767 0.0588072 4.21772e-19)
(0.515713 0.0577323 1.06893e-18)
(0.667752 0.050682 -5.74783e-19)
(0.80845 0.0400251 -5.65229e-19)
(0.934123 0.0275554 -9.45053e-19)
(1.04237 0.0145137 -4.14878e-19)
(1.13139 0.00171908 -8.32111e-20)
(1.19856 -0.0103054 1.61563e-18)
(0.0435044 0.0166339 2.35406e-19)
(0.156533 0.0467601 -1.16414e-18)
(0.289927 0.061243 2.00777e-18)
(0.430627 0.0671249 -1.11871e-18)
(0.570645 0.0673932 7.27069e-19)
(0.704538 0.0635077 -9.01125e-19)
(0.828321 0.0566677 1.00151e-18)
(0.939121 0.0478289 8.58489e-19)
(1.03437 0.038181 1.78669e-18)
(1.11034 0.0291569 -2.94116e-18)
(0.0289536 0.0123763 -7.30133e-19)
(0.11657 0.0401388 1.47811e-18)
(0.227847 0.057451 2.20281e-20)
(0.35011 0.0685346 -5.35038e-19)
(0.475736 0.0748392 -2.87619e-19)
(0.599536 0.0768588 2.23918e-19)
(0.717662 0.0750667 -1.60189e-18)
(0.827333 0.0699369 1.19066e-18)
(0.925861 0.0629587 -1.54048e-18)
(1.00883 0.0571937 -6.60776e-19)
(0.0170285 0.00732932 1.25963e-18)
(0.0823392 0.0309259 -3.94321e-19)
(0.17263 0.0493061 -7.45323e-19)
(0.275999 0.0640413 2.03048e-18)
(0.385373 0.0751233 -1.99676e-18)
(0.495972 0.082062 1.10891e-18)
(0.604323 0.0844663 1.15791e-18)
(0.708159 0.0819785 3.01439e-19)
(0.805474 0.0758884 3.06487e-19)
(0.892381 0.0717533 -4.21e-19)
(0.00776494 0.00211902 -1.2063e-18)
(0.0541623 0.020614 1.1506e-18)
(0.125126 0.0388832 -1.02057e-18)
(0.209825 0.0561735 1.28357e-18)
(0.301767 0.0712256 -3.84374e-19)
(0.396437 0.0826732 -1.3198e-18)
(0.490436 0.0892519 3.8257e-19)
(0.581613 0.0893972 -5.9885e-19)
(0.668907 0.0825847 -6.79672e-19)
(0.751374 0.0756386 -2.02772e-18)
(0.00108832 -0.00267457 -1.50629e-18)
(0.0320994 0.0105666 1.19928e-18)
(0.0859143 0.0280902 -2.34853e-18)
(0.153084 0.0473521 4.21105e-19)
(0.227738 0.0663239 -1.62526e-18)
(0.305494 0.0833807 -9.70038e-19)
(0.382543 0.0973969 2.31172e-18)
(0.455681 0.107259 -3.13493e-18)
(0.522954 0.111328 5.97671e-19)
(0.579685 0.112548 -9.33604e-19)
(-0.00322427 -0.00661892 7.41475e-19)
(0.0158784 0.00175312 3.11285e-19)
(0.0551574 0.0180961 -8.85535e-20)
(0.106917 0.0385836 8.87735e-19)
(0.166242 0.0606934 2.60076e-18)
(0.22941 0.0826622 8.88974e-19)
(0.29324 0.103365 9.15883e-19)
(0.355246 0.121838 -3.13343e-19)
(0.414138 0.136383 -2.87421e-18)
(0.46547 0.146569 7.40083e-19)
(-0.00555666 -0.00946355 -2.07919e-19)
(0.00479816 -0.00525133 6.59507e-19)
(0.0321913 0.00952541 -1.72152e-19)
(0.0708798 0.0302049 1.21311e-18)
(0.117044 0.0538968 -2.8056e-18)
(0.167737 0.0786132 2.2937e-19)
(0.220477 0.102912 -1.30883e-18)
(0.273293 0.12543 1.90073e-18)
(0.324684 0.144235 -5.53959e-19)
(0.370358 0.157549 -6.74107e-20)
(-0.00638165 -0.0111161 -1.42223e-19)
(-0.00211253 -0.0101678 -7.92963e-19)
(0.0158312 0.00273739 1.97392e-18)
(0.0436605 0.0225354 -1.04302e-18)
(0.0786308 0.0461181 7.90422e-20)
(0.118501 0.0713031 3.32662e-19)
(0.161344 0.0963459 -2.82036e-19)
(0.205494 0.11954 3.83212e-19)
(0.249273 0.138851 1.29001e-18)
(0.289147 0.152208 2.86101e-19)
(-0.00617611 -0.0116023 -3.16283e-19)
(-0.00588922 -0.0129415 -3.47916e-19)
(0.00474166 -0.00209404 -1.54003e-18)
(0.0237454 0.0158926 8.12546e-19)
(0.0493693 0.0378953 -1.6628e-18)
(0.079994 0.0616784 3.80373e-19)
(0.114144 0.0853786 4.2409e-19)
(0.150381 0.107208 -4.25864e-19)
(0.186999 0.125262 -2.66784e-19)
(0.221389 0.137513 -1.18759e-18)
(-0.00536908 -0.0110279 2.4412e-19)
(-0.00750505 -0.0136882 -5.79437e-20)
(-0.00237641 -0.00496559 3.23706e-21)
(0.00963487 0.0104868 -7.22322e-19)
(0.0276439 0.0297517 1.82798e-18)
(0.0505609 0.0507123 -2.8281e-19)
(0.0772805 0.0715828 -6.90898e-19)
(0.106554 0.0907026 8.42229e-19)
(0.13673 0.106445 -2.84858e-19)
(0.166064 0.117002 1.54545e-18)
(-0.00431721 -0.00954797 -4.55982e-20)
(-0.00780027 -0.0126465 -2.64183e-19)
(-0.00667312 -0.00602101 -1.02565e-19)
(-1.35981e-05 0.006385 -1.31212e-19)
(0.0120094 0.0220689 -2.8149e-19)
(0.0287381 0.0391973 -8.66416e-19)
(0.0493651 0.0562242 1.07263e-18)
(0.0728019 0.0717542 6.11045e-19)
(0.0974914 0.0845045 -1.16961e-19)
(0.122402 0.0929967 -9.37666e-19)
(-0.00329783 -0.00734634 2.58714e-19)
(-0.00744621 -0.0101392 4.4969e-20)
(-0.00908235 -0.00552758 3.02266e-19)
(-0.00629451 0.00350317 -3.06041e-20)
(0.00129688 0.0150366 2.72577e-19)
(0.013364 0.0276621 3.01552e-19)
(0.0293267 0.0401942 4.37481e-19)
(0.0482266 0.051589 -1.23243e-18)
(0.0685999 0.0609299 -2.21882e-19)
(0.0899484 0.067129 3.93643e-19)
(-0.00251099 -0.00462124 -1.30644e-19)
(-0.00693919 -0.00654711 -1.82932e-19)
(-0.0103025 -0.00385214 -8.60952e-20)
(-0.0100267 0.00161209 4.24845e-19)
(-0.00536282 0.00864216 2.04442e-19)
(0.00358548 0.0163515 4.13798e-20)
(0.0163923 0.0239975 -8.92718e-20)
(0.0321911 0.0309371 -6.67178e-20)
(0.0495892 0.0366248 5.63483e-19)
(0.0684394 0.0403933 -3.80094e-19)
(-0.00208646 -0.00157886 6.63898e-20)
(-0.00660457 -0.00228918 8.19404e-20)
(-0.010796 -0.00143578 -6.9046e-20)
(-0.0117549 0.000365202 -6.27979e-20)
(-0.00854586 0.0027037 -6.47056e-20)
(-0.00115844 0.00527605 -1.00482e-19)
(0.0100581 0.00782946 4.49628e-21)
(0.0242847 0.0101475 1.36221e-19)
(0.0401675 0.0120548 -1.33084e-19)
(0.0577296 0.0133189 2.34687e-19)
(0.285765 -0.0169178 1.0113e-20)
(0.591352 -0.0120512 -4.031e-21)
(0.825092 -0.00675214 1.55838e-23)
(0.915283 -0.00290853 1.95728e-22)
(0.961523 -0.00130693 5.78043e-23)
(0.980544 -0.000568837 -3.27216e-23)
(0.989795 -0.000278222 -4.7055e-23)
(0.994271 -7.51792e-05 1.55099e-23)
(0.996423 -6.36877e-05 -1.34118e-24)
(0.997934 -2.38633e-05 1.9052e-23)
(0.304592 -0.0503762 2.92827e-20)
(0.598228 -0.0357908 9.07225e-21)
(0.827564 -0.0201145 1.04586e-21)
(0.916226 -0.00870795 -3.74896e-21)
(0.961826 -0.00397704 -1.56582e-22)
(0.980653 -0.00173902 1.94812e-22)
(0.989837 -0.00083425 -1.81359e-22)
(0.99429 -0.000343915 -4.77731e-23)
(0.996435 -0.000209053 -9.62294e-23)
(0.997942 -8.4403e-05 -1.68545e-23)
(0.341102 -0.083573 5.20026e-21)
(0.611769 -0.0585362 -5.53597e-21)
(0.832414 -0.0331424 -1.03143e-21)
(0.918084 -0.0144036 3.51788e-21)
(0.962428 -0.006608 -2.1978e-22)
(0.98087 -0.00289902 1.23611e-22)
(0.98992 -0.00138684 6.02691e-23)
(0.99433 -0.000609489 -1.7256e-23)
(0.99646 -0.000353806 6.59513e-23)
(0.997959 -0.000144643 -2.34241e-23)
(0.393198 -0.116264 -3.76228e-20)
(0.631569 -0.0797365 -1.8372e-20)
(0.839464 -0.0456296 2.60975e-21)
(0.920801 -0.0199323 -2.16856e-21)
(0.963315 -0.0091754 2.67876e-21)
(0.981194 -0.00403858 -9.77718e-22)
(0.990044 -0.0019324 4.90073e-23)
(0.994389 -0.000872851 -7.52884e-23)
(0.996499 -0.00049781 7.64823e-23)
(0.997986 -0.000204503 9.50877e-24)
(0.458024 -0.148031 8.74413e-20)
(0.657014 -0.098958 -2.03077e-20)
(0.848456 -0.0573879 -1.67086e-21)
(0.924293 -0.0252371 5.68974e-21)
(0.964468 -0.0116584 -1.7949e-21)
(0.981619 -0.00514942 -7.19752e-22)
(0.990209 -0.00246653 -5.2478e-22)
(0.99447 -0.00113358 -1.22182e-22)
(0.996553 -0.000639627 -1.79855e-22)
(0.998023 -0.000263634 -4.43667e-23)
(0.532299 -0.178108 -3.92825e-20)
(0.687302 -0.115834 4.9406e-20)
(0.859063 -0.0682474 -2.72572e-24)
(0.928453 -0.0302722 -6.7448e-21)
(0.96586 -0.0140384 1.30476e-21)
(0.982138 -0.00622731 1.00262e-21)
(0.990413 -0.00298909 5.59952e-22)
(0.994572 -0.00138961 1.49196e-22)
(0.996621 -0.000779726 7.56117e-23)
(0.998069 -0.000322027 5.73514e-23)
(0.612677 -0.205603 -3.30068e-21)
(0.721468 -0.130114 -2.59023e-20)
(0.870906 -0.0780804 1.55388e-22)
(0.933151 -0.035001 2.28911e-21)
(0.967458 -0.0163016 -1.15582e-21)
(0.982741 -0.00726631 3.07265e-22)
(0.990654 -0.00349729 -5.38702e-22)
(0.994694 -0.00164042 -1.65563e-22)
(0.996704 -0.000917442 2.82839e-23)
(0.998127 -0.000379469 2.05296e-23)
(0.696055 -0.231154 7.89381e-20)
(0.758438 -0.142284 -5.31314e-22)
(0.88357 -0.0869473 -2.87597e-21)
(0.938242 -0.0394295 4.1394e-21)
(0.969221 -0.018444 -1.91819e-21)