/*--------------------------------*- C++ -*----------------------------------*\
  =========                 |
  \\      /  F ield         | OpenFOAM: The Open Source CFD Toolbox
   \\    /   O peration     | Website:  https://openfoam.org
    \\  /    A nd           | Version:  6.0
     \\/     M anipulation  |
\*---------------------------------------------------------------------------*/
FoamFile
{
    version     2.0;
    format      ascii;
    class       volScalarField;
    location    "12";
    object      p;
}
// * * * * * * * * * * * * * * * * * * * * * * * * * * * * * * * * * * * * * //

dimensions      [0 2 -2 0 0 0 0];

internalField   nonuniform List<scalar> 
62000
(
0.0985096
0.0998895
0.101281
0.102657
0.103993
0.105318
0.106589
0.107837
0.109021
0.110175
0.111258
0.112305
0.113277
0.114213
0.115079
0.115913
0.116684
0.117429
0.11812
0.118788
0.119408
0.120005
0.12055
0.121062
0.121506
0.121894
0.122184
0.12238
0.122433
0.122339
0.122035
0.121495
0.1207
0.11964
0.118322
0.116774
0.115074
0.113362
0.111866
0.110898
0.110887
0.112325
0.115766
0.121725
0.130609
0.142219
0.155429
0.167748
0.175714
0.176003
0.167327
0.151758
0.134452
0.119673
0.109578
0.100311
0.0884566
0.0692993
0.0463003
0.120822
0.10633
0.107775
0.10921
0.110621
0.111964
0.11328
0.114521
0.115722
0.116844
0.117922
0.118917
0.119869
0.120737
0.121564
0.122311
0.12302
0.123656
0.124253
0.124785
0.125278
0.125708
0.126094
0.126415
0.126678
0.126862
0.126959
0.126947
0.126806
0.126512
0.12604
0.125355
0.124422
0.123222
0.121756
0.120029
0.118087
0.116012
0.11396
0.112163
0.110949
0.110752
0.112082
0.115511
0.1216
0.130835
0.143144
0.157569
0.171749
0.182207
0.18532
0.179232
0.165426
0.148929
0.134401
0.124688
0.116117
0.104556
0.0838554
0.0576796
0.0111825
0.106524
0.107826
0.109164
0.110566
0.111974
0.113426
0.114863
0.116314
0.117722
0.119118
0.120442
0.12173
0.122924
0.124064
0.125095
0.126059
0.126909
0.12768
0.128336
0.128906
0.129361
0.129721
0.129965
0.130103
0.130119
0.130006
0.129747
0.129325
0.128725
0.127932
0.126919
0.125663
0.124154
0.122393
0.1204
0.118225
0.115959
0.113757
0.111849
0.110556
0.110294
0.111551
0.114877
0.120831
0.129941
0.142231
0.1569
0.171761
0.183396
0.187952
0.182966
0.169057
0.150616
0.132337
0.117823
0.105329
0.0920107
0.0720061
0.0443208
0.0204771
0.0998457
0.100772
0.101781
0.102912
0.104134
0.105484
0.106923
0.108475
0.110093
0.111798
0.11353
0.115307
0.117064
0.118818
0.120505
0.122141
0.123666
0.125098
0.126385
0.127542
0.128528
0.129356
0.129996
0.130455
0.130714
0.130768
0.130601
0.130199
0.129554
0.128662
0.12751
0.126086
0.124391
0.12244
0.120264
0.117922
0.115516
0.113204
0.111214
0.109857
0.109533
0.110699
0.113877
0.119626
0.128519
0.140692
0.155562
0.171216
0.184455
0.191347
0.188905
0.176772
0.158341
0.137895
0.119365
0.102768
0.0868686
0.0662296
0.038255
0.0145697
0.0909783
0.0915976
0.0922723
0.0930447
0.0938951
0.0948749
0.095957
0.0971882
0.0985367
0.100044
0.101665
0.103434
0.105291
0.107263
0.109278
0.111352
0.113412
0.115461
0.11743
0.119316
0.121057
0.122647
0.124037
0.125218
0.126155
0.126833
0.127227
0.127316
0.127089
0.126543
0.12567
0.124466
0.122939
0.121112
0.119028
0.116756
0.114403
0.112133
0.11017
0.108818
0.108462
0.10953
0.112525
0.118004
0.126574
0.138497
0.15344
0.169853
0.184913
0.194823
0.196292
0.188088
0.172405
0.152591
0.132312
0.112543
0.0933135
0.0692963
0.0367311
0.00815918
0.0842574
0.0846862
0.0851246
0.0855988
0.0860973
0.0866653
0.0872855
0.0880067
0.0888128
0.0897561
0.090814
0.0920385
0.0933974
0.0949346
0.0966061
0.0984414
0.100384
0.102444
0.104555
0.10671
0.10884
0.110923
0.112897
0.114732
0.116376
0.117794
0.118942
0.119781
0.120289
0.120449
0.120247
0.119669
0.118724
0.117433
0.115839
0.114011
0.112057
0.11013
0.108447
0.10729
0.107022
0.108031
0.11079
0.115828
0.123752
0.134906
0.1492
0.165469
0.181369
0.193425
0.198308
0.194145
0.181999
0.164113
0.143434
0.121152
0.0981644
0.0698509
0.0308941
-0.00382758
0.0787917
0.0792363
0.0796662
0.0800964
0.080505
0.0809306
0.0813448
0.0817927
0.0822506
0.082772
0.0833342
0.083999
0.0847443
0.085634
0.0866438
0.0878302
0.0891617
0.0906771
0.0923329
0.094144
0.0960555
0.0980568
0.100087
0.102116
0.104084
0.105944
0.107638
0.109111
0.110321
0.111238
0.111826
0.112062
0.111934
0.111455
0.110655
0.109593
0.108356
0.10708
0.105951
0.105218
0.105194
0.10621
0.108678
0.113067
0.119929
0.12964
0.142296
0.157092
0.172191
0.184576
0.191116
0.18962
0.180264
0.164216
0.14363
0.119623
0.0938446
0.0626105
0.0188133
-0.0189701
0.0748304
0.0753028
0.0757537
0.0761882
0.0765883
0.0769825
0.0773408
0.0776963
0.0780197
0.078351
0.0786623
0.0790034
0.0793511
0.079765
0.0802283
0.0808049
0.0814813
0.0823157
0.0832907
0.0844479
0.0857606
0.0872443
0.0888616
0.0906007
0.0924147
0.0942644
0.0960933
0.0978416
0.0994606
0.100905
0.102131
0.103089
0.103757
0.104125
0.104205
0.104032
0.103668
0.103211
0.102806
0.102646
0.102979
0.10405
0.106186
0.109763
0.115236
0.122961
0.13316
0.145329
0.158113
0.169002
0.175242
0.174603
0.166698
0.151891
0.131589
0.106713
0.0795713
0.0477312
0.00228843
-0.0357078
0.0708594
0.0714213
0.0719644
0.0724913
0.0729797
0.0734579
0.07389
0.0743073
0.0746727
0.0750215
0.0753142
0.0755933
0.075823
0.0760547
0.0762617
0.0765039
0.0767662
0.0771121
0.0775347
0.0780923
0.0787804
0.0796402
0.080662
0.0818622
0.0832205
0.0847202
0.0863233
0.0879823
0.0896555
0.0913007
0.0928631
0.0942925
0.0955463
0.0966008
0.0974471
0.0980931
0.0985678
0.0989299
0.0992697
0.0997186
0.100441
0.101587
0.103377
0.106077
0.110024
0.115523
0.122865
0.131776
0.141322
0.1495
0.154015
0.152812
0.145225
0.131034
0.111111
0.0862568
0.059398
0.0289578
-0.0161149
-0.0526267
0.0676816
0.068283
0.0688654
0.069429
0.069958
0.0704783
0.0709584
0.0714265
0.0718473
0.0722501
0.0725946
0.0729139
0.0731669
0.0733924
0.0735551
0.0737019
0.0738087
0.0739301
0.0740558
0.0742446
0.0744987
0.0748721
0.0753735
0.0760422
0.0768839
0.0779088
0.079105
0.080448
0.081916
0.083478
0.0850946
0.0867078
0.0882767
0.0897664
0.0911517
0.0924188
0.0935648
0.0946099
0.0955902
0.096575
0.0976406
0.0988431
0.100287
0.102136
0.104593
0.107908
0.112385
0.117928
0.123929
0.128844
0.130846
0.128174
0.120096
0.106077
0.0865827
0.0623139
0.0366647
0.00872937
-0.0348056
-0.0692817
0.0641648
0.064852
0.065523
0.0661778
0.0667969
0.0674086
0.0679785
0.0685386
0.0690512
0.0695494
0.0699896
0.0704066
0.0707543
0.0710689
0.071307
0.0715077
0.0716363
0.071737
0.0717895
0.0718441
0.0718985
0.072006
0.0721808
0.0724729
0.072904
0.0735048
0.0742871
0.0752504
0.0763965
0.0777185
0.0791855
0.0807608
0.0824036
0.0840796
0.0857571
0.0874058
0.0890011
0.090527
0.0919776
0.0933605
0.0946781
0.0958938
0.0970148
0.0980978
0.0992377
0.100612
0.102518
0.104975
0.107612
0.10928
0.108575
0.104076
0.0951091
0.0809518
0.0618478
0.0384748
0.014592
-0.0105983
-0.0527357
-0.0853566
0.0612822
0.0620075
0.0627146
0.0634028
0.0640577
0.0647058
0.0653173
0.0659222
0.066487
0.0670427
0.0675499
0.0680411
0.0684727
0.068878
0.0692128
0.0695108
0.0697321
0.0699119
0.0700204
0.0700972
0.07013
0.0701638
0.0702077
0.0703109
0.0704995
0.0708143
0.0712808
0.0719175
0.0727467
0.073779
0.0750126
0.0764155
0.0779665
0.0796362
0.0813943
0.0832027
0.0850238
0.0868158
0.0885415
0.0901586
0.0916088
0.0927804
0.093597
0.094029
0.0940726
0.0938469
0.093612
0.0934633
0.0931838
0.0919284
0.0886543
0.0822661
0.0722169
0.057739
0.0389064
0.0163695
-0.00591808
-0.0287532
-0.0697688
-0.101063
0.0579461
0.0587543
0.0595472
0.0603236
0.0610651
0.0617997
0.0624945
0.0631825
0.063828
0.0644661
0.0650556
0.0656336
0.0661559
0.066659
0.0670982
0.0675077
0.0678452
0.0681426
0.0683644
0.0685425
0.0686559
0.0687397
0.0687943
0.0688614
0.0689635
0.0691407
0.069424
0.0698403
0.0704252
0.0712086
0.0721946
0.0733819
0.0747541
0.0762984
0.0779871
0.0797872
0.0816499
0.0835248
0.0853478
0.0870473
0.0885148
0.0895872
0.0901223
0.0900239
0.0892097
0.0877446
0.0858446
0.0836411
0.081002
0.0773175
0.0718278
0.0637218
0.0525924
0.0376471
0.018896
-0.0029969
-0.0239473
-0.045114
-0.0858038
-0.116379
0.0551538
0.0559976
0.0568242
0.0576323
0.0584082
0.0591777
0.0599118
0.0606409
0.0613324
0.0620187
0.0626624
0.063298
0.063885
0.0644593
0.0649792
0.065479
0.0659178
0.0663263
0.0666669
0.0669673
0.0672003
0.0673931
0.0675373
0.0676652
0.0677912
0.0679499
0.0681686
0.0684764
0.0689136
0.0695142
0.0703062
0.0712849
0.0724578
0.0738194
0.0753529
0.0770293
0.0788015
0.080613
0.0823895
0.0840378
0.0854197
0.0863375
0.0866039
0.086076
0.084607
0.0822225
0.0790782
0.0753281
0.0708554
0.0652282
0.0578913
0.0482649
0.036078
0.0205674
0.00167496
-0.019945
-0.0401792
-0.0604601
-0.10123
-0.131705
0.0518327
0.0527566
0.0536667
0.0545618
0.0554235
0.0562796
0.0570969
0.057909
0.0586799
0.0594456
0.0601654
0.0608779
0.0615412
0.0621944
0.0627959
0.0633826
0.0639149
0.064425
0.0648759
0.0652945
0.0656513
0.065969
0.0662332
0.0664683
0.0666806
0.0668961
0.0671361
0.0674246
0.0678002
0.0683041
0.068956
0.0697726
0.0707638
0.0719334
0.0732772
0.0747697
0.0763719
0.0780251
0.0796551
0.0811561
0.0823763
0.0830975
0.0831094
0.0822333
0.08028
0.0772356
0.0732031
0.0683304
0.0624846
0.0553596
0.0465459
0.0356408
0.0224796
0.00630103
-0.0129628
-0.0346348
-0.0545633
-0.0746485
-0.116143
-0.147063
0.0490401
0.0499968
0.0509374
0.0518615
0.0527549
0.0536438
0.0544986
0.0553503
0.0561655
0.056977
0.0577471
0.0585114
0.05923
0.0599408
0.0606043
0.0612579
0.0618637
0.0624553
0.062997
0.0635163
0.0639831
0.0644181
0.0648034
0.0651579
0.0654811
0.0657916
0.0661025
0.0664314
0.0668124
0.0672786
0.0678612
0.0685655
0.0694107
0.0704088
0.0715587
0.0728459
0.0742342
0.0756733
0.0770882
0.0783752
0.0793729
0.0798642
0.0796198
0.0784503
0.0761223
0.0726058
0.0679312
0.0622519
0.0553733
0.0470806
0.0370587
0.0250359
0.0109322
-0.00598801
-0.025833
-0.0479248
-0.0681143
-0.0885751
-0.131002
-0.162805
0.0457075
0.0467386
0.0477573
0.0487633
0.049738
0.0507091
0.0516436
0.052575
0.0534671
0.0543557
0.0551998
0.056038
0.0568285
0.0576111
0.0583453
0.0590701
0.0597486
0.0604157
0.0610378
0.0616435
0.0622046
0.0627414
0.0632355
0.0637025
0.0641377
0.0645537
0.0649571
0.0653584
0.0657842
0.0662676
0.0668213
0.0674637
0.0682051
0.069062
0.0700378
0.0711242
0.0722904
0.0734934
0.0746625
0.075699
0.0764424
0.0766822
0.0761863
0.0747569
0.0721348
0.0682692
0.063132
0.0568653
0.0492036
0.039996
0.02899
0.016005
0.00101395
-0.0167298
-0.0373347
-0.0600891
-0.0807932
-0.102029
-0.145829
-0.178815
0.0428856
0.043944
0.0449878
0.0460176
0.0470193
0.0480192
0.0489876
0.0499559
0.0508903
0.0518232
0.0527165
0.0536051
0.054449
0.0552857
0.0560764
0.056859
0.0575977
0.0583279
0.0590172
0.0596953
0.0603351
0.0609574
0.061544
0.062109
0.0626457
0.0631628
0.0636618
0.0641472
0.06464
0.0651604
0.0657306
0.0663435
0.0670191
0.0677671
0.0685954
0.0694967
0.0704479
0.0714096
0.0723204
0.0730853
0.0735535
0.0735236
0.0727696
0.07109
0.0682077
0.064056
0.0585487
0.0518203
0.043521
0.0335451
0.0216741
0.00779284
-0.00808885
-0.0267114
-0.0482178
-0.0718832
-0.093473
-0.115777
-0.160968
-0.195344
0.0394852
0.0406154
0.0417357
0.0428462
0.0439283
0.0450096
0.046057
0.0471044
0.048115
0.0491243
0.050091
0.0510531
0.0519682
0.0528755
0.0537346
0.0545843
0.0553886
0.0561835
0.0569377
0.0576818
0.0583906
0.0590859
0.0597504
0.0603983
0.0610222
0.0616289
0.0622166
0.0627849
0.0633487
0.063929
0.0645225
0.0651377
0.0657743
0.0664439
0.0671527
0.0678952
0.068651
0.0693861
0.0700446
0.0705389
0.0707278
0.0704238
0.0694099
0.0674838
0.0643582
0.0599495
0.0541249
0.0470023
0.0381552
0.0275073
0.0148655
0.000155558
-0.016597
-0.0361585
-0.0586715
-0.0833695
-0.105918
-0.129458
-0.176288
-0.212195
0.0366338
0.0377909
0.0389341
0.0400654
0.0411701
0.0422751
0.043351
0.0444295
0.0454766
0.0465249
0.0475359
0.0485443
0.0495092
0.0504679
0.0513806
0.0522849
0.0531453
0.0539973
0.0548097
0.0556133
0.0563834
0.0571424
0.0578737
0.0585921
0.0592902
0.0599737
0.0606388
0.0612827
0.0619167
0.062549
0.0631894
0.0638159
0.0644347
0.0650492
0.0656625
0.0662691
0.0668496
0.0673734
0.0677896
0.0680171
0.0679252
0.0673404
0.0660562
0.063871
0.0604899
0.0558172
0.0496741
0.042168
0.0327984
0.0215072
0.00811334
-0.0074277
-0.0250796
-0.0456167
-0.0692115
-0.0950816
-0.118805
-0.143699
-0.192046
-0.229587
0.0332713
0.0344884
0.0356948
0.0368927
0.0380638
0.039237
0.0403793
0.0415257
0.0426392
0.0437558
0.0448334
0.0459099
0.0469421
0.0479685
0.0489476
0.0499175
0.0508417
0.0517559
0.0526287
0.0534916
0.0543203
0.0551378
0.0559288
0.0567083
0.0574697
0.0582183
0.0589497
0.059659
0.0603539
0.0610473
0.0617225
0.0623736
0.0629868
0.0635631
0.0641026
0.064597
0.0650266
0.0653621
0.0655555
0.0655314
0.0651682
0.0643064
0.062749
0.0602949
0.0566447
0.0516921
0.045218
0.0373209
0.0274334
0.0155119
0.00138765
-0.0149671
-0.0335178
-0.0550719
-0.0797979
-0.106875
-0.13173
-0.158022
-0.208026
-0.247262
0.0300596
0.0313232
0.0325765
0.0338232
0.0350449
0.0362701
0.0374665
0.038668
0.0398381
0.0410112
0.0421468
0.0432807
0.0443707
0.0454546
0.0464914
0.0475189
0.0485007
0.0494724
0.0504023
0.0513217
0.0522063
0.0530792
0.0539253
0.0547599
0.0555768
0.0563815
0.0571697
0.0579358
0.0586869
0.0594246
0.0601475
0.0608195
0.0614344
0.0619843
0.0624645
0.0628636
0.0631598
0.0633239
0.063309
0.0630436
0.0624142
0.0612734
0.0594316
0.0566879
0.0527389
0.0474706
0.0406251
0.0322979
0.021861
0.00928327
-0.00559997
-0.0228029
-0.0422906
-0.0648854
-0.0907764
-0.119136
-0.145252
-0.172979
-0.224468
-0.265408
0.0268113
0.028114
0.0294092
0.0307005
0.0319679
0.0332411
0.0344862
0.0357391
0.0369616
0.0381905
0.0393826
0.0405762
0.0417269
0.0428734
0.0439731
0.0450635
0.0461074
0.0471398
0.0481289
0.0491056
0.0500457
0.0509723
0.0518707
0.0527565
0.0536239
0.054479
0.0553172
0.0561327
0.0569303
0.0577182
0.0584689
0.0591678
0.0597871
0.0603183
0.0607522
0.0610725
0.0612547
0.0612674
0.0610637
0.0605743
0.0596915
0.058278
0.0561491
0.0531031
0.0488347
0.0432212
0.0359707
0.0271782
0.0161646
0.00290986
-0.0127407
-0.0307953
-0.0512269
-0.0748906
-0.101965
-0.131599
-0.158883
-0.188041
-0.24113
-0.283708
0.0237147
0.025048
0.0263738
0.0276975
0.0289997
0.0303098
0.0315948
0.0328893
0.0341556
0.035429
0.0366679
0.0379085
0.0391074
0.0403028
0.0414525
0.0425943
0.0436906
0.0447765
0.0458194
0.0468501
0.0478435
0.0488224
0.0497716
0.0507067
0.0516219
0.0525234
0.0534066
0.0542661
0.055107
0.0559264
0.0567182
0.057435
0.0580613
0.058579
0.0589736
0.0592244
0.0593034
0.0591764
0.0587948
0.05809
0.0569585
0.0552705
0.0528432
0.0494739
0.0448551
0.0388554
0.0311508
0.0218412
0.0102035
-0.00377132
-0.0202338
-0.0391845
-0.0606001
-0.0853491
-0.113621
-0.144575
-0.173125
-0.203726
-0.258235
-0.302339
0.0205419
0.0219088
0.0232683
0.0246264
0.025963
0.0273089
0.0286301
0.0299636
0.0312707
0.0325889
0.0338743
0.0351654
0.0364171
0.0376679
0.0388744
0.0400738
0.041228
0.0423711
0.0434705
0.0445562
0.0456035
0.0466344
0.0476339
0.0486171
0.0495784
0.0505236
0.0514489
0.0523481
0.0532252
0.0540864
0.0548987
0.0556394
0.0562727
0.0567796
0.0571418
0.0573333
0.057322
0.0570701
0.0565256
0.0556195
0.0542506
0.0522941
0.0495669
0.0458644
0.0408765
0.0344628
0.0262703
0.0164084
0.00411337
-0.0106083
-0.0278984
-0.047754
-0.070162
-0.0960179
-0.125493
-0.157744
-0.187455
-0.219483
-0.275504
-0.320979
0.0174026
0.0188072
0.020203
0.0215977
0.0229715
0.0243549
0.0257151
0.0270879
0.0284356
0.0297943
0.031122
0.0324554
0.0337507
0.0350459
0.0362983
0.0375453
0.0387486
0.0399427
0.0410938
0.0422321
0.0433316
0.0444139
0.0454634
0.0464945
0.0475012
0.0484892
0.0494547
0.0503922
0.0513066
0.0521936
0.0530421
0.0537982
0.0544388
0.0549367
0.0552691
0.0554052
0.0553087
0.0549375
0.0542358
0.0531328
0.0515281
0.0492998
0.0462622
0.0422079
0.0368234
0.0299591
0.0212342
0.0107717
-0.00222841
-0.0177415
-0.0359058
-0.0567111
-0.0801501
-0.107127
-0.137814
-0.1714
-0.20236
-0.235825
-0.293169
-0.33988
0.0140961
0.0155438
0.0169832
0.0184225
0.0198402
0.0212686
0.0226729
0.0240918
0.0254858
0.0268936
0.0282708
0.0296567
0.0310056
0.0323565
0.0336653
0.0349692
0.0362294
0.0374798
0.0386868
0.0398797
0.0410329
0.0421673
0.0432671
0.0443463
0.0453986
0.0464296
0.0474354
0.0484103
0.0493582
0.0502837
0.0511485
0.0519266
0.0525734
0.0530637
0.0533703
0.0534573
0.053284
0.0528032
0.0519548
0.0506651
0.0488331
0.0463378
0.0429895
0.0385765
0.0327818
0.0254454
0.0161622
0.00506947
-0.00866362
-0.0249938
-0.0440475
-0.0658119
-0.0902899
-0.118407
-0.150306
-0.185202
-0.217316
-0.252193
-0.310938
-0.358786
0.0108256
0.012317
0.0137993
0.0152824
0.0167449
0.0182186
0.0196697
0.0211353
0.0225767
0.0240312
0.0254559
0.0268885
0.0282843
0.0296821
0.0310385
0.0323911
0.0337011
0.0350029
0.0362621
0.0375081
0.0387144
0.0399013
0.0410522
0.0421806
0.0432796
0.0443544
0.0454008
0.0464138
0.0473979
0.0483464
0.0492465
0.0500381
0.0506927
0.0511764
0.0514577
0.0514965
0.0512474
0.0506584
0.0496644
0.0481882
0.0461271
0.0433595
0.0396901
0.0349023
0.0286743
0.0208354
0.010957
-0.000806914
-0.0153148
-0.0325031
-0.0524904
-0.0752571
-0.100811
-0.130084
-0.163203
-0.199444
-0.232807
-0.269102
-0.329063
-0.378042
0.00742999
0.00896629
0.0104943
0.0120244
0.0135338
0.0150556
0.0165544
0.0180698
0.0195616
0.0210693
0.0225476
0.0240365
0.0254895
0.0269461
0.0283615
0.0297732
0.0311421
0.0325018
0.0338182
0.0351203
0.0363817
0.0376225
0.0388258
0.0400045
0.0411513
0.0422707
0.043359
0.0444103
0.045428
0.0464159
0.0473327
0.0481467
0.0488091
0.0492869
0.0495456
0.0495402
0.049221
0.0485304
0.0473977
0.0457421
0.0434577
0.0404211
0.0364307
0.0312638
0.0245934
0.0162374
0.00574452
-0.00671037
-0.0220147
-0.0400813
-0.0610149
-0.0847926
-0.11143
-0.141876
-0.176215
-0.213779
-0.248306
-0.285994
-0.34724
-0.397436
0.00410594
0.00568538
0.00725607
0.00882986
0.0103842
0.0119518
0.0134984
0.0150619
0.016603
0.0181595
0.0196877
0.0212259
0.0227286
0.0242348
0.0257004
0.0271634
0.0285844
0.0299979
0.0313685
0.0327259
0.0340425
0.035338
0.036595
0.0378254
0.0390213
0.0401871
0.0413187
0.0424108
0.0434675
0.0444814
0.0454353
0.0462649
0.0469362
0.0474089
0.0476447
0.0475944
0.0472038
0.0464101
0.0451368
0.0432988
0.0407865
0.0374739
0.0331512
0.0275907
0.0204584
0.0115594
0.000421772
-0.0127585
-0.0288962
-0.0478796
-0.0698008
-0.0946308
-0.122387
-0.154025
-0.189594
-0.228515
-0.26431
-0.303393
-0.365742
-0.41725
0.000686789
0.0023097
0.00392489
0.00554488
0.00714534
0.00876084
0.010355
0.0119687
0.0135604
0.015171
0.0167539
0.0183497
0.019911
0.0214778
0.0230043
0.0245284
0.0260103
0.0274838
0.0289138
0.0303296
0.0317038
0.0330558
0.0343678
0.0356516
0.0368986
0.0381131
0.0392905
0.040425
0.0415196
0.0425763
0.0435489
0.0444032
0.0450836
0.0455525
0.0457678
0.045676
0.0452183
0.0443262
0.0429173
0.0409017
0.0381655
0.0345789
0.0299243
0.0239675
0.0163671
0.00691464
-0.00488096
-0.0188021
-0.0357893
-0.0557069
-0.0786271
-0.104518
-0.1334
-0.166246
-0.203047
-0.2433
-0.2803
-0.320751
-0.384265
-0.43708
-0.00261962
-0.000954924
0.000701528
0.00236373
0.00400764
0.00566741
0.00730763
0.00896788
0.0106074
0.0122655
0.013897
0.0155413
0.0171516
0.0187678
0.0203446
0.0219205
0.0234555
0.024984
0.02647
0.027943
0.0293748
0.0307843
0.0321531
0.0334921
0.0347926
0.0360578
0.0372829
0.0384626
0.0396002
0.0406854
0.0416992
0.0425712
0.0432634
0.0437297
0.0439242
0.0437897
0.0432626
0.042269
0.0407206
0.0385223
0.0355556
0.0316864
0.0266884
0.0203213
0.0122342
0.00220549
-0.010275
-0.0249671
-0.0428368
-0.0637243
-0.0876835
-0.114674
-0.144718
-0.178793
-0.216838
-0.258454
-0.296771
-0.338608
-0.40312
-0.457168
-0.00599391
-0.00428662
-0.00258676
-0.000879882
0.000808485
0.00251413
0.00419996
0.0059081
0.00759622
0.00930622
0.0109904
0.0126906
0.0143582
0.0160338
0.0176708
0.0193076
0.0209036
0.0224928
0.0240392
0.0255722
0.0270636
0.028532
0.0299591
0.031355
0.0327104
0.034028
0.0353032
0.0365294
0.0377087
0.0388414
0.0398782
0.0407789
0.0414841
0.0419492
0.0421257
0.0419516
0.0413589
0.0402678
0.0385837
0.0362063
0.0330117
0.0288613
0.0235201
0.0167406
0.00816186
-0.00245107
-0.015627
-0.0311001
-0.0498654
-0.0717362
-0.0967448
-0.124844
-0.156058
-0.191376
-0.230668
-0.273621
-0.313199
-0.356426
-0.421951
-0.477258
-0.00925791
-0.00750885
-0.00576781
-0.00401895
-0.00228743
-0.000537896
0.00119364
0.00294795
0.00468351
0.00644055
0.00817323
0.00992156
0.0116379
0.0133629
0.0150503
0.0167391
0.0183886
0.0200334
0.0216367
0.0232282
0.0247789
0.0263068
0.0277932
0.0292474
0.0306593
0.0320314
0.0333585
0.0346345
0.0358619
0.0370291
0.038112
0.0390355
0.0397562
0.0402218
0.0403801
0.0401651
0.0395042
0.0383118
0.036487
0.0339242
0.0304937
0.0260523
0.0203555
0.0131491
0.00406057
-0.0071584
-0.0210549
-0.0373371
-0.0570301
-0.0799188
-0.106016
-0.135263
-0.167681
-0.204265
-0.244822
-0.289137
-0.330077
-0.374757
-0.44102
-0.497824
-0.0125991
-0.0108071
-0.00902191
-0.00722734
-0.00545015
-0.00365327
-0.00187462
-7.07465e-05
0.001715
0.00352572
0.00531262
0.00711844
0.00889344
0.0106792
0.012428
0.0141787
0.0158903
0.0175968
0.0192618
0.0209147
0.0225267
0.0241156
0.0256625
0.0271764
0.0286467
0.0300756
0.0314573
0.0327852
0.0340603
0.0352804
0.0363911
0.0373486
0.0380862
0.0385547
0.0386981
0.038446
0.0377208
0.0364308
0.0344687
0.0317234
0.0280591
0.0233271
0.0172745
0.00963901
3.62671e-05
-0.0117958
-0.0264214
-0.0435231
-0.064154
-0.088074
-0.115271
-0.145674
-0.179306
-0.217169
-0.258993
-0.304644
-0.346876
-0.393049
-0.460033
-0.518653
-0.0158295
-0.0139946
-0.0121668
-0.0103288
-0.00850679
-0.00666426
-0.00483801
-0.002986
-0.00115077
0.000709046
0.00254646
0.00440247
0.00622828
0.00806538
0.0098663
0.011671
0.0134378
0.0152019
0.0169257
0.0186391
0.0203126
0.0219637
0.0235727
0.0251483
0.0266794
0.0281673
0.029606
0.030989
0.0323176
0.0335768
0.0347401
0.0357253
0.0364841
0.036958
0.037087
0.0367967
0.0360045
0.0346129
0.0325081
0.0295732
0.025666
0.0206326
0.0142109
0.00613096
-0.00400461
-0.0164716
-0.0318517
-0.0498006
-0.0714007
-0.0963863
-0.124721
-0.156319
-0.191199
-0.230365
-0.273478
-0.320491
-0.36409
-0.411828
-0.479399
-0.540128
-0.0191434
-0.0172633
-0.0153891
-0.0135031
-0.0116332
-0.00974109
-0.00786533
-0.00596145
-0.00407346
-0.00215751
-0.000263087
0.001653
0.00354033
0.00544087
0.00730605
0.00917535
0.011007
0.0128356
0.0146239
0.0164016
0.0181394
0.0198548
0.0215282
0.0231677
0.0247615
0.0263109
0.0278094
0.0292497
0.0306315
0.0319506
0.0331485
0.0341742
0.0349567
0.0354387
0.035557
0.0352326
0.0343777
0.0328885
0.0306443
0.0275224
0.023374
0.0180393
0.0112474
0.00272046
-0.00795245
-0.0210612
-0.0372048
-0.0560089
-0.0785881
-0.104651
-0.134133
-0.166937
-0.203074
-0.243555
-0.287959
-0.336313
-0.381196
-0.430532
-0.498807
-0.561887
-0.0223711
-0.020445
-0.018525
-0.0165921
-0.0146736
-0.0127321
-0.0108047
-0.00884842
-0.00690658
-0.00493703
-0.00298753
-0.00101663
0.000926071
0.00288246
0.00480429
0.00673185
0.00862312
0.0105134
0.0123646
0.014207
0.0160106
0.0177924
0.0195327
0.0212386
0.0228982
0.024512
0.0260735
0.0275755
0.0290182
0.0303846
0.0316424
0.0327036
0.0335134
0.0340062
0.0341148
0.0337555
0.0328354
0.0312446
0.0288554
0.025539
0.0211397
0.015492
0.00831549
-0.000674913
-0.0119044
-0.0256778
-0.0426108
-0.0622991
-0.0858895
-0.113065
-0.143734
-0.177782
-0.21521
-0.257031
-0.302751
-0.352475
-0.398698
-0.449702
-0.518626
-0.584272
-0.0256861
-0.0237119
-0.021742
-0.0197573
-0.0177868
-0.0157912
-0.0138098
-0.0117969
-0.00979754
-0.00776699
-0.00575556
-0.00371968
-0.00171044
0.000314317
0.00230544
0.00430259
0.00626377
0.00822352
0.0101442
0.012056
0.0139293
0.0157809
0.017591
0.0193667
0.0210953
0.0227775
0.0244063
0.0259734
0.0274776
0.0289116
0.0302111
0.0313202
0.0321599
0.0326672
0.0327703
0.0323808
0.0314002
0.029712
0.0271813
0.0236731
0.0190245
0.0130633
0.0055005
-0.00395656
-0.0157477
-0.0301931
-0.0479246
-0.0685073
-0.0931185
-0.12142
-0.153287
-0.188589
-0.227318
-0.270489
-0.317526
-0.368603
-0.416086
-0.468794
-0.538493
-0.606893
-0.02888
-0.0268579
-0.02484
-0.0228063
-0.0207851
-0.0187378
-0.0167024
-0.0146348
-0.0125791
-0.0104923
-0.00842303
-0.00632935
-0.00426154
-0.00217742
-0.000125882
0.00193364
0.00395886
0.00598514
0.00797405
0.00995619
0.0119011
0.0138255
0.0157089
0.017558
0.0193598
0.0211144
0.022814
0.0244508
0.0260237
0.027512
0.0288796
0.0300311
0.0309057
0.0314305
0.0315295
0.0311095
0.0300663
0.0282768
0.025599
0.0218914
0.0169835
0.0106967
0.00273216
-0.00720914
-0.0195828
-0.0347241
-0.053282
-0.0747894
-0.100455
-0.129918
-0.163022
-0.199617
-0.239681
-0.284227
-0.332607
-0.38507
-0.433863
-0.488352
-0.558781
-0.630113
-0.0321023
-0.0300343
-0.0279688
-0.0258858
-0.0238148
-0.0217156
-0.0196276
-0.0175047
-0.0153919
-0.0132445
-0.011113
-0.00895371
-0.00681816
-0.00466401
-0.00254088
-0.00040889
0.00168987
0.00378991
0.00585326
0.00791027
0.00993089
0.0119315
0.0138918
0.015818
0.0176965
0.019527
0.0213017
0.0230116
0.0246537
0.0262182
0.0276362
0.0288438
0.0297568
0.0303029
0.0304024
0.0299569
0.0288564
0.0269703
0.0241493
0.0202451
0.0150793
0.00846631
9.79991e-05
-0.0103316
-0.0232942
-0.0391394
-0.0585338
-0.0809748
-0.107705
-0.138342
-0.172696
-0.210595
-0.252004
-0.297932
-0.347654
-0.401493
-0.451517
-0.507831
-0.57911
-0.653536
-0.0351971
-0.0330845
-0.0309735
-0.0288432
-0.0267225
-0.0245718
-0.0224298
-0.0202517
-0.018082
-0.0158775
-0.0136877
-0.01147
-0.00927511
-0.00706039
-0.00487501
-0.00267819
-0.000512187
0.00165825
0.00379423
0.00592663
0.00802456
0.010104
0.0121444
0.0141511
0.0161102
0.0180207
0.0198745
0.0216627
0.0233826
0.0250113
0.0265062
0.0277656
0.0287213
0.0292923
0.0293943
0.0289235
0.0277639
0.0257778
0.022808
0.0186996
0.0132656
0.00631392
-0.00247463
-0.0134111
-0.0269856
-0.043559
-0.0638199
-0.0872265
-0.115058
-0.146908
-0.182551
-0.221792
-0.26458
-0.311915
-0.363009
-0.418256
-0.469554
-0.527771
-0.599875
-0.677568
-0.0383893
-0.0362255
-0.0340599
-0.0318712
-0.0296923
-0.0274814
-0.025278
-0.0230353
-0.0208022
-0.0185316
-0.0162757
-0.0139893
-0.0117243
-0.00943758
-0.00717886
-0.00490755
-0.00266578
-0.000418751
0.0017951
0.00400664
0.00618523
0.00834664
0.0104703
0.0125612
0.0146047
0.0165999
0.0185378
0.0204086
0.0222077
0.0239219
0.0254764
0.0268013
0.0278037
0.0284045
0.0285146
0.0280244
0.0268117
0.0247307
0.0216166
0.0173065
0.0116064
0.00431433
-0.00489621
-0.0163463
-0.0305375
-0.0478509
-0.0689836
-0.0933717
-0.122315
-0.155391
-0.192337
-0.232932
-0.27711
-0.325856
-0.378319
-0.434967
-0.487463
-0.547631
-0.620668
-0.701834
-0.0413598
-0.0391318
-0.0369056
-0.0346601
-0.0324258
-0.030162
-0.0279061
-0.025613
-0.0233287
-0.0210084
-0.0187018
-0.0163648
-0.0140472
-0.0117055
-0.00938827
-0.00705438
-0.00474583
-0.0024274
-0.000138437
0.00215222
0.004413
0.00665928
0.00886991
0.0110491
0.013182
0.0152666
0.0172933
0.0192524
0.0211392
0.0229271
0.0245693
0.0259559
0.0270115
0.027647
0.0277679
0.0272594
0.0259924
0.0238137
0.0205498
0.0160308
0.0100534
0.00240884
-0.00724261
-0.0192243
-0.0340591
-0.0521345
-0.0741737
-0.099574
-0.12967
-0.164014
-0.202303
-0.24429
-0.289891
-0.340076
-0.393933
-0.452018
-0.505744
-0.567941
-0.641886
-0.72682
-0.044725
-0.0424323
-0.0401349
-0.0378118
-0.0354968
-0.0331482
-0.030807
-0.0284258
-0.0260552
-0.0236473
-0.0212553
-0.0188322
-0.0164306
-0.0140049
-0.0116052
-0.00918885
-0.00679801
-0.00439657
-0.00202363
0.000352831
0.00270136
0.00503743
0.00733996
0.00961261
0.0118398
0.0140192
0.0161407
0.0181933
0.0201703
0.0220559
0.0237704
0.0252346
0.0263494
0.0270253
0.0271638
0.0266438
0.0253294
0.0230588
0.01965
0.0149248
0.00867235
0.000672754
-0.00942036
-0.0219433
-0.0374246
-0.0562785
-0.0792231
-0.105656
-0.136918
-0.172544
-0.212189
-0.255582
-0.302615
-0.35424
-0.409485
-0.469004
-0.523887
-0.58815
-0.663077
-0.752237
-0.0477269
-0.0453757
-0.0430208
-0.0406418
-0.0382706
-0.0358663
-0.0334679
-0.03103
-0.0286004
-0.0261334
-0.0236802
-0.021195
-0.0187285
-0.0162353
-0.0137649
-0.011274
-0.00880491
-0.00632104
-0.00386241
-0.0013964
0.0010447
0.00347609
0.00587647
0.00824865
0.0105766
0.0128574
0.0150803
0.0172342
0.0193126
0.0212867
0.0231027
0.0246429
0.0258239
0.0265461
0.0267064
0.0261765
0.0248153
0.0224491
0.0188926
0.0139508
0.00741625
-0.000956435
-0.0115029
-0.0245956
-0.040741
-0.0604112
-0.0842784
-0.111796
-0.144262
-0.181213
-0.222256
-0.267092
-0.31559
-0.368683
-0.425342
-0.486328
-0.54239
-0.608774
-0.684629
-0.778662
-0.0510685
-0.0486612
-0.0462431
-0.0437935
-0.0413472
-0.0388621
-0.0363803
-0.0338544
-0.0313362
-0.0287777
-0.0262329
-0.0236543
-0.0210949
-0.0185083
-0.0159449
-0.0133608
-0.0107981
-0.00821983
-0.0056655
-0.00310185
-0.000560871
0.00197272
0.0044776
0.00695631
0.0093921
0.0117821
0.0141145
0.0163771
0.0185612
0.020648
0.0225509
0.0241844
0.025438
0.0262151
0.0264046
0.0258745
0.0244724
0.0220203
0.0183179
0.0131673
0.00634719
-0.00239419
-0.0134026
-0.0270669
-0.0438902
-0.0643844
-0.0891781
-0.117802
-0.151492
-0.189784
-0.23224
-0.278533
-0.328506
-0.383065
-0.441126
-0.503578
-0.560752
-0.629264
-0.706042
-0.805684
-0.0540373
-0.0515766
-0.0491071
-0.0466083
-0.0441123
-0.0415773
-0.039043
-0.0364631
-0.0338867
-0.0312673
-0.0286575
-0.0260109
-0.0233793
-0.0207164
-0.0180726
-0.0154034
-0.0127514
-0.0100792
-0.00742712
-0.00476151
-0.00211504
0.000527287
0.0031438
0.00573648
0.00828814
0.010795
0.0132446
0.0156243
0.0179258
0.0201162
0.022138
0.0238634
0.0251996
0.0260391
0.0262632
0.0257362
0.0242943
0.0217549
0.0179023
0.0125356
0.00541943
-0.00370559
-0.0151925
-0.0294537
-0.0469792
-0.0683315
-0.0940739
-0.123852
-0.158816
-0.198493
-0.242405
-0.290193
-0.341672
-0.397725
-0.457214
-0.521159
-0.579471
-0.650095
-0.727714
-0.833529
-0.0573301
-0.0548147
-0.0522844
-0.0497181
-0.0471506
-0.0445388
-0.0419249
-0.0392604
-0.0365979
-0.0338881
-0.0311864
-0.0284444
-0.0257162
-0.0229544
-0.0202108
-0.0174402
-0.0146854
-0.0119085
-0.00914973
-0.00637463
-0.00361571
-0.000857946
0.00187718
0.00459104
0.0072658
0.00989733
0.0124723
0.014977
0.0174006
0.0197216
0.0218491
0.0236849
0.025114
0.0260227
0.0262938
0.0257768
0.0243075
0.0216856
0.0176925
0.012111
0.00470266
-0.00480899
-0.0167771
-0.0316435
-0.049881
-0.0721036
-0.0987973
-0.129757
-0.166016
-0.207094