/*--------------------------------*- C++ -*----------------------------------*\
  =========                 |
  \\      /  F ield         | OpenFOAM: The Open Source CFD Toolbox
   \\    /   O peration     | Website:  https://openfoam.org
    \\  /    A nd           | Version:  6.0
     \\/     M anipulation  |
\*---------------------------------------------------------------------------*/
FoamFile
{
    version     2.0;
    format      ascii;
    class       volVectorField;
    location    "12";
    object      U;
}
// * * * * * * * * * * * * * * * * * * * * * * * * * * * * * * * * * * * * * //

dimensions      [0 1 -1 0 0 0 0];

internalField   nonuniform List<vector> 
62000
(
(0.999101 0.00633076 -1.27276e-18)
(0.998647 0.00596436 -5.44282e-18)
(0.998362 0.00626126 7.21306e-19)
(0.998005 0.00638037 -4.00313e-20)
(0.997686 0.00647762 5.87803e-18)
(0.99739 0.00653675 -6.03123e-19)
(0.997116 0.00654338 -3.95457e-18)
(0.996869 0.00650174 4.0282e-18)
(0.996647 0.0064086 -4.95934e-18)
(0.996451 0.00626747 -3.37604e-18)
(0.99628 0.00608082 2.06514e-18)
(0.996134 0.00585565 5.58935e-18)
(0.99601 0.00559574 -3.54514e-18)
(0.995909 0.00530969 3.64463e-18)
(0.995829 0.00500035 -3.83843e-18)
(0.99577 0.00467601 5.74342e-18)
(0.995731 0.00433803 -7.36217e-18)
(0.995712 0.00399307 1.84069e-18)
(0.995711 0.00364114 6.71227e-19)
(0.995732 0.00328659 4.04715e-19)
(0.995772 0.00292869 -5.05887e-18)
(0.995834 0.00256945 2.71451e-18)
(0.995916 0.00220814 -1.68201e-19)
(0.996021 0.00184554 8.10168e-19)
(0.996147 0.00148172 -9.46854e-19)
(0.996298 0.00111812 -3.75208e-18)
(0.996472 0.000756179 3.98069e-18)
(0.996672 0.000397778 3.56703e-19)
(0.996893 4.56989e-05 4.22286e-19)
(0.997137 -0.00029919 -3.37823e-18)
(0.997397 -0.000631519 2.15301e-18)
(0.997676 -0.000933092 -5.08498e-18)
(0.99797 -0.00119625 -1.13802e-18)
(0.998273 -0.00141153 3.98941e-19)
(0.99858 -0.00156896 7.46807e-19)
(0.998881 -0.00165402 -3.57055e-18)
(0.99917 -0.0016518 7.87038e-19)
(0.999435 -0.00154734 5.91374e-19)
(0.999668 -0.00132897 7.13006e-19)
(0.999858 -0.000988456 -9.99588e-19)
(0.999994 -0.000524954 -7.37971e-19)
(1.00006 5.20893e-05 1.98042e-20)
(1.00004 0.000728967 -6.1287e-19)
(0.999897 0.00149016 1.21624e-18)
(0.999568 0.00223497 2.09823e-18)
(0.998973 0.00277542 -3.95736e-18)
(0.99803 0.00283 8.20452e-18)
(0.996694 0.00207491 1.23465e-17)
(0.995009 0.000287627 -5.35135e-18)
(0.993144 -0.00247238 1.69425e-17)
(0.991363 -0.00577692 2.70526e-17)
(0.989863 -0.0089772 3.72916e-17)
(0.988584 -0.0117688 6.88791e-18)
(0.98724 -0.0145523 1.0121e-17)
(0.985497 -0.018592 1.70069e-17)
(0.983582 -0.0252093 4.00373e-17)
(0.982307 -0.0358414 6.15015e-18)
(0.982506 -0.0496808 6.51185e-17)
(1.00612 -0.0119722 -3.122e-17)
(0.470116 -1.01558 3.98504e-17)
(0.999518 0.00409272 -3.19571e-19)
(0.998895 0.00404182 2.24328e-18)
(0.998468 0.0048439 -9.72086e-19)
(0.997887 0.00559275 1.14841e-18)
(0.997281 0.00637288 2.75716e-18)
(0.996673 0.00721446 -3.93696e-19)
(0.996063 0.00805568 -3.12222e-18)
(0.995476 0.00888985 -1.5979e-19)
(0.994921 0.00968955 2.58045e-18)
(0.994411 0.0104366 -4.38995e-18)
(0.993952 0.0111112 -1.60448e-18)
(0.99355 0.0117019 5.58135e-18)
(0.993206 0.0121943 -4.08355e-18)
(0.992921 0.0125845 2.7655e-18)
(0.992689 0.0128636 -3.82124e-18)
(0.99251 0.0130346 2.06579e-18)
(0.992377 0.0130934 -8.57839e-19)
(0.992288 0.0130481 -6.28558e-19)
(0.992237 0.0128975 6.34481e-19)
(0.992221 0.0126519 -5.61068e-20)
(0.992237 0.0123121 1.33218e-18)
(0.992286 0.0118871 -1.38791e-18)
(0.992363 0.0113789 -1.04166e-18)
(0.992475 0.0107947 1.2565e-18)
(0.992617 0.0101373 -3.3409e-18)
(0.992802 0.00941356 -5.34327e-19)
(0.993027 0.00862898 6.18696e-18)
(0.993306 0.00778877 -2.59281e-18)
(0.99363 0.00689963 5.24069e-18)
(0.994011 0.00596321 -5.09971e-19)
(0.994435 0.00499881 -3.02418e-18)
(0.994921 0.00404186 9.90471e-19)
(0.995468 0.00311774 2.13348e-19)
(0.996072 0.00225234 1.41874e-18)
(0.996724 0.00147704 -2.87795e-18)
(0.997407 0.000838685 8.14284e-19)
(0.998104 0.000388747 9.63437e-19)
(0.998786 0.000182322 -4.47706e-19)
(0.99942 0.000264514 2.80153e-19)
(0.999954 0.000666596 1.29511e-19)
(1.00034 0.00138636 9.55289e-19)
(1.0005 0.00238229 -1.32114e-19)
(1.00036 0.00358102 5.25132e-19)
(0.999807 0.00473588 5.56105e-19)
(0.99871 0.00545372 -3.80603e-18)
(0.996962 0.005216 2.92446e-18)
(0.994531 0.00346722 -1.14024e-17)
(0.991539 -0.000150642 -7.08012e-18)
(0.988294 -0.00545232 -3.49955e-18)
(0.985253 -0.011548 -1.9865e-18)
(0.982802 -0.017078 -3.02561e-17)
(0.980927 -0.0209151 -3.68794e-17)
(0.97907 -0.0233927 2.86861e-18)
(0.976477 -0.0263629 -4.57821e-18)
(0.972839 -0.0329961 -1.84708e-17)
(0.969079 -0.045995 5.33325e-18)
(0.967308 -0.0670338 6.94497e-18)
(0.969707 -0.0882894 -1.35667e-17)
(0.982232 -0.121949 4.98729e-17)
(1.0279 -0.0594983 -2.281e-17)
(1.00125 0.00437448 3.13928e-18)
(1.00108 0.00422753 -9.28209e-19)
(1.00091 0.0045691 -4.92829e-19)
(1.00056 0.00500566 -2.2475e-19)
(1.00006 0.00555316 6.9711e-18)
(0.999443 0.00627332 -5.7682e-18)
(0.998721 0.00711417 -2.16556e-18)
(0.997927 0.00807538 1.46283e-18)
(0.997085 0.00913086 3.83968e-18)
(0.996225 0.0102558 1.59322e-18)
(0.995374 0.0114205 -6.53949e-18)
(0.994558 0.0125971 -3.11416e-18)
(0.993796 0.0137524 2.97326e-18)
(0.993106 0.0148606 -1.1372e-18)
(0.992497 0.0158901 2.96211e-19)
(0.991979 0.0168216 5.07418e-18)
(0.991552 0.017629 -5.00906e-18)
(0.991217 0.0183024 4.89394e-18)
(0.990969 0.0188232 -6.28699e-19)
(0.990807 0.0191903 3.25225e-18)
(0.990719 0.0193926 -1.57308e-18)
(0.990704 0.0194346 -2.53973e-18)
(0.990753 0.0193115 8.73041e-19)
(0.990864 0.019031 3.21659e-18)
(0.99103 0.0185919 -2.13895e-18)
(0.991259 0.0180045 3.0932e-18)
(0.991545 0.0172735 -3.47206e-19)
(0.991899 0.0164072 -1.62873e-18)
(0.99231 0.0154124 -3.43145e-18)
(0.992784 0.0142905 3.39172e-18)
(0.993311 0.0130683 4.6103e-19)
(0.993911 0.0117862 6.37314e-19)
(0.994585 0.010477 -2.12943e-18)
(0.99533 0.00917144 2.42863e-18)
(0.996139 0.00791004 -1.29409e-19)
(0.996993 0.00675344 1.58266e-18)
(0.997873 0.00577086 -1.32941e-19)
(0.998741 0.00503727 4.09556e-19)
(0.99955 0.00461591 -8.79786e-19)
(1.00023 0.00455141 1.91282e-19)
(1.00071 0.00484138 -7.08404e-19)
(1.00089 0.00543438 3.3023e-20)
(1.00065 0.00623766 -8.67826e-19)
(0.999813 0.00676964 -2.47924e-18)
(0.998266 0.00648949 1.82003e-18)
(0.995935 0.00479258 -4.33085e-19)
(0.992866 0.00113676 1.12446e-18)
(0.989313 -0.00461206 -6.61169e-18)
(0.985731 -0.0117844 -7.13514e-20)
(0.982693 -0.0188848 -6.2343e-20)
(0.980612 -0.0240578 -3.56369e-17)
(0.979388 -0.0260791 -1.38477e-17)
(0.978392 -0.0257726 1.95734e-17)
(0.976767 -0.0256555 1.7463e-17)
(0.974364 -0.0295422 1.6519e-17)
(0.97199 -0.040765 -6.93845e-17)
(0.971777 -0.060652 1.99012e-17)
(0.975659 -0.0817951 -3.11095e-17)
(0.986177 -0.103523 -6.25729e-17)
(0.899972 -0.278226 5.42946e-18)
(1.00288 0.0115722 1.97687e-18)
(1.00319 0.0110526 -1.35942e-18)
(1.00344 0.010736 8.75953e-19)
(1.00354 0.0104683 1.27318e-18)
(1.00347 0.0102988 -2.67621e-18)
(1.00322 0.0102921 -2.62769e-18)
(1.00279 0.0104353 2.06006e-18)
(1.00219 0.0107501 3.52276e-19)
(1.00142 0.0112366 6.97842e-19)
(1.00053 0.0118893 -2.74758e-18)
(0.999522 0.0126958 -7.8325e-19)
(0.998447 0.0136381 6.09814e-19)
(0.997333 0.0146892 1.76287e-18)
(0.996219 0.0158213 2.07053e-19)
(0.995133 0.0169973 2.68818e-18)
(0.994108 0.0181856 -5.05702e-18)
(0.993165 0.0193461 2.02519e-18)
(0.992325 0.0204494 2.21672e-18)
(0.991598 0.0214585 -5.36831e-18)
(0.990997 0.022352 5.47949e-18)
(0.990522 0.0230991 -6.95083e-19)
(0.990175 0.0236873 -5.10638e-18)
(0.989951 0.0240951 -1.24735e-18)
(0.989848 0.0243171 1.93705e-18)
(0.989861 0.0243394 9.48242e-20)
(0.989987 0.024165 -2.73052e-18)
(0.990222 0.0237892 3.81987e-18)
(0.990565 0.0232176 -1.89165e-18)
(0.991006 0.02245 3.67647e-19)
(0.991536 0.0214848 5.85277e-19)
(0.992149 0.0203462 3.17398e-19)
(0.992855 0.0190712 6.39759e-19)
(0.993652 0.0176915 2.22659e-19)
(0.994532 0.0162326 -1.37694e-18)
(0.995482 0.0147335 -4.32722e-19)
(0.996484 0.0132544 3.93789e-19)
(0.997511 0.0118656 -2.79382e-18)
(0.998518 0.0106448 -6.26698e-20)
(0.999452 0.00965882 4.62854e-19)
(1.00023 0.00895648 -1.40609e-18)
(1.00077 0.00853705 -2.37585e-19)
(1.00095 0.00835859 -9.40536e-20)
(1.00061 0.00833451 1.6051e-18)
(0.999515 0.00784872 4.3083e-19)
(0.99759 0.00632458 3.36781e-18)
(0.994768 0.00320685 -1.21201e-18)
(0.991106 -0.00194768 5.5532e-18)
(0.986877 -0.009084 5.77555e-19)
(0.982559 -0.017272 2.86723e-17)
(0.978782 -0.0248013 -6.02e-18)
(0.976049 -0.0297179 6.5773e-17)
(0.97441 -0.0308762 5.3738e-17)
(0.973489 -0.0293699 -2.8517e-17)
(0.972556 -0.0278975 2.1952e-17)
(0.971602 -0.030373 3.18529e-17)
(0.971073 -0.0404849 2.91642e-17)
(0.972736 -0.0596697 6.44253e-18)
(0.978181 -0.0814563 8.74518e-18)
(0.984173 -0.0869679 4.39248e-17)
(0.951949 -0.240005 -5.23826e-18)
(1.00346 0.0207384 -1.68821e-18)
(1.00397 0.0201261 -3.17502e-18)
(1.00446 0.0195837 7.70775e-20)
(1.00491 0.0189611 5.46343e-19)
(1.00527 0.0183429 -2.42627e-18)
(1.00552 0.0177861 4.2781e-18)
(1.0056 0.0173028 -4.43043e-19)
(1.00551 0.0169335 2.31311e-18)
(1.00523 0.0167022 9.78816e-19)
(1.00475 0.0166287 -5.43547e-18)
(1.00408 0.0167264 2.50485e-18)
(1.00323 0.0170018 -1.96729e-19)
(1.00223 0.01745 -3.09141e-20)
(1.0011 0.0180621 3.17924e-18)
(0.999885 0.0188159 -3.04289e-18)
(0.998624 0.0196895 6.07872e-19)
(0.99735 0.0206477 -7.19749e-19)
(0.996103 0.0216607 9.58408e-19)
(0.994916 0.022687 -1.45853e-18)
(0.993821 0.0236959 2.40428e-18)
(0.992839 0.0246442 -2.5628e-18)
(0.991992 0.0255051 2.21489e-18)
(0.991291 0.0262416 3.27934e-18)
(0.990747 0.0268313 -3.36992e-18)
(0.990362 0.0272451 -9.21658e-19)
(0.990142 0.0274716 4.36614e-18)
(0.990085 0.027492 -4.09657e-18)
(0.99019 0.0273024 1.37585e-18)
(0.990446 0.0268909 -3.31586e-18)
(0.990842 0.0262467 4.44454e-18)
(0.991371 0.0253852 -1.78064e-18)
(0.992036 0.0243336 -2.28819e-18)
(0.992828 0.0231139 -4.46173e-18)
(0.993733 0.0217413 1.30686e-18)
(0.994734 0.0202458 3.6211e-19)
(0.995804 0.0186782 -3.98901e-19)
(0.99691 0.0171008 2.56607e-18)
(0.998002 0.0155842 2.19923e-18)
(0.999014 0.0141903 -4.83372e-19)
(0.999857 0.0129654 8.22997e-19)
(1.00043 0.0119099 -2.41828e-19)
(1.00061 0.0109994 -1.56869e-19)
(1.00016 0.010154 -1.40476e-18)
(0.998812 0.0087376 -2.81863e-18)
(0.99651 0.00618851 -1.81667e-18)
(0.993174 0.00204127 -2.926e-18)
(0.988818 -0.0040574 -1.45859e-18)
(0.983657 -0.0119639 4.09031e-18)
(0.978101 -0.0207039 2.46815e-18)
(0.972787 -0.0286456 -9.20052e-18)
(0.968307 -0.0340207 -5.39838e-18)
(0.96495 -0.0359077 -2.7456e-17)
(0.962758 -0.0355814 -1.29993e-18)
(0.961319 -0.035685 -2.28847e-17)
(0.960875 -0.0399153 2.02072e-17)
(0.96171 -0.0519689 -8.22642e-18)
(0.965441 -0.0733558 -4.68402e-18)
(0.973735 -0.0969974 -3.62643e-18)
(0.976161 -0.101201 1.84239e-17)
(0.950378 -0.240879 2.3847e-18)
(1.00353 0.028321 -9.54356e-19)
(1.00389 0.0278676 1.15997e-18)
(1.00429 0.0274711 1.88434e-18)
(1.00477 0.0269022 -2.05526e-19)
(1.00527 0.0262539 -1.2116e-18)
(1.00578 0.0255636 -1.34583e-18)
(1.00622 0.0248472 -4.73529e-19)
(1.00659 0.0241458 -2.30175e-18)
(1.00682 0.0234924 3.12657e-18)
(1.0069 0.0229193 2.80208e-18)
(1.0068 0.0224564 -3.44926e-18)
(1.0065 0.0221289 1.94489e-18)
(1.006 0.0219538 -6.4631e-19)
(1.00531 0.0219429 1.57914e-18)
(1.00444 0.0220958 -2.93865e-19)
(1.00341 0.0224092 -7.87479e-19)
(1.00225 0.022866 -4.03291e-18)
(1.00101 0.02345 6.13586e-18)
(0.999725 0.0241306 -2.98076e-18)
(0.998429 0.0248831 1.9303e-18)
(0.997163 0.0256668 -2.95448e-18)
(0.995966 0.0264533 2.14373e-18)
(0.994867 0.0272007 -1.9298e-18)
(0.993896 0.0278771 -1.23824e-18)
(0.993072 0.0284452 6.84482e-20)
(0.992415 0.0288808 5.84428e-20)
(0.991935 0.0291536 1.76697e-18)
(0.991642 0.0292499 3.21615e-18)
(0.991532 0.0291442 -1.00414e-18)
(0.991601 0.0288166 1.26196e-18)
(0.991845 0.0282677 -9.09453e-19)
(0.992265 0.0275127 1.29584e-19)
(0.992852 0.0265609 5.15858e-18)
(0.993589 0.0254124 -3.33111e-19)
(0.994454 0.024084 3.05725e-18)
(0.995418 0.022612 -1.79619e-18)
(0.996443 0.0210452 -4.00744e-18)
(0.997475 0.0194407 -2.11874e-18)
(0.998443 0.0178497 -3.53756e-19)
(0.999252 0.0163114 7.11324e-20)
(0.999795 0.0148252 2.436e-19)
(0.999934 0.0133862 6.53998e-21)
(0.999375 0.0119144 -1.76338e-19)
(0.997832 0.0098413 2.47156e-18)
(0.995264 0.00664754 -2.50287e-18)
(0.99158 0.001967 3.6877e-18)
(0.98673 -0.00448088 -8.74616e-19)
(0.980834 -0.0125326 -7.10546e-18)
(0.974188 -0.0212996 -1.54851e-17)
(0.967366 -0.029393 2.13527e-17)
(0.961008 -0.035383 -2.16812e-17)
(0.95562 -0.038651 2.0679e-17)
(0.95169 -0.040589 7.00312e-18)
(0.949228 -0.0436293 -7.11267e-18)
(0.948818 -0.0510182 -1.07352e-16)
(0.950844 -0.0660611 2.72337e-17)
(0.956918 -0.0899267 -2.42709e-17)
(0.96892 -0.114497 1.07595e-17)
(0.969804 -0.119161 1.82448e-18)
(0.964418 -0.234791 2.28269e-18)
(1.00381 0.0338637 -5.34966e-18)
(1.00387 0.0336865 3.05295e-18)
(1.00399 0.0335873 1.21749e-18)
(1.00425 0.0332733 9.8462e-19)
(1.0046 0.0328314 -2.37954e-18)
(1.00505 0.0322791 -2.62802e-18)
(1.00554 0.031624 5.61477e-18)
(1.00605 0.0308985 -8.03462e-19)
(1.00655 0.0301313 6.29806e-19)
(1.00698 0.029355 -4.61772e-18)
(1.00731 0.0286038 3.1121e-18)
(1.00752 0.0279115 -1.70805e-18)
(1.00756 0.0273063 -2.25322e-18)
(1.00743 0.0268148 4.6205e-18)
(1.0071 0.0264524 -8.45129e-19)
(1.00658 0.0262335 -1.68455e-18)
(1.00588 0.0261582 -1.98173e-18)
(1.00502 0.0262279 6.32096e-18)
(1.00401 0.0264276 -2.99473e-18)
(1.0029 0.0267461 -2.93392e-18)
(1.00172 0.0271546 3.29813e-18)
(1.0005 0.0276331 -2.99277e-19)
(0.999298 0.028145 -5.20056e-20)
(0.998139 0.0286603 -1.26054e-18)
(0.99706 0.029142 5.77525e-19)
(0.996094 0.0295618 -2.41982e-18)
(0.995267 0.0298853 -2.10199e-18)
(0.994601 0.0300931 7.19689e-19)
(0.994106 0.0301513 2.30446e-18)
(0.993788 0.0300311 1.51502e-18)
(0.993653 0.0297218 1.37664e-18)
(0.993708 0.0292278 -1.36514e-18)
(0.993946 0.0285431 3.88015e-19)
(0.994355 0.0276544 1.19721e-18)
(0.994913 0.0265631 -2.19657e-18)
(0.995595 0.0252879 -4.42503e-20)
(0.996363 0.023861 -1.39329e-19)
(0.997166 0.0223223 1.45178e-18)
(0.997934 0.020708 -1.62477e-19)
(0.998576 0.0190465 6.40814e-19)
(0.998985 0.0173342 4.57874e-20)
(0.999021 0.0155843 -1.09621e-19)
(0.99837 0.0137132 1.00311e-18)
(0.996733 0.011271 -5.60499e-19)
(0.994097 0.00780206 3.04904e-18)
(0.990366 0.00304036 -4.96595e-20)
(0.985434 -0.00323019 1.19239e-17)
(0.97932 -0.0108579 8.5147e-18)
(0.972185 -0.0190976 -4.4091e-19)
(0.964503 -0.0268673 -2.56937e-17)
(0.956894 -0.0331242 3.5502e-18)
(0.950012 -0.0375661 -2.18907e-17)
(0.94472 -0.0416492 2.64699e-17)
(0.941434 -0.0475023 -4.03676e-18)
(0.941078 -0.0577808 3.93975e-17)
(0.944256 -0.0751581 -2.10799e-17)
(0.952625 -0.100181 -6.54424e-18)
(0.968194 -0.124108 -2.61953e-17)
(0.968615 -0.12754 -1.33773e-17)
(0.973191 -0.230031 -3.47981e-18)
(1.00452 0.037662 1.8889e-18)
(1.00426 0.0377207 3.57391e-18)
(1.00406 0.0379149 -1.98159e-18)
(1.00401 0.0378983 -2.51036e-18)
(1.00408 0.0377498 -7.24773e-19)
(1.00429 0.0374659 2.91696e-18)
(1.0046 0.0370419 1.15186e-18)
(1.00501 0.036495 1.02587e-18)
(1.00548 0.0358425 -1.43008e-18)
(1.00598 0.0351079 9.71676e-19)
(1.00649 0.0343202 -1.73433e-18)
(1.00695 0.0335115 -3.05532e-18)
(1.00734 0.0327128 3.90318e-18)
(1.00761 0.0319563 -1.42207e-18)
(1.00775 0.0312665 -1.08664e-19)
(1.00774 0.0306688 -3.44329e-18)
(1.00754 0.0301769 2.21378e-18)
(1.00717 0.029806 9.04113e-19)
(1.00663 0.0295558 -1.70761e-18)
(1.00593 0.0294291 5.18097e-18)
(1.00509 0.0294116 -2.00324e-18)
(1.00414 0.0294953 -4.19634e-18)
(1.00311 0.0296541 4.13145e-18)
(1.00204 0.0298669 -4.7202e-18)
(1.00097 0.0301036 1.11359e-18)
(0.999924 0.0303397 2.71118e-18)
(0.998947 0.0305436 2.15607e-19)
(0.998068 0.0306968 -1.70089e-18)
(0.997309 0.0307625 9.54959e-19)
(0.996685 0.0307101 -1.1257e-19)
(0.996212 0.0305197 -2.37167e-18)
(0.995905 0.0301892 -6.49503e-19)
(0.995768 0.029703 -1.267e-18)
(0.995792 0.0290347 -1.72262e-18)
(0.995963 0.0281724 -1.04182e-18)
(0.996262 0.0271175 2.5076e-18)
(0.996659 0.0258853 -3.60113e-21)
(0.997111 0.0244968 -1.12811e-18)
(0.997559 0.0229711 1.77757e-18)
(0.997924 0.0213234 -7.70122e-19)
(0.998109 0.0195454 4.17282e-20)
(0.997983 0.017665 -1.72061e-19)
(0.997248 0.0155946 -2.14488e-18)
(0.995616 0.0130213 6.32454e-19)
(0.993096 0.00956682 1.20309e-18)
(0.989598 0.00505773 1.73218e-18)
(0.984978 -0.000664104 -5.70721e-18)
(0.979166 -0.00747124 5.80805e-18)
(0.97219 -0.0147786 -2.12029e-17)
(0.964407 -0.0218145 7.06006e-18)
(0.956371 -0.0279079 9.8543e-18)
(0.948799 -0.0330443 -8.69673e-18)
(0.942819 -0.0387007 -3.34189e-17)
(0.939159 -0.0466782 1.40954e-17)
(0.939017 -0.059031 1.23321e-17)
(0.943208 -0.0777752 -3.51277e-17)
(0.95338 -0.102874 -8.22096e-18)
(0.971439 -0.125592 2.16247e-17)
(0.970913 -0.127941 8.27341e-18)
(0.980127 -0.225911 7.66999e-18)
(1.00566 0.0403698 -3.68869e-18)
(1.00517 0.0406251 4.34594e-18)
(1.0047 0.0410564 -2.4176e-18)
(1.00436 0.041299 -2.87906e-19)
(1.00413 0.0414258 1.35709e-18)
(1.00404 0.0414201 -6.96287e-19)
(1.00408 0.0412678 2.55797e-18)
(1.00424 0.0409734 1.20032e-18)
(1.00451 0.0405409 -1.90907e-18)
(1.00488 0.0399822 -3.63273e-18)
(1.00532 0.0393159 4.09492e-18)
(1.0058 0.0385662 2.54462e-19)
(1.00628 0.037759 -2.55425e-19)
(1.00674 0.036925 -5.12322e-19)
(1.00713 0.0360904 2.33322e-18)
(1.00744 0.0352851 -3.10562e-18)
(1.00762 0.0345304 3.22133e-18)
(1.00766 0.033851 -5.1623e-18)
(1.00754 0.0332572 2.06387e-18)
(1.00727 0.0327633 -9.34785e-19)
(1.00685 0.0323677 4.57397e-20)
(1.00627 0.0320738 -1.98667e-18)
(1.00558 0.0318669 5.06645e-18)
(1.00477 0.0317371 -1.37588e-18)
(1.0039 0.0316632 1.32558e-18)
(1.00298 0.0316291 -1.96074e-18)
(1.00205 0.0316106 -2.19511e-18)
(1.00114 0.0315941 2.23798e-18)
(1.00028 0.0315464 -6.18529e-19)
(0.999499 0.031437 -4.14578e-19)
(0.998809 0.031246 5.5947e-19)
(0.998235 0.0309693 1.43058e-18)
(0.997787 0.0305841 -1.9098e-20)
(0.997465 0.0300582 2.8465e-18)
(0.997264 0.029369 -2.13322e-18)
(0.997172 0.0285034 1.30226e-18)
(0.997172 0.0274624 5.98096e-19)
(0.99723 0.0262491 7.04553e-19)
(0.997305 0.0248653 -5.14191e-19)
(0.997334 0.0233124 9.89382e-20)
(0.997241 0.0215769 3.9768e-19)
(0.996912 0.0196967 8.69257e-20)
(0.996098 0.0175818 1.00552e-18)
(0.994533 0.015048 -5.22721e-20)
(0.992243 0.0118002 -1.56798e-18)
(0.989146 0.00773938 -9.28422e-20)
(0.98508 0.00275669 -5.56034e-18)
(0.979899 -0.00305268 -5.61048e-18)
(0.973532 -0.0092572 2.08104e-17)
(0.966214 -0.015371 -1.06183e-18)
(0.95841 -0.0210445 -3.39971e-19)
(0.950837 -0.0265024 -2.01997e-18)
(0.944778 -0.0332129 9.62841e-18)
(0.941158 -0.0426685 -2.24615e-17)
(0.941344 -0.0563828 -6.43712e-18)
(0.946307 -0.0758069 4.25485e-17)
(0.95766 -0.100476 4.78731e-18)
(0.97707 -0.122126 1.39439e-18)
(0.975235 -0.123705 2.86114e-18)
(0.985175 -0.222937 -1.83375e-17)
(1.00699 0.0422204 -1.73838e-19)
(1.00633 0.0425891 -3.19427e-18)
(1.00567 0.0431849 1.47113e-18)
(1.0051 0.0436278 -1.77932e-18)
(1.00464 0.0439871 1.90081e-18)
(1.00428 0.0442361 -8.90737e-19)
(1.00405 0.0443548 3.54353e-18)
(1.00394 0.0443362 -2.20656e-18)
(1.00397 0.0441735 2.74911e-18)
(1.00411 0.0438666 -1.33997e-18)
(1.00436 0.043422 -3.53715e-19)
(1.0047 0.0428533 1.05877e-18)
(1.00511 0.0421772 -3.28184e-18)
(1.00555 0.0414177 5.74349e-18)
(1.00601 0.0405972 2.05747e-19)
(1.00643 0.0397443 -1.56177e-19)
(1.0068 0.0388824 -3.93712e-18)
(1.00709 0.0380404 2.67281e-18)
(1.00727 0.0372353 -3.35747e-18)
(1.00733 0.0364895 2.20273e-18)
(1.00725 0.0358111 3.07216e-19)
(1.00703 0.0352134 1.4804e-18)
(1.00667 0.0346916 -1.52581e-18)
(1.00619 0.0342472 -2.47462e-18)
(1.00559 0.0338673 1.84661e-18)
(1.0049 0.0335458 1.53551e-18)
(1.00414 0.0332671 -1.69589e-18)
(1.00334 0.0330247 2.27021e-19)
(1.00253 0.0327915 8.8538e-19)
(1.00172 0.0325429 -2.75978e-18)
(1.00095 0.0322603 5.64409e-19)
(1.00023 0.0319416 1.16331e-19)
(0.999578 0.0315654 -3.37922e-19)
(0.999003 0.0310954 -5.92504e-19)
(0.998504 0.030504 -6.31878e-19)
(0.99808 0.0297683 -2.26888e-19)
(0.997721 0.0288787 1.21123e-20)
(0.997409 0.0278235 -4.14069e-19)
(0.997119 0.0265894 1.33169e-18)
(0.996808 0.0251649 -3.10491e-19)
(0.996424 0.023532 -1.437e-19)
(0.995875 0.0217328 2.39776e-19)
(0.994976 0.0196782 1.17815e-18)
(0.993499 0.0172872 9.41137e-19)
(0.991474 0.0143451 -1.6562e-18)
(0.98882 0.0108039 1.95108e-18)
(0.985378 0.00659011 -1.44908e-18)
(0.980944 0.0017617 -6.49521e-18)
(0.975381 -0.00339001 -1.01368e-17)
(0.968816 -0.00862545 1.56384e-17)
(0.961628 -0.0138548 -1.36895e-17)
(0.954495 -0.0194838 8.59845e-18)
(0.948765 -0.0269476 -2.35273e-17)
(0.94546 -0.0374705 1.51082e-18)
(0.946016 -0.0521302 -4.95574e-18)
(0.951489 -0.0719631 2.12865e-18)
(0.963431 -0.0962856 7.34723e-18)
(0.983229 -0.117464 -1.01535e-17)
(0.979811 -0.118764 1.64803e-17)
(0.988876 -0.221652 3.11555e-17)
(1.00844 0.0436641 -6.28284e-19)
(1.00769 0.044109 6.25154e-19)
(1.00691 0.0448056 1.31785e-18)
(1.0062 0.0453797 1.21742e-18)
(1.00555 0.0458998 -2.2316e-18)
(1.00498 0.0463368 -9.18778e-19)
(1.00452 0.0466695 2.25611e-18)
(1.00416 0.0468857 1.40512e-18)
(1.00393 0.0469711 -2.90907e-18)
(1.00382 0.0469168 3.40514e-18)
(1.00384 0.0467191 -1.99059e-18)
(1.00397 0.0463812 -3.0503e-18)
(1.0042 0.0459087 2.35389e-18)
(1.00452 0.0453165 2.30607e-19)
(1.00489 0.0446187 -3.70768e-18)
(1.00529 0.0438387 2.55e-18)
(1.00569 0.0429966 8.58357e-19)
(1.00607 0.0421213 -3.77937e-19)
(1.00639 0.0412313 5.33923e-19)
(1.00664 0.0403536 1.76946e-18)
(1.00679 0.0395024 -3.81417e-18)
(1.00682 0.0386979 2.06968e-18)
(1.00674 0.0379434 -6.23059e-19)
(1.00653 0.0372496 3.91671e-18)
(1.0062 0.0366112 -3.1097e-18)
(1.00575 0.0360317 9.51057e-19)
(1.00521 0.0355035 -2.36105e-18)
(1.00459 0.0350276 1.5595e-18)
(1.0039 0.034585 -6.21654e-19)
(1.00317 0.0341548 2.06116e-18)
(1.00241 0.0337263 9.23316e-19)
(1.00165 0.0333024 -2.41233e-18)
(1.00091 0.032863 1.31107e-18)
(1.00018 0.0323749 -3.73085e-20)
(0.999484 0.0318088 -8.62539e-19)
(0.998814 0.0311367 1.30974e-18)
(0.998173 0.0303429 1.70693e-19)
(0.997557 0.0294052 4.14793e-19)
(0.99695 0.0282987 -1.18291e-18)
(0.996334 0.027001 4.40753e-19)
(0.995675 0.0254912 -2.68933e-19)
(0.994908 0.0238111 -1.16235e-20)
(0.993917 0.0218744 -7.69766e-19)
(0.992518 0.0196724 -1.74855e-19)
(0.99073 0.0170596 -3.35171e-19)
(0.988471 0.014015 -2.29617e-18)
(0.985593 0.0104852 -9.35448e-19)
(0.981858 0.00648706 6.7014e-18)
(0.977092 0.0021888 1.15446e-17)
(0.971345 -0.00237059 -6.22278e-18)
(0.964921 -0.0073002 8.98052e-18)
(0.958443 -0.0131287 6.77125e-18)
(0.953264 -0.02124 1.41349e-17)
(0.950424 -0.0326323 2.62644e-17)
(0.951348 -0.0480431 1.50605e-17)
(0.957122 -0.068213 -4.27169e-19)
(0.969279 -0.0923496 -4.5696e-18)
(0.988978 -0.113428 1.14973e-19)
(0.984177 -0.114279 9.23359e-18)
(0.991754 -0.22148 -2.97971e-17)
(1.00983 0.0446969 1.77165e-18)
(1.00902 0.0451591 -1.85512e-18)
(1.00819 0.0459067 -6.89817e-19)
(1.00738 0.0465627 4.03484e-18)
(1.00662 0.0471954 -3.07664e-18)
(1.00591 0.047774 -1.53561e-18)
(1.00527 0.0482779 3.12224e-18)
(1.00473 0.0486919 -3.38571e-18)
(1.00428 0.048998 3.23938e-18)
(1.00395 0.0491816 1.15418e-18)
(1.00374 0.0492318 -1.29985e-18)
(1.00365 0.0491427 -2.06281e-18)
(1.00367 0.048911 1.63248e-18)
(1.0038 0.0485417 -1.23106e-18)
(1.00402 0.0480401 3.46182e-19)
(1.00431 0.0474212 -5.89363e-19)
(1.00464 0.046699 1.47976e-18)
(1.00499 0.0458978 1.9156e-18)
(1.00533 0.0450347 -5.33105e-18)
(1.00564 0.0441367 3.44848e-18)
(1.0059 0.0432207 -2.09697e-18)
(1.00608 0.0423111 -1.78745e-18)
(1.00618 0.0414169 2.21495e-18)
(1.00616 0.0405556 -8.83924e-20)
(1.00604 0.0397285 -1.12074e-18)
(1.00581 0.0389469 2.55674e-19)
(1.00546 0.0382104 2.35178e-18)
(1.00502 0.0375266 3.68844e-19)
(1.00449 0.0368835 -1.59597e-18)
(1.00388 0.0362679 1.12157e-18)
(1.0032 0.0356738 -1.59068e-18)
(1.00248 0.0351098 1.76975e-18)
(1.00172 0.0345636 1.10523e-18)
(1.00093 0.0340042 5.31601e-19)
(1.00012 0.0334044 1.86325e-20)
(0.999291 0.0327363 4.48837e-19)
(0.998455 0.0319812 -1.07149e-18)
(0.997611 0.0311116 -1.19891e-18)
(0.996757 0.0300944 3.60651e-19)
(0.99589 0.0288995 3.7161e-19)
(0.994991 0.027505 1.63974e-19)
(0.994022 0.0259484 2.07512e-20)
(0.992932 0.0241486 -1.59908e-18)
(0.991579 0.0221367 -5.11736e-19)
(0.989967 0.0198227 8.19613e-19)
(0.988002 0.0171896 9.6398e-19)
(0.985558 0.0141907 5.82124e-18)
(0.982378 0.0107997 -6.78678e-19)
(0.978284 0.00707876 2.01186e-18)
(0.973275 0.00291187 1.1032e-17)
(0.967599 -0.00195309 -1.21978e-18)
(0.961824 -0.00811575 -3.57671e-18)
(0.957273 -0.0168915 6.96804e-18)
(0.95495 -0.0290909 -1.46897e-18)
(0.95622 -0.0451994 1.47813e-18)
(0.962162 -0.0657644 3.48096e-18)
(0.974312 -0.0899683 2.27829e-18)
(0.993645 -0.111252 -2.09998e-18)
(0.987516 -0.111708 -3.1394e-17)
(0.994117 -0.222729 -9.0874e-18)
(1.01121 0.0456258 -2.43323e-18)
(1.01039 0.0460944 1.75879e-18)
(1.00953 0.0468569 2.04627e-18)
(1.00868 0.0475477 -7.62728e-19)
(1.00784 0.0482363 -2.43519e-18)
(1.00704 0.0488941 4.85725e-18)
(1.00628 0.0495044 -5.91348e-18)
(1.00558 0.050053 2.05454e-18)
(1.00496 0.050521 1.07953e-18)
(1.00444 0.0508917 2.06725e-18)
(1.00403 0.0511501 -2.93432e-18)
(1.00373 0.0512849 -9.34321e-20)
(1.00354 0.051285 -8.24617e-19)
(1.00347 0.0511473 4.60799e-18)
(1.0035 0.0508679 -2.50134e-18)
(1.00362 0.0504539 1.44605e-18)
(1.00382 0.0499107 -1.90971e-18)
(1.00407 0.0492564 2.4944e-19)
(1.00435 0.0485028 2.31145e-18)
(1.00463 0.0476743 -1.37088e-18)
(1.00491 0.0467867 -9.76237e-19)
(1.00514 0.0458652 -6.37528e-19)
(1.00532 0.0449217 2.03329e-18)
(1.00542 0.0439778 -1.18641e-18)
(1.00543 0.0430396 6.43481e-19)
(1.00535 0.0421241 -1.11193e-18)
(1.00516 0.0412368 9.33249e-19)
(1.00487 0.0403909 -1.20864e-18)
(1.00448 0.0395816 4.83309e-20)
(1.004 0.0387982 -1.03256e-18)
(1.00342 0.038045 8.22287e-20)
(1.00277 0.037336 4.88689e-20)
(1.00204 0.0366632 -7.73891e-20)
(1.00125 0.0360024 3.06269e-19)
(1.0004 0.0353295 -2.50585e-19)
(0.999495 0.0346193 9.69719e-19)
(0.998541 0.0338537 -5.37155e-19)
(0.997545 0.0330042 2.56032e-19)
(0.996513 0.0320322 2.65282e-19)
(0.995453 0.0309044 -3.25962e-19)
(0.994359 0.029599 3.05428e-20)
(0.993212 0.0281472 -2.10254e-20)
(0.992017 0.0264733 1.90354e-18)
(0.990674 0.0246223 1.03086e-18)
(0.989162 0.0225421 6.31322e-19)
(0.987374 0.0202028 1.54894e-18)
(0.985211 0.0175534 -2.09528e-18)
(0.982412 0.0145245 -4.87946e-18)
(0.978818 0.0110921 -3.94271e-18)
(0.9744 0.00702417 -5.57913e-18)
(0.969371 0.00197503 -1.85782e-18)
(0.964255 -0.00468343 -4.58358e-18)
(0.960324 -0.0141867 7.66616e-18)
(0.958518 -0.0271854 -1.29425e-17)
(0.960108 -0.0439745 -3.58922e-18)
(0.966148 -0.0649625 -1.21935e-18)
(0.978234 -0.089311 8.04811e-18)
(0.997228 -0.110783 2.00269e-17)
(0.990074 -0.110433 1.02821e-17)
(0.996213 -0.224525 -9.594e-18)
(1.01245 0.0463276 2.70805e-18)
(1.01163 0.0467701 2.69673e-18)
(1.01077 0.0475267 -3.74555e-18)
(1.00991 0.0482308 1.10273e-18)
(1.00905 0.0489517 3.77746e-19)
(1.00819 0.0496615 2.49137e-18)
(1.00736 0.050347 2.15393e-19)
(1.00656 0.050995 -3.47767e-18)
(1.00582 0.0515878 1.31239e-18)
(1.00516 0.0521088 1.09132e-18)
(1.00458 0.0525415 -1.2962e-19)
(1.0041 0.0528713 1.09769e-18)
(1.00373 0.0530835 3.78798e-19)
(1.00346 0.0531687 -3.08773e-18)
(1.00331 0.0531164 7.82281e-19)
(1.00325 0.0529257 1.46196e-18)
(1.00329 0.0525944 -5.61095e-19)
(1.0034 0.0521327 -3.14228e-18)
(1.00356 0.0515465 3.18665e-18)
(1.00377 0.0508545 -6.85706e-19)
(1.00399 0.0500691 -1.32716e-18)
(1.0042 0.0492141 5.10613e-19)
(1.00439 0.0483011 -3.00815e-19)
(1.00453 0.0473534 3.34684e-19)
(1.00461 0.0463795 -1.59914e-18)
(1.00461 0.0454006 2.98338e-19)
(1.00453 0.0444261 -1.40751e-18)
(1.00435 0.0434735 9.60436e-19)
(1.00408 0.0425423 1.1439e-18)
(1.0037 0.0416292 1.64384e-19)
(1.00322 0.0407422 -1.21875e-18)
(1.00265 0.0398994 -9.09942e-19)
(1.00199 0.0391027 8.52264e-19)
(1.00123 0.0383297 1.40367e-18)
(1.00038 0.0375624 -1.65212e-18)
(0.999447 0.0367795 5.68791e-19)
(0.998434 0.0359662 8.76486e-19)
(0.997349 0.0350953 7.02416e-19)
(0.996201 0.0341268 3.64807e-19)
(0.995002 0.0330264 3.57255e-19)
(0.993755 0.0317743 1.88826e-19)
(0.992459 0.0303938 -7.86984e-20)
(0.991156 0.028815 3.25775e-19)
(0.989787 0.0270768 -1.24663e-18)
(0.988303 0.0251473 -3.36453e-19)
(0.986583 0.022973 -4.38084e-18)
(0.984556 0.0204909 3.9614e-18)
(0.981969 0.0175912 7.93603e-18)
(0.978703 0.014182 -3.94136e-18)
(0.974715 0.00995145 -7.18527e-18)
(0.970201 0.00449775 -5.6835e-18)
(0.965653 -0.00280193 9.10461e-18)
(0.962285 -0.0130937 -6.39144e-18)
(0.96096 -0.0268922 2.69718e-18)
(0.962843 -0.0443529 -5.39304e-19)
(0.968957 -0.065788 5.3104e-18)
(0.980979 -0.0903556 2.20762e-19)
(0.999668 -0.111987 2.09208e-19)
(0.991452 -0.111025 -3.6814e-17)
(0.998165 -0.227179 7.1314e-17)
(1.01365 0.0470631 -2.85889e-18)
(1.01284 0.047486 4.24685e-18)
(1.01201 0.0482206 -5.65804e-19)
(1.01115 0.0489119 -2.53874e-18)
(1.01028 0.0496298 3.92313e-18)
(1.00939 0.0503497 -3.13115e-18)
(1.00851 0.0510629 1.4056e-18)
(1.00765 0.0517596 -8.84522e-19)
(1.00683 0.0524241 -7.92744e-19)
(1.00605 0.0530418 2.56991e-18)
(1.00535 0.0535965 1.28361e-18)
(1.00472 0.0540736 -3.43731e-18)
(1.00419 0.0544555 2.01682e-19)
(1.00375 0.0547297 -1.1082e-18)
(1.00342 0.0548804 1.14522e-18)
(1.00319 0.0549011 6.28712e-19)
(1.00306 0.0547827 8.78438e-19)
(1.00301 0.0545286 -1.79079e-18)
(1.00304 0.0541374 1.50754e-18)
(1.00312 0.0536219 -1.09175e-18)
(1.00325 0.0529889 8.3504e-20)
(1.00339 0.0522583 2.03752e-18)
(1.00354 0.0514393 -1.85266e-18)
(1.00366 0.050554 2.3024e-18)
(1.00375 0.0496117 -8.99394e-19)
(1.00379 0.0486348 1.30201e-18)
(1.00375 0.0476352 6.19698e-19)
(1.00364 0.0466331 -4.40938e-19)
(1.00344 0.0456328 -2.76864e-19)
(1.00314 0.0446322 -9.84194e-19)
(1.00274 0.0436462 1.96011e-18)
(1.00224 0.0426986 -5.8314e-19)
(1.00164 0.0417932 5.03254e-19)
(1.00093 0.0409138 -9.48992e-19)
(1.00012 0.0400468 -6.0646e-19)
(0.999188 0.0391758 -1.01303e-18)
(0.998157 0.0382904 3.57838e-19)
(0.997029 0.0373672 4.63197e-19)
(0.995811 0.0363663 3.46372e-19)
(0.99452 0.0352554 -2.3144e-19)
(0.99316 0.0340178 -1.3312e-19)
(0.99174 0.032668 -8.39423e-20)
(0.990332 0.0311417 -2.18734e-19)
(0.988905 0.0294589 1.20285e-18)
(0.98739 0.0275923 2.23761e-18)