/*--------------------------------*- C++ -*----------------------------------*\
  =========                 |
  \\      /  F ield         | OpenFOAM: The Open Source CFD Toolbox
   \\    /   O peration     | Website:  https://openfoam.org
    \\  /    A nd           | Version:  6.0
     \\/     M anipulation  |
\*---------------------------------------------------------------------------*/
FoamFile
{
    version     2.0;
    format      ascii;
    class       volScalarField;
    location    "50";
    object      p;
}
// * * * * * * * * * * * * * * * * * * * * * * * * * * * * * * * * * * * * * //

dimensions      [0 2 -2 0 0 0 0];

internalField   nonuniform List<scalar> 
2000
(
-0.348047
-0.353953
-0.355641
-0.354972
-0.353113
-0.350436
-0.34722
-0.343759
-0.340339
-0.336643
-0.350765
-0.356251
-0.357599
-0.356629
-0.354481
-0.35153
-0.348051
-0.344329
-0.340655
-0.336839
-0.35622
-0.360848
-0.361505
-0.359925
-0.357197
-0.353689
-0.349676
-0.345417
-0.341214
-0.337154
-0.364454
-0.367742
-0.367338
-0.364831
-0.361221
-0.356868
-0.352031
-0.346928
-0.341878
-0.337428
-0.375527
-0.376932
-0.375067
-0.371308
-0.366513
-0.361018
-0.355049
-0.348748
-0.342449
-0.337405
-0.389502
-0.388403
-0.384652
-0.379315
-0.373041
-0.366115
-0.358697
-0.350792
-0.342716
-0.336757
-0.406413
-0.402113
-0.396034
-0.38881
-0.380799
-0.372199
-0.363069
-0.353179
-0.34268
-0.335223
-0.426204
-0.417962
-0.409121
-0.399734
-0.389771
-0.379316
-0.368281
-0.356039
-0.342096
-0.331653
-0.448664
-0.435779
-0.423798
-0.412045
-0.399999
-0.387555
-0.374315
-0.358755
-0.33867
-0.321358
-0.473357
-0.455297
-0.439965
-0.42589
-0.412105
-0.398408
-0.384045
-0.36638
-0.34134
-0.317363
-0.499597
-0.476092
-0.457353
-0.441183
-0.426455
-0.413543
-0.402788
-0.394831
-0.394969
-0.414502
-0.52656
-0.497587
-0.475345
-0.456815
-0.440478
-0.426796
-0.416243
-0.409879
-0.412834
-0.430106
-0.553524
-0.519322
-0.493668
-0.472666
-0.454302
-0.43894
-0.426947
-0.419042
-0.418333
-0.426151
-0.579838
-0.540826
-0.512009
-0.488565
-0.467929
-0.450286
-0.435794
-0.424709
-0.418506
-0.417169
-0.604755
-0.561433
-0.529745
-0.503868
-0.480655
-0.46009
-0.442132
-0.426657
-0.414086
-0.404459
-0.627286
-0.580207
-0.54593
-0.517567
-0.491424
-0.467351
-0.445225
-0.424735
-0.405714
-0.388926
-0.646145
-0.59594
-0.559334
-0.52838
-0.498949
-0.470898
-0.44419
-0.418519
-0.393467
-0.370814
-0.659775
-0.607176
-0.568496
-0.534823
-0.5018
-0.469473
-0.438059
-0.407405
-0.37706
-0.349885
-0.666412
-0.612276
-0.571793
-0.535304
-0.498501
-0.461821
-0.425871
-0.39073
-0.356029
-0.325641
-0.664189
-0.609502
-0.567531
-0.52821
-0.487622
-0.446771
-0.406738
-0.367853
-0.32986
-0.297494
-0.651253
-0.59711
-0.554041
-0.512014
-0.467871
-0.423318
-0.379931
-0.338251
-0.298107
-0.26491
-0.625866
-0.573461
-0.529784
-0.485377
-0.438189
-0.390703
-0.344946
-0.301586
-0.260479
-0.227518
-0.586557
-0.537147
-0.493485
-0.44726
-0.397838
-0.348477
-0.301554
-0.257764
-0.216913
-0.185181
-0.532229
-0.487108
-0.44423
-0.397014
-0.346465
-0.29654
-0.249836
-0.206966
-0.167615
-0.138042
-0.462277
-0.422746
-0.381574
-0.33444
-0.284123
-0.235144
-0.190168
-0.149641
-0.113059
-0.0865275
-0.3767
-0.344028
-0.305607
-0.259831
-0.211275
-0.164849
-0.123152
-0.0864078
-0.0538813
-0.031261
-0.276187
-0.251556
-0.217012
-0.173984
-0.128778
-0.0864992
-0.0495578
-0.0179659
0.00919756
0.0269305
-0.162176
-0.14662
-0.117074
-0.0781887
-0.0378674
-0.00123403
0.0295562
0.0545667
0.074636
0.086017
-0.0368779
-0.031192
-0.00764312
0.0258814
0.0600721
0.0898935
0.113332
0.129977
0.139911
0.142281
0.0967522
0.0920863
0.108868
0.136196
0.163718
0.186708
0.203195
0.211562
0.210528
0.203799
0.235139
0.219949
0.229355
0.249863
0.270612
0.287726
0.299931
0.305412
0.304365
0.318283
0.374386
0.348751
0.350207
0.363026
0.376046
0.38602
0.392073
0.393315
0.392237
0.405161
0.51055
0.474821
0.468013
0.472565
0.477218
0.479297
0.478234
0.473613
0.46792
0.473023
0.639786
0.594549
0.579484
0.575582
0.571683
0.565695
0.557359
0.546525
0.535267
0.532425
0.75843
0.704497
0.681524
0.669415
0.65725
0.643502
0.62819
0.611353
0.594683
0.584736
0.863098
0.801497
0.771315
0.751671
0.731963
0.711186
0.689599
0.667387
0.645872
0.629716
0.950773
0.882742
0.84637
0.820234
0.794072
0.767322
0.740443
0.713732
0.688157
0.666799
1.0189
0.945864
0.904594
0.873319
0.842073
0.810647
0.779651
0.749464
0.720743
0.695328
1.06548
0.989011
0.944353
0.909521
0.874772
0.840136
0.806328
0.773777
0.742912
0.714711
1.08912
1.01091
0.964518
0.927869
0.891335
0.855068
0.819833
0.786088
0.754136
0.724517
1.08912
1.01091
0.964518
0.927869
0.891335
0.855068
0.819833
0.786088
0.754136
0.724517
1.06548
0.989011
0.944353
0.909521
0.874772
0.840136
0.806328
0.773777
0.742912
0.714712
1.0189
0.945864
0.904594
0.873319
0.842073
0.810647
0.779651
0.749464
0.720743
0.695328
0.950773
0.882742
0.84637
0.820234
0.794072
0.767322
0.740443
0.713732
0.688157
0.666799
0.863098
0.801497
0.771315
0.751671
0.731963
0.711186
0.689599
0.667387
0.645872
0.629716
0.75843
0.704497
0.681524
0.669415
0.65725
0.643502
0.62819
0.611353
0.594683
0.584736
0.639786
0.594549
0.579484
0.575582
0.571683
0.565695
0.557359
0.546525
0.535267
0.532425
0.51055
0.474821
0.468013
0.472565
0.477218
0.479297
0.478234
0.473613
0.46792
0.473023
0.374386
0.348751
0.350207
0.363026
0.376046
0.38602
0.392073
0.393315
0.392237
0.405161
0.235138
0.219949
0.229355
0.249862
0.270612
0.287726
0.299931
0.305412
0.304366
0.318284
0.0967521
0.0920863
0.108868
0.136196
0.163718
0.186708
0.203195
0.211562
0.210528
0.203799
-0.036878
-0.031192
-0.00764318
0.0258814
0.060072
0.0898936
0.113332
0.129977
0.139911
0.142282
-0.162176
-0.14662
-0.117074
-0.0781887
-0.0378674
-0.001234
0.0295563
0.0545667
0.0746361
0.086017
-0.276187
-0.251556
-0.217012
-0.173984
-0.128778
-0.0864991
-0.0495578
-0.0179658
0.00919764
0.0269305
-0.3767
-0.344028
-0.305607
-0.259831
-0.211275
-0.164849
-0.123151
-0.0864077
-0.0538812
-0.0312609
-0.462277
-0.422746
-0.381574
-0.33444
-0.284123
-0.235143
-0.190168
-0.149641
-0.113059
-0.0865274
-0.532229
-0.487108
-0.44423
-0.397014
-0.346464
-0.296539
-0.249836
-0.206966
-0.167615
-0.138042
-0.586557
-0.537147
-0.493485
-0.44726
-0.397838
-0.348476
-0.301554
-0.257764
-0.216913
-0.185181
-0.625866
-0.573461
-0.529784
-0.485377
-0.438189
-0.390703
-0.344945
-0.301586
-0.260478
-0.227517
-0.651253
-0.59711
-0.554041
-0.512014
-0.467871
-0.423318
-0.379931
-0.338251
-0.298106
-0.26491
-0.664189
-0.609501
-0.567531
-0.52821
-0.487622
-0.446771
-0.406738
-0.367853
-0.32986
-0.297494
-0.666411
-0.612276
-0.571793
-0.535303
-0.498501
-0.461821
-0.42587
-0.390729
-0.356029
-0.325641
-0.659775
-0.607175
-0.568496
-0.534823
-0.501799
-0.469473
-0.438059
-0.407405
-0.377059
-0.349885
-0.646145
-0.59594
-0.559334
-0.52838
-0.498948
-0.470898
-0.444189
-0.418519
-0.393467
-0.370814
-0.627286
-0.580207
-0.54593
-0.517567
-0.491424
-0.467351
-0.445225
-0.424735
-0.405713
-0.388926
-0.604755
-0.561432
-0.529744
-0.503867
-0.480655
-0.46009
-0.442131
-0.426656
-0.414086
-0.404459
-0.579838
-0.540826
-0.512009
-0.488565
-0.467929
-0.450285
-0.435794
-0.424709
-0.418506
-0.417169
-0.553523
-0.519321
-0.493668
-0.472666
-0.454302
-0.43894
-0.426947
-0.419041
-0.418333
-0.426151
-0.52656
-0.497586
-0.475345
-0.456814
-0.440477
-0.426795
-0.416242
-0.409878
-0.412834
-0.430105
-0.499597
-0.476092
-0.457353
-0.441183
-0.426454
-0.413542
-0.402788
-0.394831
-0.394969
-0.414501
-0.473356
-0.455297
-0.439965
-0.42589
-0.412104
-0.398408
-0.384044
-0.366379
-0.34134
-0.317363
-0.448663
-0.435778
-0.423798
-0.412044
-0.399999
-0.387555
-0.374315
-0.358754
-0.338669
-0.321358
-0.426204
-0.417962
-0.409121
-0.399734
-0.389771
-0.379315
-0.368281
-0.356038
-0.342095
-0.331652
-0.406412
-0.402112
-0.396034
-0.38881
-0.380798
-0.372199
-0.363069
-0.353178
-0.342679
-0.335222
-0.389502
-0.388403
-0.384651
-0.379315
-0.373041
-0.366114
-0.358697
-0.350791
-0.342716
-0.336756
-0.375527
-0.376932
-0.375066
-0.371308
-0.366513
-0.361018
-0.355048
-0.348747
-0.342448
-0.337405
-0.364454
-0.367742
-0.367337
-0.364831
-0.361221
-0.356868
-0.352031
-0.346928
-0.341877
-0.337427
-0.35622
-0.360848
-0.361505
-0.359925
-0.357196
-0.353689
-0.349676
-0.345417
-0.341213
-0.337153
-0.350764
-0.356251
-0.357599
-0.356629
-0.354481
-0.35153
-0.348051
-0.344329
-0.340655
-0.336839
-0.348047
-0.353953
-0.355641
-0.354972
-0.353113
-0.350436
-0.34722
-0.343759
-0.340339
-0.336642
-0.290433
-0.126295
-0.0812255
-0.0303237
-0.0192187
-0.00778504
-0.004345
-0.000874351
-0.000456762
0.00217155
-0.291664
-0.126843
-0.0814958
-0.0305222
-0.0192868
-0.00784487
-0.00437475
-0.000895023
-0.000465664
0.00215577
-0.294055
-0.127924
-0.0820311
-0.0309206
-0.0194225
-0.00796416
-0.004434
-0.000936415
-0.000483623
0.00212431
-0.297466
-0.129515
-0.08282
-0.0315208
-0.0196256
-0.00814246
-0.00452261
-0.000998403
-0.000510479
0.00207749
-0.301651
-0.131571
-0.0838365
-0.032321
-0.0198941
-0.00837839
-0.00464009
-0.00108079
-0.000545954
0.00201575
-0.306255
-0.134017
-0.085031
-0.0333075
-0.020222
-0.00866836
-0.0047852
-0.00118305
-0.000589692
0.00193975
-0.311148
-0.136922
-0.0864091
-0.0344757
-0.0206102
-0.00900963
-0.00495742
-0.00130423
-0.000641892
0.00185106
-0.31685
-0.140937
-0.0882334
-0.0359261
-0.0211018
-0.00941564
-0.0051628
-0.00144466
-0.000704087
0.00175247
-0.321627
-0.146442
-0.0906822
-0.037824
-0.0217475
-0.00991345
-0.00541048
-0.00160971
-0.000774699
0.0016414
-0.313823
-0.148818
-0.091793
-0.0395254
-0.0222498
-0.0104055
-0.00565526
-0.00180067
-0.000834258
0.00149488
-0.247291
-0.14072
-0.0881724
-0.0427805
-0.0227486
-0.0117374
-0.00637179
-0.0025404
-0.000999882
0.000841797
-0.189196
-0.131711
-0.0821704
-0.0442393
-0.0244818
-0.0141296
-0.00822044
-0.004024
-0.00176186
-4.49932e-07
-0.14778
-0.113853
-0.072742
-0.0428088
-0.0259074
-0.0163354
-0.0101554
-0.00561569
-0.00269696
-0.000680689
-0.108187
-0.0929517
-0.0633224
-0.0408398
-0.0269568
-0.0181305
-0.0118301
-0.00705089
-0.00358831
-0.00115196
-0.0789499
-0.0756793
-0.0565223
-0.0395847
-0.0277809
-0.0194758
-0.0131424
-0.00820499
-0.00433605
-0.00145069
-0.0588584
-0.0628322
-0.0515623
-0.0385852
-0.028192
-0.0203229
-0.0140692
-0.00905939
-0.00491455
-0.00164441
-0.045833
-0.0535712
-0.0477006
-0.037615
-0.02828
-0.0208042
-0.014693
-0.00966761
-0.00534325
-0.00178115
-0.0375887
-0.0471119
-0.0447386
-0.036762
-0.0282351
-0.0210739
-0.0151012
-0.0100846
-0.00564602
-0.00188
-0.0327669
-0.0430111
-0.0427311
-0.036159
-0.0281789
-0.0212203
-0.0153461
-0.010344
-0.00583901
-0.00194462
-0.0305365
-0.0410095
-0.0417201
-0.0358621
-0.0281551
-0.0212851
-0.0154592
-0.0104659
-0.00593338
-0.0019749
-0.21859
-0.246487
-0.272266
-0.29621
-0.318704
-0.340254
-0.361478
-0.383022
-0.405388
-0.42923
-0.0679446
-0.0780872
-0.0872518
-0.0956818
-0.103684
-0.11164
-0.120006
-0.129322
-0.140168
-0.154335
-0.0451735
-0.0543553
-0.0631515
-0.0715354
-0.0794694
-0.0869088
-0.09381
-0.100146
-0.105914
-0.111236
-0.0187503
-0.0244703
-0.029984
-0.0353103
-0.040471
-0.0454896
-0.0503892
-0.0551917
-0.0598973
-0.0643852
-0.0130411
-0.017397
-0.0216283
-0.0257315
-0.0297029
-0.0335384
-0.0372346
-0.0407883
-0.0441801
-0.0473785
-0.00798671
-0.011204
-0.0143619
-0.0174595
-0.0204962
-0.0234713
-0.0263846
-0.0292344
-0.0320093
-0.0347125
-0.00686313
-0.00940003
-0.0119006
-0.0143609
-0.0167773
-0.0191466
-0.0214665
-0.0237343
-0.025944
-0.028109
-0.00606215
-0.00812007
-0.0101615
-0.0121823
-0.0141787
-0.0161474
-0.0180853
-0.0199893
-0.0218561
-0.023693
-0.00597456
-0.00774925
-0.00951602
-0.0112704
-0.0130081
-0.0147252
-0.0164183
-0.0180842
-0.0197206
-0.021329
-0.00591857
-0.00754455
-0.00916794
-0.010785
-0.0123921
-0.013986
-0.0155636
-0.0171219
-0.0186596
-0.0201749
0.16801
0.127023
0.0816746
0.0386054
-0.00313298
-0.0440121
-0.0834153
-0.12076
-0.155779
-0.188386
0.11754
0.0916254
0.0648336
0.0419948
0.0218746
0.00320086
-0.0141095
-0.0298455
-0.0439806
-0.0566301
0.0734202
0.0577222
0.0427692
0.0298571
0.0180058
0.00653915
-0.00461379
-0.0153651
-0.0256916
-0.0356199
0.0531644
0.0440915
0.0354625
0.027752
0.0204857
0.0133931
0.00647654
-0.000205387
-0.00663135
-0.0128085
0.0376278
0.0316765
0.0259363
0.0206456
0.0155553
0.0105343
0.00558926
0.000751615
-0.00396613
-0.00856355
0.0273663
0.0234774
0.0196321
0.0159944
0.0124518
0.0089365
0.00544976
0.00200836
-0.00137935
-0.00471136
0.0196638
0.0169354
0.0141802
0.0115035
0.00885751
0.00620915
0.00356025
0.00092198
-0.0016978
-0.00429425
0.0144834
0.0124884
0.0104431
0.00840999
0.00637251
0.00431703
0.00224592
0.0001667
-0.00191427
-0.00399206
0.0111529
0.00955793
0.007914
0.00625027
0.00456198
0.00284601
0.00110621
-0.000651239
-0.00242061
-0.00419671
0.00955676
0.00813615
0.0066722
0.00517915
0.00365639
0.00210498
0.00052923
-0.00106568
-0.00267491
-0.00429397
0.335425
0.334725
0.333175
0.330301
0.325317
0.316986
0.303536
0.282575
0.251468
0.206851
0.245527
0.244411
0.241775
0.237191
0.23032
0.220735
0.207863
0.191048
0.16954
0.142786
0.174696
0.173567
0.1709
0.166376
0.159886
0.151322
0.140496
0.127192
0.111004
0.0920171
0.123087
0.122201
0.120099
0.116536
0.111497
0.105005
0.0970556
0.0876573
0.0767325
0.0646162
0.086753
0.0861085
0.0845695
0.0819565
0.0782765
0.0735821
0.0679074
0.0612905
0.0537118
0.04538
0.0615739
0.0611105
0.060002
0.0581199
0.0554773
0.0521257
0.0481066
0.0434639
0.0382153
0.0325071
0.0444227
0.0440842
0.043274
0.0418988
0.03997
0.037528
0.0346066
0.0312383
0.0274428
0.023304
0.0331372
0.0328804
0.0322659
0.0312228
0.0297606
0.0279105
0.0256995
0.0231526
0.0202902
0.0171644
0.0263015
0.026093
0.0255943
0.0247479
0.0235612
0.0220592
0.0202633
0.0181922
0.0158639
0.0133096
0.0230811
0.0228946
0.0224494
0.0216943
0.0206355
0.0192951
0.0176917
0.0158416
0.0137616
0.0114744
0.485399
0.487152
0.493485
0.504631
0.520482
0.541342
0.567677
0.600009
0.638876
0.684524
0.483158
0.484885
0.491138
0.502128
0.517731
0.538213
0.563983
0.595477
0.633097
0.676931
0.478727
0.480409
0.486509
0.497196
0.512313
0.532055
0.556714
0.586555
0.621705
0.661955
0.472207
0.473834
0.479724
0.48998
0.504396
0.523062
0.546099
0.573517
0.605024
0.640001
0.463737
0.465314
0.470955
0.480674
0.494205
0.511501
0.532461
0.556751
0.583518
0.611657
0.453484
0.455033
0.460407
0.469508
0.481999
0.497672
0.516159
0.536705
0.557757
0.577657
0.441645
0.443234
0.448361
0.4568
0.46814
0.481986
0.497664
0.51392
0.528419
0.53887
0.428426
0.430242
0.435257
0.443106
0.453321
0.46529
0.477959
0.48944
0.496504
0.496088
0.413897
0.416189
0.421283
0.428668
0.437864
0.448037
0.457687
0.464098
0.462887
0.448808
0.397695
0.40013
0.404797
0.411054
0.418434
0.425984
0.431932
0.433056
0.42459
0.396887
0.397695
0.400131
0.404798
0.411054
0.418434
0.425985
0.431933
0.433056
0.42459
0.396887
0.413897
0.416189
0.421283
0.428669
0.437864
0.448037
0.457687
0.464098
0.462887
0.448808
0.428426
0.430242
0.435257
0.443106
0.453322
0.46529
0.47796
0.48944
0.496504
0.496088
0.441645
0.443234
0.448361
0.4568
0.46814
0.481986
0.497664
0.51392
0.528419
0.53887
0.453484
0.455033
0.460407
0.469508
0.481999
0.497672
0.51616
0.536705
0.557757
0.577657
0.463737
0.465314
0.470955
0.480674
0.494205
0.511501
0.532461
0.556751
0.583518
0.611657
0.472207
0.473834
0.479724
0.48998
0.504396
0.523062
0.546099
0.573517
0.605024
0.640001
0.478727
0.480409
0.486509
0.497196
0.512313
0.532055
0.556714
0.586555
0.621705
0.661955
0.483158
0.484885
0.491138
0.502128
0.517731
0.538213
0.563983
0.595477
0.633097
0.676931
0.485399
0.487152
0.493485
0.504631
0.520482
0.541342
0.567677
0.600009
0.638876
0.684524
0.0230812
0.0228947
0.0224495
0.0216944
0.0206356
0.0192952
0.0176918
0.0158416
0.0137616
0.0114745
0.0263016
0.0260931
0.0255944
0.024748
0.0235613
0.0220593
0.0202634
0.0181923
0.015864
0.0133096
0.0331373
0.0328805
0.032266
0.0312229
0.0297606
0.0279106
0.0256996
0.0231527
0.0202903
0.0171644
0.0444228
0.0440843
0.0432741
0.0418989
0.0399701
0.0375281
0.0346066
0.0312384
0.0274429
0.0233041
0.061574
0.0611106
0.0600021
0.0581199
0.0554774
0.0521258
0.0481066
0.043464
0.0382154
0.0325072
0.0867531
0.0861086
0.0845696
0.0819566
0.0782766
0.0735822
0.0679075
0.0612906
0.0537119
0.0453801
0.123087
0.122201
0.120099
0.116536
0.111497
0.105005
0.0970557
0.0876574
0.0767326
0.0646163
0.174696
0.173567
0.170901
0.166376
0.159886
0.151322
0.140496
0.127192
0.111004
0.0920172
0.245527
0.244411
0.241775
0.237191
0.23032
0.220735
0.207863
0.191048
0.169541
0.142786
0.335425
0.334725
0.333176
0.330301
0.325317
0.316986
0.303537
0.282575
0.251468
0.206851
0.00955684
0.00813622
0.00667227
0.00517922
0.00365646
0.00210505
0.000529301
-0.00106561
-0.00267483
-0.0042939
0.0111529
0.00955801
0.00791407
0.00625035
0.00456206
0.00284608
0.00110629
-0.000651168
-0.00242053
-0.00419664
0.0144835
0.0124884
0.0104432
0.00841006
0.00637259
0.00431711
0.00224599
0.000166771
-0.0019142
-0.00399199
0.0196639
0.0169354
0.0141802
0.0115036
0.00885758
0.00620922
0.00356032
0.000922052
-0.00169773
-0.00429418
0.0273664
0.0234775
0.0196322
0.0159945
0.0124519
0.00893658
0.00544983
0.00200844
-0.00137927
-0.00471129
0.0376279
0.0316765
0.0259363
0.0206457
0.0155554
0.0105344
0.00558934
0.000751697
-0.00396605
-0.00856347
0.0531645
0.0440916
0.0354626
0.0277521
0.0204858
0.0133932
0.00647663
-0.000205295
-0.00663126
-0.0128084
0.0734203
0.0577224
0.0427693
0.0298572
0.0180059
0.00653926
-0.00461369
-0.015365
-0.0256915
-0.0356198
0.11754
0.0916255
0.0648337
0.0419949
0.0218748
0.00320099
-0.0141094
-0.0298454
-0.0439805
-0.05663
0.16801
0.127023
0.0816747
0.0386056
-0.00313285
-0.0440119
-0.0834152
-0.12076
-0.155779
-0.188385
-0.0059185
-0.00754449
-0.00916787
-0.0107849
-0.012392
-0.0139859
-0.0155635
-0.0171219
-0.0186596
-0.0201748
-0.00597449
-0.00774918
-0.00951595
-0.0112703
-0.013008
-0.0147252
-0.0164183
-0.0180841
-0.0197206
-0.0213289
-0.00606209
-0.00812001
-0.0101614
-0.0121822
-0.0141787
-0.0161474
-0.0180853
-0.0199893
-0.0218561
-0.0236929
-0.00686306
-0.00939997
-0.0119006
-0.0143608
-0.0167772
-0.0191466
-0.0214664
-0.0237342
-0.0259439
-0.0281089
-0.00798664
-0.011204
-0.0143619
-0.0174595
-0.0204961
-0.0234713
-0.0263845
-0.0292344
-0.0320092
-0.0347125
-0.013041
-0.0173969
-0.0216282
-0.0257315
-0.0297029
-0.0335384
-0.0372345
-0.0407882
-0.0441801
-0.0473785
-0.0187502
-0.0244702
-0.0299839
-0.0353102
-0.040471
-0.0454896
-0.0503891
-0.0551916
-0.0598972
-0.0643852
-0.0451734
-0.0543552
-0.0631514
-0.0715353
-0.0794693
-0.0869087
-0.09381
-0.100146
-0.105914
-0.111236
-0.0679444
-0.078087
-0.0872517
-0.0956817
-0.103684
-0.111639
-0.120006
-0.129322
-0.140168
-0.154335
-0.21859
-0.246487
-0.272266
-0.296209
-0.318704
-0.340253
-0.361478
-0.383022
-0.405388
-0.42923
-0.0305364
-0.0410094
-0.0417199
-0.0358619
-0.0281547
-0.0212847
-0.0154589
-0.0104659
-0.0059335
-0.00197507
-0.0327669
-0.0430109
-0.042731
-0.0361588
-0.0281785
-0.0212199
-0.0153458
-0.010344
-0.00583915
-0.00194481
-0.0375886
-0.0471118
-0.0447385
-0.0367618
-0.0282347
-0.0210734
-0.0151009
-0.0100846
-0.00564623
-0.00188025
-0.0458329
-0.0535711
-0.0477005
-0.0376148
-0.0282794
-0.0208037
-0.0146926
-0.00966764
-0.00534359
-0.00178148
-0.0588583
-0.0628322
-0.0515623
-0.0385849
-0.0281913
-0.0203222
-0.0140688
-0.00905946
-0.00491511
-0.00164489
-0.0789498
-0.0756793
-0.0565224
-0.0395845
-0.0277799
-0.0194749
-0.0131418
-0.00820515
-0.00433697
-0.00145138
-0.108188
-0.0929519
-0.0633227
-0.0408395
-0.0269555
-0.0181294
-0.0118293
-0.00705117
-0.00358978
-0.00115292
-0.14778
-0.113853
-0.0727426
-0.0428084
-0.0259055
-0.0163339
-0.0101543
-0.00561616
-0.00269918
-0.000681991
-0.189196
-0.131712
-0.0821716
-0.0442388
-0.0244795
-0.0141275
-0.00821881
-0.00402465
-0.00176489
-2.1024e-06
-0.247291
-0.140721
-0.0881742
-0.0427802
-0.022746
-0.0117349
-0.00636959
-0.00254111
-0.00100345
0.000839919
-0.313823
-0.148819
-0.0917948
-0.0395252
-0.0222476
-0.0104033
-0.00565308
-0.00180139
-0.00083767
0.00149323
-0.321627
-0.146444
-0.0906839
-0.0378237
-0.0217454
-0.0099114
-0.00540843
-0.00161043
-0.000777912
0.00163989
-0.31685
-0.140938
-0.0882349
-0.0359258
-0.0210998
-0.00941378
-0.00516098
-0.00144535
-0.000706957
0.00175114
-0.311147
-0.136923
-0.0864105
-0.0344753
-0.0206084
-0.00900798
-0.00495584
-0.00130487
-0.000644404
0.00184991
-0.306255
-0.134018
-0.0850323
-0.0333072
-0.0202205
-0.00866693
-0.00478384
-0.00118363
-0.000591851
0.00193878
-0.301651
-0.131572
-0.0838376
-0.0323207
-0.0198928
-0.00837719
-0.00463896
-0.00108129
-0.00054775
0.00201495
-0.297466
-0.129516
-0.0828209
-0.0315205
-0.0196246
-0.0081415
-0.00452171
-0.000998804
-0.000511899
0.00207686
-0.294055
-0.127925
-0.0820317
-0.0309204
-0.0194217
-0.00796346
-0.00443334
-0.000936713
-0.000484655
0.00212386
-0.291664
-0.126843
-0.0814962
-0.0305221
-0.0192863
-0.00784444
-0.00437434
-0.00089522
-0.000466297
0.0021555
-0.290433
-0.126295
-0.0812256
-0.0303236
-0.0192186
-0.0077849
-0.00434486
-0.000874427
-0.000456978
0.00217146
)
;

boundaryField
{
    inlet
    {
        type            zeroGradient;
    }
    outlet
    {
        type            fixedValue;
        value           uniform 0;
    }
    cylinder
    {
        type            zeroGradient;
    }
    top
    {
        type            symmetryPlane;
    }
    bottom
    {
        type            symmetryPlane;
    }
    defaultFaces
    {
        type            empty;
    }
}


// ************************************************************************* //
