1.45 	0 	0 	-0.00538067 	-0.00275792 	3.9376e-21
2.35 	0 	0 	0.06953 	-0.00687014 	2.447e-21
