1.45 	0 	0 	-0.307045
2.35 	0 	0 	-0.130566
