1.45 	0 	0 	-0.30727
2.35 	0 	0 	-0.129861
