/*--------------------------------*- C++ -*----------------------------------*\
  =========                 |
  \\      /  F ield         | OpenFOAM: The Open Source CFD Toolbox
   \\    /   O peration     | Website:  https://openfoam.org
    \\  /    A nd           | Version:  6.0
     \\/     M anipulation  |
\*---------------------------------------------------------------------------*/
FoamFile
{
    version     2.0;
    format      ascii;
    class       volVectorField;
    location    "0.3";
    object      U;
}
// * * * * * * * * * * * * * * * * * * * * * * * * * * * * * * * * * * * * * //

dimensions      [0 1 -1 0 0 0 0];

internalField   nonuniform List<vector> 
800
(
(0.000363693 -0.000362638 0)
(0.000376981 3.66577e-05 0)
(-0.00106743 0.000603466 0)
(-0.003831 0.00104872 0)
(-0.00754607 0.00133503 0)
(-0.0118318 0.0014802 0)
(-0.01636 0.00151481 0)
(-0.0208751 0.00147049 0)
(-0.0251945 0.00137461 0)
(-0.0291989 0.00124888 0)
(-0.0328207 0.00110957 0)
(-0.0360309 0.000968202 0)
(-0.0388287 0.000832412 0)
(-0.0412316 0.000706688 0)
(-0.0432675 0.000593097 0)
(-0.0449687 0.000491872 0)
(-0.0463672 0.000401882 0)
(-0.0474905 0.000320993 0)
(-0.0483597 0.000246332 0)
(-0.048987 0.00017449 0)
(-0.0493745 0.000101671 0)
(-0.0495131 2.38366e-05 0)
(-0.0493826 -6.31419e-05 0)
(-0.0489514 -0.000163277 0)
(-0.0481779 -0.000280181 0)
(-0.0470119 -0.000416672 0)
(-0.0453986 -0.000574249 0)
(-0.0432828 -0.000752413 0)
(-0.0406163 -0.00094787 0)
(-0.0373668 -0.00115364 0)
(-0.0335289 -0.00135818 0)
(-0.0291376 -0.00154463 0)
(-0.024282 -0.00169035 0)
(-0.0191194 -0.00176702 0)
(-0.0138863 -0.00174135 0)
(-0.00890431 -0.00157781 0)
(-0.0045728 -0.00124501 0)
(-0.00134005 -0.000727971 0)
(0.000371114 -7.28642e-05 0)
(0.000399179 0.000396136 0)
(-1.83144e-05 -0.000395796 0)
(-0.00171577 0.00172659 0)
(-0.00660612 0.00427565 0)
(-0.0142137 0.00635252 0)
(-0.0238243 0.00776392 0)
(-0.0347026 0.00853169 0)
(-0.0461583 0.00875765 0)
(-0.0576154 0.00856952 0)
(-0.0686386 0.00809117 0)
(-0.0789277 0.00742949 0)
(-0.0882988 0.00667018 0)
(-0.0966612 0.00587765 0)
(-0.103994 0.00509696 0)
(-0.110323 0.00435667 0)
(-0.115704 0.0036718 0)
(-0.120208 0.00304672 0)
(-0.123903 0.00247758 0)
(-0.126853 0.00195433 0)
(-0.129106 0.00146232 0)
(-0.130689 0.000983626 0)
(-0.131605 0.000498116 0)
(-0.131833 -1.55341e-05 0)
(-0.131322 -0.000578741 0)
(-0.13 -0.00121168 0)
(-0.127769 -0.00193158 0)
(-0.124515 -0.00275048 0)
(-0.120116 -0.0036724 0)
(-0.114453 -0.00468997 0)
(-0.107429 -0.00578051 0)
(-0.0989872 -0.00690208 0)
(-0.0891404 -0.00798986 0)
(-0.0779956 -0.00895384 0)
(-0.0657857 -0.00967871 0)
(-0.0528935 -0.0100275 0)
(-0.0398689 -0.00985058 0)
(-0.0274258 -0.00900467 0)
(-0.0164003 -0.0073876 0)
(-0.00766027 -0.00499591 0)
(-0.00202827 -0.00206626 0)
(-4.39689e-05 0.000391343 0)
(-0.000595557 0.00102701 0)
(-0.00439264 0.00663855 0)
(-0.012884 0.0125643 0)
(-0.0249807 0.0174004 0)
(-0.0396337 0.0207441 0)
(-0.0558873 0.0225979 0)
(-0.0728348 0.0231559 0)
(-0.0897053 0.0226918 0)
(-0.105907 0.0214887 0)
(-0.121027 0.0198024 0)
(-0.134805 0.0178452 0)
(-0.147113 0.0157809 0)
(-0.157916 0.0137272 0)
(-0.167247 0.0117607 0)
(-0.175181 0.0099236 0)
(-0.181814 0.00823021 0)
(-0.187243 0.00667328 0)
(-0.191555 0.00522903 0)
(-0.194816 0.00386142 0)
(-0.197065 0.00252573 0)
(-0.198306 0.00117155 0)
(-0.198509 -0.000254306 0)
(-0.197608 -0.00180479 0)
(-0.195501 -0.00352899 0)
(-0.192055 -0.00546765 0)
(-0.187117 -0.00764751 0)
(-0.18052 -0.0100743 0)
(-0.172108 -0.0127244 0)
(-0.16175 -0.0155359 0)
(-0.149375 -0.0183995 0)
(-0.135005 -0.0211506 0)
(-0.118789 -0.0235657 0)
(-0.101047 -0.0253646 0)
(-0.0822937 -0.0262229 0)
(-0.0632651 -0.0257998 0)
(-0.0449062 -0.0237873 0)
(-0.0283101 -0.0199928 0)
(-0.0146042 -0.0144591 0)
(-0.00498969 -0.00768548 0)
(-0.000683236 -0.00125735 0)
(-0.00111205 0.00389566 0)
(-0.00690555 0.0146151 0)
(-0.018843 0.0248831 0)
(-0.0350741 0.0330752 0)
(-0.0541454 0.0386832 0)
(-0.0748921 0.0417407 0)
(-0.0962463 0.0425714 0)
(-0.117314 0.0416302 0)
(-0.137419 0.039396 0)
(-0.156094 0.036308 0)
(-0.173053 0.0327356 0)
(-0.18816 0.028967 0)
(-0.20139 0.0252109 0)
(-0.212792 0.0216042 0)
(-0.222466 0.0182231 0)
(-0.23053 0.0150946 0)
(-0.237105 0.0122067 0)
(-0.242299 0.009518 0)
(-0.246193 0.00696504 0)
(-0.248836 0.00446901 0)
(-0.250236 0.00194113 0)
(-0.25036 -0.000712029 0)
(-0.249132 -0.00358309 0)
(-0.246435 -0.0067574 0)
(-0.242115 -0.0103051 0)
(-0.235991 -0.0142715 0)
(-0.227868 -0.0186646 0)
(-0.217557 -0.0234413 0)
(-0.204898 -0.0284922 0)
(-0.189794 -0.0336256 0)
(-0.17225 -0.0385557 0)
(-0.152417 -0.0428959 0)
(-0.130634 -0.0461646 0)
(-0.107473 -0.0478083 0)
(-0.0837609 -0.0472503 0)
(-0.0605823 -0.0439752 0)
(-0.0392176 -0.0376571 0)
(-0.0210371 -0.0283318 0)
(-0.00769437 -0.0166545 0)
(-0.00123607 -0.00448361 0)
(-0.00154361 0.00803075 0)
(-0.00912286 0.0253709 0)
(-0.0242114 0.0407953 0)
(-0.0441634 0.0527097 0)
(-0.0670688 0.0606588 0)
(-0.0915335 0.0648096 0)
(-0.116347 0.065683 0)
(-0.140534 0.0639631 0)
(-0.163387 0.0603582 0)
(-0.184438 0.0555163 0)
(-0.20342 0.049981 0)
(-0.220226 0.0441763 0)
(-0.234864 0.0384085 0)
(-0.247419 0.0328779 0)
(-0.258021 0.0276949 0)
(-0.266818 0.022897 0)
(-0.273955 0.0184646 0)
(-0.279559 0.0143344 0)
(-0.283725 0.0104113 0)
(-0.286513 0.0065774 0)
(-0.287938 0.00270068 0)
(-0.287969 -0.00135758 0)
(-0.286526 -0.00573466 0)
(-0.283487 -0.0105571 0)
(-0.278685 -0.0159296 0)
(-0.271923 -0.0219203 0)
(-0.262982 -0.0285443 0)
(-0.251643 -0.0357425 0)
(-0.237708 -0.0433599 0)
(-0.221038 -0.0511223 0)
(-0.201589 -0.0586179 0)
(-0.179465 -0.0652866 0)
(-0.154971 -0.0704261 0)
(-0.128659 -0.0732242 0)
(-0.101383 -0.0728259 0)
(-0.0743095 -0.0684487 0)
(-0.0488821 -0.0595526 0)
(-0.0267358 -0.046053 0)
(-0.0100345 -0.0285936 0)
(-0.00168582 -0.0090523 0)
(-0.00190928 0.0132545 0)
(-0.0110718 0.0386233 0)
(-0.0289872 0.0599507 0)
(-0.0522196 0.0758435 0)
(-0.0783699 0.0860613 0)
(-0.105795 0.0910348 0)
(-0.133152 0.0915793 0)
(-0.15942 0.0886744 0)
(-0.183906 0.083301 0)
(-0.206189 0.0763398 0)
(-0.226066 0.0685207 0)
(-0.243494 0.0604063 0)
(-0.258542 0.0523984 0)
(-0.271348 0.0447557 0)
(-0.282084 0.0376166 0)
(-0.290931 0.0310232 0)
(-0.298061 0.0249422 0)
(-0.303619 0.0192837 0)
(-0.307717 0.0139163 0)
(-0.310425 0.00867975 0)
(-0.311767 0.00339521 0)
(-0.311717 -0.00212445 0)
(-0.3102 -0.00806468 0)
(-0.307093 -0.0145975 0)
(-0.302227 -0.0218672 0)
(-0.295394 -0.0299721 0)
(-0.286355 -0.0389425 0)
(-0.274859 -0.048714 0)
(-0.260663 -0.0590973 0)
(-0.243564 -0.0697467 0)
(-0.22344 -0.0801324 0)
(-0.200302 -0.0895221 0)
(-0.174361 -0.0969827 0)
(-0.146091 -0.101414 0)
(-0.116306 -0.101629 0)
(-0.0862105 -0.0964947 0)
(-0.057394 -0.0851406 0)
(-0.0317789 -0.0672125 0)
(-0.0120795 -0.0431721 0)
(-0.00206352 -0.0147567 0)
(-0.00223634 0.0194334 0)
(-0.0128326 0.0541087 0)
(-0.033286 0.0819791 0)
(-0.059362 0.101973 0)
(-0.0881469 0.114229 0)
(-0.11774 0.119594 0)
(-0.146688 0.119301 0)
(-0.173965 0.114707 0)
(-0.198943 0.107115 0)
(-0.221299 0.0976638 0)
(-0.240939 0.0872736 0)
(-0.257919 0.0766406 0)
(-0.272394 0.0662509 0)
(-0.284569 0.0564086 0)
(-0.294668 0.0472681 0)
(-0.30291 0.0388652 0)
(-0.309491 0.0311449 0)
(-0.314577 0.0239846 0)
(-0.318293 0.0172126 0)
(-0.320719 0.0106232 0)
(-0.321889 0.00398947 0)
(-0.321786 -0.00292577 0)
(-0.320345 -0.0103582 0)
(-0.31745 -0.0185285 0)
(-0.312935 -0.0276264 0)
(-0.306588 -0.0377888 0)
(-0.298157 -0.0490739 0)
(-0.28736 -0.061428 0)
(-0.273901 -0.0746479 0)
(-0.257499 -0.0883384 0)
(-0.237925 -0.101873 0)
(-0.215056 -0.11436 0)
(-0.188952 -0.124635 0)
(-0.159942 -0.131282 0)
(-0.128733 -0.132723 0)
(-0.0965114 -0.127368 0)
(-0.0649809 -0.113866 0)
(-0.0363601 -0.0914148 0)
(-0.013951 -0.0601163 0)
(-0.0024074 -0.0214602 0)
(-0.00255554 0.026492 0)
(-0.014512 0.07163 0)
(-0.0372845 0.106536 0)
(-0.0657842 0.13057 0)
(-0.096552 0.144435 0)
(-0.12744 0.14958 0)
(-0.156929 0.147797 0)
(-0.18405 0.140919 0)
(-0.208302 0.130625 0)
(-0.229522 0.118326 0)
(-0.247766 0.105131 0)
(-0.263224 0.091852 0)
(-0.276156 0.0790394 0)
(-0.286847 0.0670214 0)
(-0.295575 0.0559498 0)
(-0.302595 0.0458396 0)
(-0.308127 0.0366039 0)
(-0.31235 0.0280805 0)
(-0.3154 0.0200539 0)
(-0.317365 0.0122721 0)
(-0.318289 0.00445989 0)
(-0.318167 -0.0036693 0)
(-0.316946 -0.0124014 0)
(-0.314524 -0.0220079 0)
(-0.310747 -0.0327285 0)
(-0.305409 -0.0447482 0)
(-0.298253 -0.058168 0)
(-0.288972 -0.0729663 0)
(-0.27722 -0.0889535 0)
(-0.262628 -0.105718 0)
(-0.244841 -0.122571 0)
(-0.223567 -0.138492 0)
(-0.19866 -0.152095 0)
(-0.17023 -0.161637 0)
(-0.138794 -0.16508 0)
(-0.105434 -0.160259 0)
(-0.0719084 -0.145162 0)
(-0.0407149 -0.118317 0)
(-0.0157883 -0.0792519 0)
(-0.00275692 -0.0291062 0)
(-0.00290282 0.0344225 0)
(-0.01624 0.0910851 0)
(-0.0411984 0.133328 0)
(-0.0717086 0.161088 0)
(-0.103727 0.175876 0)
(-0.134899 0.179972 0)
(-0.163718 0.175896 0)
(-0.189368 0.166064 0)
(-0.211561 0.152573 0)
(-0.230356 0.137114 0)
(-0.246008 0.120963 0)
(-0.258868 0.10502 0)
(-0.269314 0.0898643 0)
(-0.27771 0.0758187 0)
(-0.284387 0.0630087 0)
(-0.289627 0.0514112 0)
(-0.293665 0.0408954 0)
(-0.296685 0.0312535 0)
(-0.298824 0.0222242 0)
(-0.300177 0.0135095 0)
(-0.300793 0.00478889 0)
(-0.300679 -0.00427048 0)
(-0.2998 -0.0140021 0)
(-0.298075 -0.0247277 0)
(-0.295371 -0.03674 0)
(-0.291502 -0.0502804 0)
(-0.286218 -0.0655077 0)
(-0.279203 -0.0824568 0)
(-0.270071 -0.100985 0)
(-0.258374 -0.120709 0)
(-0.243622 -0.140925 0)
(-0.225329 -0.160532 0)
(-0.203093 -0.177963 0)
(-0.176728 -0.191146 0)
(-0.146448 -0.197536 0)
(-0.113111 -0.194264 0)
(-0.0784175 -0.178441 0)
(-0.0450885 -0.147638 0)
(-0.0177424 -0.100522 0)
(-0.00315436 -0.0377211 0)
(-0.00332659 0.0432993 0)
(-0.0181824 0.112485 0)
(-0.0452812 0.162106 0)
(-0.077354 0.192925 0)
(-0.109735 0.207609 0)
(-0.139956 0.209564 0)
(-0.166663 0.202242 0)
(-0.189323 0.188737 0)
(-0.207974 0.171591 0)
(-0.22297 0.152754 0)
(-0.234807 0.133627 0)
(-0.244011 0.115145 0)
(-0.251078 0.0978712 0)
(-0.256444 0.0820862 0)
(-0.260473 0.06786 0)
(-0.263459 0.0551122 0)
(-0.265635 0.0436572 0)
(-0.267177 0.0332367 0)
(-0.268213 0.0235437 0)
(-0.268834 0.0142384 0)
(-0.269091 0.00496026 0)
(-0.269003 -0.00466284 0)
(-0.268556 -0.015006 0)
(-0.267695 -0.0264365 0)
(-0.266322 -0.0392999 0)
(-0.264286 -0.0538986 0)
(-0.261365 -0.0704626 0)
(-0.257257 -0.0891066 0)
(-0.251563 -0.109773 0)
(-0.243777 -0.132155 0)
(-0.233289 -0.155601 0)
(-0.219412 -0.179002 0)
(-0.201452 -0.200678 0)
(-0.178845 -0.218269 0)
(-0.151374 -0.228705 0)
(-0.119499 -0.228295 0)
(-0.0846774 -0.213023 0)
(-0.0497266 -0.179128 0)
(-0.0199874 -0.123987 0)
(-0.00365247 -0.0474226 0)
(-0.00390154 0.0533086 0)
(-0.0205679 0.135969 0)
(-0.0498279 0.192632 0)
(-0.0828883 0.225341 0)
(-0.114461 0.238449 0)
(-0.142149 0.236879 0)
(-0.164976 0.225227 0)
(-0.182879 0.20734 0)
(-0.196348 0.186191 0)
(-0.206104 0.163923 0)
(-0.212911 0.141986 0)
(-0.217466 0.121278 0)
(-0.220364 0.102287 0)
(-0.222082 0.0852057 0)
(-0.222991 0.0700185 0)
(-0.223369 0.0565696 0)
(-0.223422 0.0446098 0)
(-0.223298 0.0338295 0)
(-0.223104 0.0238795 0)
(-0.222914 0.0143859 0)
(-0.222777 0.00495784 0)
(-0.222721 -0.00480551 0)
(-0.222752 -0.0153101 0)
(-0.222852 -0.02696 0)
(-0.222968 -0.0401472 0)
(-0.223 -0.0552347 0)
(-0.222785 -0.0725309 0)
(-0.222066 -0.0922498 0)
(-0.22047 -0.114453 0)
(-0.217478 -0.138966 0)
(-0.2124 -0.165267 0)
(-0.204373 -0.19234 0)
(-0.192405 -0.218497 0)
(-0.175485 -0.241194 0)
(-0.152826 -0.256876 0)
(-0.124262 -0.260953 0)
(-0.0907234 -0.248023 0)
(-0.0548725 -0.212504 0)
(-0.0227467 -0.149824 0)
(-0.00432912 -0.0584435 0)
(-0.00475328 0.064805 0)
(-0.0237278 0.161822 0)
(-0.0551648 0.224594 0)
(-0.0883283 0.257311 0)
(-0.117427 0.266815 0)
(-0.140489 0.260037 0)
(-0.157245 0.242917 0)
(-0.168348 0.220061 0)
(-0.174866 0.194779 0)
(-0.17794 0.16929 0)
(-0.17859 0.144969 0)
(-0.177651 0.122585 0)
(-0.175768 0.102479 0)
(-0.173408 0.0847077 0)
(-0.170905 0.0691434 0)
(-0.168483 0.0555411 0)
(-0.166293 0.0435855 0)
(-0.164431 0.0329191 0)
(-0.162965 0.0231601 0)
(-0.161941 0.0139119 0)
(-0.161397 0.00476773 0)
(-0.161365 -0.00468705 0)
(-0.161875 -0.014874 0)
(-0.162948 -0.0262193 0)
(-0.164588 -0.0391489 0)
(-0.166768 -0.0540777 0)
(-0.169406 -0.0713909 0)
(-0.172336 -0.0914109 0)
(-0.175263 -0.114345 0)
(-0.17772 -0.140203 0)
(-0.179011 -0.168675 0)
(-0.178166 -0.198957 0)
(-0.173935 -0.229516 0)
(-0.164844 -0.257794 0)
(-0.149411 -0.279898 0)
(-0.126576 -0.290362 0)
(-0.0963364 -0.282172 0)
(-0.0607426 -0.247324 0)
(-0.0263307 -0.178311 0)
(-0.0053128 -0.0711818 0)
(-0.00610179 0.078415 0)
(-0.0281476 0.190458 0)
(-0.0615807 0.257424 0)
(-0.0933101 0.287269 0)
(-0.117452 0.290505 0)
(-0.133076 0.276621 0)
(-0.141088 0.253004 0)
(-0.143109 0.224896 0)
(-0.140889 0.195738 0)
(-0.13597 0.167616 0)
(-0.129566 0.141679 0)
(-0.122564 0.118445 0)
(-0.115571 0.0980384 0)
(-0.108978 0.0803414 0)
(-0.103019 0.0650938 0)
(-0.0978223 0.0519587 0)
(-0.0934474 0.04056 0)
(-0.0899179 0.0305043 0)
(-0.0872421 0.0213916 0)
(-0.0854283 0.0128197 0)
(-0.0844942 0.00438386 0)
(-0.0844732 -0.00432538 0)
(-0.085415 -0.0137256 0)
(-0.0873831 -0.0242453 0)
(-0.0904466 -0.0363245 0)
(-0.0946662 -0.0504122 0)
(-0.10007 -0.0669562 0)
(-0.106621 -0.0863816 0)
(-0.114167 -0.109051 0)
(-0.122376 -0.135192 0)
(-0.130652 -0.164783 0)
(-0.138046 -0.197362 0)
(-0.143166 -0.231746 0)
(-0.144145 -0.26563 0)
(-0.138755 -0.295073 0)
(-0.124791 -0.313938 0)
(-0.100788 -0.313522 0)
(-0.0674321 -0.28276 0)
(-0.0311806 -0.209787 0)
(-0.00682659 -0.0862988 0)
(-0.00833092 0.0952071 0)
(-0.0345018 0.222321 0)
(-0.06909 0.289919 0)
(-0.0965835 0.312681 0)
(-0.112027 0.306386 0)
(-0.116503 0.283538 0)
(-0.112651 0.25283 0)
(-0.103259 0.219777 0)
(-0.0907307 0.187587 0)
(-0.0768867 0.157936 0)
(-0.0629774 0.131548 0)
(-0.0497942 0.108584 0)
(-0.03779 0.0888932 0)
(-0.0271849 0.0721597 0)
(-0.0180499 0.0579926 0)
(-0.010369 0.0459744 0)
(-0.00408284 0.0356862 0)
(0.000879666 0.0267186 0)
(0.00458106 0.0186746 0)
(0.0070611 0.0111674 0)
(0.00832798 0.00381554 0)
(0.00835314 -0.00376389 0)
(0.0070695 -0.011962 0)
(0.0043729 -0.0211855 0)
(0.000127697 -0.031863 0)
(-0.00582203 -0.0444501 0)
(-0.0136331 -0.0594292 0)
(-0.0234317 -0.077303 0)
(-0.0352649 -0.0985726 0)
(-0.0490285 -0.123689 0)
(-0.0643632 -0.15296 0)
(-0.0805166 -0.186375 0)
(-0.0961733 -0.223316 0)
(-0.109286 -0.262069 0)
(-0.117 -0.29911 0)
(-0.115838 -0.328136 0)
(-0.102314 -0.339015 0)
(-0.0746328 -0.317155 0)
(-0.037879 -0.244481 0)
(-0.00925418 -0.104877 0)
(-0.0120554 0.11692 0)
(-0.0435248 0.257499 0)
(-0.0767372 0.3195 0)
(-0.094929 0.32942 0)
(-0.096188 0.310097 0)
(-0.0849318 0.27704 0)
(-0.0659779 0.239603 0)
(-0.043233 0.202881 0)
(-0.0194958 0.169316 0)
(0.00344196 0.139842 0)
(0.0245591 0.114582 0)
(0.0433638 0.0932623 0)
(0.0597016 0.0754386 0)
(0.0736174 0.0606123 0)
(0.0852621 0.0482887 0)
(0.0948292 0.0380016 0)
(0.102516 0.0293201 0)
(0.108498 0.0218476 0)
(0.112913 0.015216 0)
(0.11585 0.00907734 0)
(0.117348 0.00309527 0)
(0.117385 -0.00306445 0)
(0.115884 -0.00974373 0)
(0.112706 -0.0173024 0)
(0.107656 -0.0261286 0)
(0.100487 -0.0366499 0)
(0.0909133 -0.0493434 0)
(0.078629 -0.0647432 0)
(0.0633495 -0.0834409 0)
(0.0448744 -0.106069 0)
(0.0231914 -0.133251 0)
(-0.00136105 -0.165477 0)
(-0.0278567 -0.202854 0)
(-0.0544642 -0.24462 0)
(-0.078106 -0.288293 0)
(-0.0942465 -0.328282 0)
(-0.0970451 -0.35391 0)
(-0.0808669 -0.347236 0)
(-0.0469543 -0.282046 0)
(-0.0131873 -0.128612 0)
(-0.0179803 0.14629 0)
(-0.0551774 0.294733 0)
(-0.0807181 0.340851 0)
(-0.0809497 0.330964 0)
(-0.0606711 0.295948 0)
(-0.0288423 0.253095 0)
(0.007672 0.210987 0)
(0.0444381 0.173232 0)
(0.0788985 0.140902 0)
(0.109802 0.113896 0)
(0.136715 0.0916519 0)
(0.159671 0.0734708 0)
(0.178945 0.0586675 0)
(0.194915 0.0466239 0)
(0.20798 0.0368018 0)
(0.218519 0.0287375 0)
(0.226862 0.0220311 0)
(0.23328 0.0163328 0)
(0.237975 0.0113305 0)
(0.241083 0.00673792 0)
(0.242665 0.00228382 0)
(0.242712 -0.00229885 0)
(0.24114 -0.00728324 0)
(0.23779 -0.0129598 0)
(0.232425 -0.0196485 0)
(0.224727 -0.027713 0)
(0.214303 -0.0375775 0)
(0.200684 -0.0497458 0)
(0.183352 -0.064822 0)
(0.161768 -0.0835277 0)
(0.135459 -0.106705 0)
(0.104152 -0.135278 0)
(0.0680278 -0.170107 0)
(0.0281344 -0.211629 0)
(-0.0130061 -0.25905 0)
(-0.050632 -0.308713 0)
(-0.0769733 -0.351172 0)
(-0.0815584 -0.366793 0)
(-0.0578983 -0.320448 0)
(-0.0192155 -0.160076 0)
(-0.0257787 0.187796 0)
(-0.0656644 0.328996 0)
(-0.0698417 0.343338 0)
(-0.038925 0.307337 0)
(0.0108254 0.257199 0)
(0.066314 0.208313 0)
(0.120197 0.166128 0)
(0.168943 0.131589 0)
(0.21127 0.103956 0)
(0.247105 0.0820567 0)
(0.276943 0.0647515 0)
(0.301502 0.0510702 0)
(0.321532 0.0402289 0)
(0.33774 0.0316055 0)
(0.350743 0.0247066 0)
(0.361065 0.0191364 0)
(0.369131 0.0145721 0)
(0.375271 0.010744 0)
(0.379727 0.00741985 0)
(0.382661 0.00439227 0)
(0.384149 0.00146839 0)
(0.384191 -0.00153971 0)
(0.382706 -0.00482417 0)
(0.379532 -0.00859105 0)
(0.374415 -0.0130715 0)
(0.367008 -0.0185356 0)
(0.356857 -0.0253102 0)
(0.343392 -0.0338032 0)
(0.325918 -0.044535 0)
(0.303615 -0.0581811 0)
(0.275558 -0.0756229 0)
(0.240786 -0.0979965 0)
(0.198474 -0.126708 0)
(0.148292 -0.163316 0)
(0.0911295 -0.209053 0)
(0.0303324 -0.263413 0)
(-0.026388 -0.320847 0)
(-0.0647215 -0.364381 0)
(-0.0660043 -0.353501 0)
(-0.0266269 -0.203327 0)
(-0.028961 0.245052 0)
(-0.0586209 0.344629 0)
(-0.0158126 0.307665 0)
(0.0620069 0.245658 0)
(0.144872 0.188404 0)
(0.220838 0.142477 0)
(0.286058 0.107677 0)
(0.340092 0.0817913 0)
(0.384013 0.0625324 0)
(0.419359 0.0480965 0)
(0.447644 0.0371712 0)
(0.470195 0.0288226 0)
(0.48812 0.0223852 0)
(0.502319 0.0173786 0)
(0.513512 0.0134489 0)
(0.522269 0.0103284 0)
(0.52903 0.0078089 0)
(0.534127 0.00572295 0)
(0.537798 0.00393077 0)
(0.540199 0.00231055 0)
(0.541406 0.000750831 0)
(0.541425 -0.000855997 0)
(0.540185 -0.00261983 0)
(0.537541 -0.00465936 0)
(0.533261 -0.00710972 0)
(0.52702 -0.0101324 0)
(0.518381 -0.0139291 0)
(0.50677 -0.0187616 0)
(0.491449 -0.0249815 0)
(0.471478 -0.0330763 0)
(0.445664 -0.0437383 0)
(0.412529 -0.0579684 0)
(0.370297 -0.0772203 0)
(0.317017 -0.103568 0)
(0.251024 -0.13977 0)
(0.172092 -0.188744 0)
(0.0836024 -0.251387 0)
(-0.0023635 -0.320808 0)
(-0.0537754 -0.363997 0)
(-0.0279691 -0.260461 0)
(0.0116421 0.28518 0)
(0.0258419 0.299239 0)
(0.147608 0.213291 0)
(0.276381 0.144272 0)
(0.379254 0.0978175 0)
(0.458442 0.067301 0)
(0.519105 0.0473292 0)
(0.565396 0.0340641 0)
(0.600781 0.0250133 0)
(0.627967 0.0186567 0)
(0.648959 0.014076 0)
(0.665228 0.0107044 0)
(0.677867 0.00818006 0)
(0.687691 0.0062636 0)
(0.695314 0.00478999 0)
(0.7012 0.003641 0)
(0.705693 0.0027284 0)
(0.709049 0.00198364 0)
(0.711447 0.00135101 0)
(0.713002 0.000782995 0)
(0.713771 0.00023672 0)
(0.713758 -0.000328875 0)
(0.712914 -0.000955702 0)
(0.711132 -0.0016893 0)
(0.708243 -0.00258221 0)
(0.704008 -0.00369843 0)
(0.698095 -0.00511998 0)
(0.690062 -0.00695702 0)
(0.679318 -0.00936427 0)
(0.665066 -0.0125689 0)
(0.646229 -0.0169194 0)
(0.62132 -0.0229728 0)
(0.588267 -0.0316536 0)
(0.544176 -0.0445388 0)
(0.48517 -0.0643165 0)
(0.406399 -0.0953384 0)
(0.301746 -0.143946 0)
(0.167737 -0.217508 0)
(0.0378053 -0.308728 0)
(0.0171135 -0.294638 0)
(0.302759 0.146482 0)
(0.40176 0.127463 0)
(0.563672 0.0753723 0)
(0.680874 0.0428526 0)
(0.75011 0.0249569 0)
(0.793625 0.015059 0)
(0.822976 0.00949859 0)
(0.843476 0.00627599 0)
(0.858181 0.00431684 0)
(0.868975 0.00306205 0)
(0.877032 0.0022201 0)
(0.883115 0.00163367 0)
(0.88774 0.00121355 0)
(0.891269 0.000906179 0)
(0.893965 0.000677477 0)
(0.896017 0.000504514 0)
(0.897565 0.000371013 0)
(0.898709 0.000264814 0)
(0.899518 0.000176346 0)
(0.900035 9.7634e-05 0)
(0.900282 2.15996e-05 0)
(0.900257 -5.84862e-05 0)
(0.899941 -0.000149499 0)
(0.89929 -0.000258978 0)
(0.898239 -0.000395766 0)
(0.89669 -0.000570883 0)
(0.894512 -0.000798881 0)
(0.891525 -0.00110007 0)
(0.887483 -0.00150446 0)
(0.882045 -0.0020591 0)
(0.874728 -0.00284258 0)
(0.864813 -0.00399472 0)
(0.851186 -0.00577945 0)
(0.832023 -0.00871817 0)
(0.804277 -0.0138579 0)
(0.762549 -0.0232626 0)
(0.695042 -0.0408908 0)
(0.577987 -0.0739381 0)
(0.411894 -0.127855 0)
(0.307417 -0.148222 0)
)
;

boundaryField
{
    movingWall
    {
        type            fixedValue;
        value           uniform (1 0 0);
    }
    fixedWalls
    {
        type            noSlip;
    }
    frontAndBack
    {
        type            empty;
    }
}


// ************************************************************************* //
