1.45 	0 	0 	-0.291793
2.35 	0 	0 	-0.127119
