1.45 	0 	0 	-0.291639
2.35 	0 	0 	-0.126954
