1.45 	0 	0 	-0.25774
2.35 	0 	0 	-0.0213777
