/*--------------------------------*- C++ -*----------------------------------*\
  =========                 |
  \\      /  F ield         | OpenFOAM: The Open Source CFD Toolbox
   \\    /   O peration     | Website:  https://openfoam.org
    \\  /    A nd           | Version:  6.0
     \\/     M anipulation  |
\*---------------------------------------------------------------------------*/
FoamFile
{
    version     2.0;
    format      ascii;
    class       volVectorField;
    location    "19";
    object      U;
}
// * * * * * * * * * * * * * * * * * * * * * * * * * * * * * * * * * * * * * //

dimensions      [0 1 -1 0 0 0 0];

internalField   nonuniform List<vector> 
2000
(
(-0.00199185 0.0017387 3.37986e-20)
(-0.00762064 0.00330414 3.59033e-20)
(-0.0153308 0.00366308 -3.2939e-20)
(-0.0223384 0.00333758 -6.4986e-20)
(-0.0276873 0.00263844 -4.40746e-20)
(-0.0312256 0.00176901 5.72121e-20)
(-0.033053 0.000874957 3.25741e-20)
(-0.0334381 6.34059e-05 -1.29127e-20)
(-0.0328026 -0.000586138 -3.16667e-20)
(-0.0314436 -0.00101072 1.86216e-20)
(-0.00249028 0.00512281 -8.37723e-20)
(-0.00837117 0.00969099 1.03439e-19)
(-0.0157291 0.0107021 9.92946e-21)
(-0.0220353 0.0096984 -5.57505e-20)
(-0.0264712 0.00759461 2.58992e-19)
(-0.0289614 0.00498816 -1.11065e-19)
(-0.0296531 0.00230827 -1.1745e-19)
(-0.0288421 -0.00012554 1.38832e-19)
(-0.0269681 -0.00207056 -1.34504e-19)
(-0.0244023 -0.00333672 5.47651e-20)
(-0.00343641 0.00822841 1.39134e-20)
(-0.00973166 0.0154204 4.42135e-21)
(-0.016312 0.0168953 2.98302e-19)
(-0.0211623 0.0151434 1.01175e-19)
(-0.0237395 0.0116285 1.94802e-20)
(-0.0241187 0.00730315 1.56991e-19)
(-0.0225402 0.00285487 -2.91452e-19)
(-0.0193491 -0.00119163 6.19294e-21)
(-0.0150181 -0.00441849 -1.65925e-19)
(-0.0100733 -0.00650463 1.47823e-19)
(-0.00472515 0.0108749 -2.6168e-20)
(-0.011412 0.0200785 1.3465e-19)
(-0.0166384 0.0217347 -3.77557e-19)
(-0.0191677 0.0191564 -4.71954e-20)
(-0.018869 0.0142629 -2.60882e-19)
(-0.0160407 0.00829342 2.63264e-19)
(-0.011056 0.00214483 -2.7294e-19)
(-0.00432424 -0.00347127 1.87859e-19)
(0.00364214 -0.00794484 7.75814e-20)
(0.0120695 -0.010817 -7.10793e-20)
(-0.00618928 0.0128868 -2.91168e-19)
(-0.0129559 0.0232853 2.33853e-21)
(-0.0160166 0.024791 4.65031e-19)
(-0.0151828 0.0213566 1.34821e-19)
(-0.0108714 0.0152234 -4.16169e-19)
(-0.00367505 0.0078147 2.52146e-19)
(0.0058623 0.000156333 2.79398e-19)
(0.0172624 -0.0068956 -2.44136e-19)
(0.0299829 -0.0125256 1.71015e-19)
(0.0428971 -0.0161305 3.41478e-20)
(-0.00758799 0.0140929 3.98057e-20)
(-0.0137214 0.024705 6.60303e-21)
(-0.0134801 0.0257366 -5.94449e-19)
(-0.00798917 0.0215356 -3.21585e-19)
(0.00165552 0.0144974 3.72477e-19)
(0.0144932 0.00609636 -4.25027e-19)
(0.029766 -0.00263506 4.76089e-19)
(0.0469277 -0.0107857 -4.02721e-20)
(0.0654465 -0.0173519 -1.28978e-19)
(0.0837314 -0.021595 -3.0611e-19)
(-0.00859496 0.0143305 -8.65561e-20)
(-0.0128688 0.0240594 -1.41437e-19)
(-0.00778261 0.0243583 -1.67234e-19)
(0.00398984 0.0196651 3.44992e-19)
(0.0205553 0.012345 6.21422e-19)
(0.0405046 0.00377443 -1.25137e-19)
(0.0628009 -0.00517508 -2.97794e-19)
(0.0868151 -0.0137121 8.90085e-20)
(0.112109 -0.0207503 -5.50809e-19)
(0.136558 -0.0254619 4.96467e-19)
(-0.00879442 0.0134591 5.29359e-19)
(-0.00937701 0.0211537 -2.58455e-19)
(0.00255935 0.0205664 4.85759e-19)
(0.0226275 0.015874 -7.67417e-19)
(0.0480482 0.00924432 -3.56076e-19)
(0.0768768 0.00183662 -4.80612e-19)
(0.107689 -0.00581889 1.36464e-19)
(0.139696 -0.0133215 -3.72624e-19)
(0.172682 -0.0197392 7.9714e-19)
(0.204107 -0.0243238 1.84103e-19)
(-0.00769642 0.0113904 3.8869e-20)
(-0.00210396 0.0159191 4.2102e-19)
(0.0191554 0.0144006 8.05252e-19)
(0.049945 0.010378 2.38009e-19)
(0.0865657 0.00572732 6.83964e-19)
(0.126444 0.00140774 3.65404e-20)
(0.167578 -0.00238794 -3.86467e-22)
(0.208751 -0.00572854 2.57446e-19)
(0.249989 -0.00801347 2.04463e-19)
(0.288898 -0.00952407 -5.52198e-19)
(-0.00478709 0.00813509 -3.13404e-19)
(0.0100815 0.00847315 -4.69726e-19)
(0.0435387 0.00602666 -6.57215e-19)
(0.0878781 0.00330841 1.49642e-20)
(0.138621 0.00186046 -3.14642e-19)
(0.192666 0.00264405 4.83249e-19)
(0.247443 0.00598062 -1.30066e-18)
(0.301004 0.0120575 5.72395e-19)
(0.352663 0.0214205 2.11411e-19)
(0.399854 0.0301563 5.56347e-19)
(0.000371764 0.00386184 1.56822e-19)
(0.0280533 -0.000782796 -5.36979e-19)
(0.0767121 -0.0041801 4.61493e-19)
(0.137465 -0.00534655 -1.73159e-19)
(0.205459 -0.00330688 1.82877e-19)
(0.277731 0.00286235 3.8808e-19)
(0.352445 0.0138925 -5.09302e-19)
(0.429191 0.0307014 6.48644e-20)
(0.508983 0.0525907 -2.35138e-19)
(0.594313 0.0698012 4.15629e-19)
(0.00804573 -0.00105315 2.24557e-19)
(0.0522043 -0.0110047 -4.86789e-19)
(0.118679 -0.0152417 6.38373e-19)
(0.197688 -0.0149 -3.84498e-19)
(0.284012 -0.0101282 -1.36961e-19)
(0.374596 -0.000787602 7.90155e-20)
(0.467632 0.0130299 3.99164e-20)
(0.562551 0.0310087 5.31176e-19)
(0.659057 0.0505047 1.50197e-19)
(0.754914 0.0628693 5.62723e-19)
(0.0183426 -0.00604753 -2.00398e-19)
(0.0825735 -0.0208383 6.29321e-19)
(0.168962 -0.0251884 -5.0542e-19)
(0.267046 -0.0227192 -5.7333e-19)
(0.371123 -0.0149506 7.78877e-19)
(0.477701 -0.00267799 -5.7725e-19)
(0.584382 0.0131656 1.49034e-19)
(0.689611 0.0314687 -8.6618e-19)
(0.791651 0.0496058 6.37375e-19)
(0.886563 0.0622235 2.8091e-20)
(0.0312684 -0.0104927 -2.61114e-19)
(0.118962 -0.0287237 -2.25743e-19)
(0.226867 -0.0317245 -4.62622e-19)
(0.344114 -0.025791 5.42219e-19)
(0.464559 -0.0138973 -2.66158e-20)
(0.584239 0.00225741 3.31845e-19)
(0.700216 0.0210713 5.91919e-19)
(0.810248 0.0410467 -1.78276e-19)
(0.911994 0.0601258 -6.19621e-19)
(1.00149 0.0752811 1.08238e-18)
(0.0467532 -0.0137799 -1.34938e-19)
(0.160927 -0.0331563 -1.44062e-19)
(0.291389 -0.0327345 2.49543e-19)
(0.427234 -0.0215744 -4.48615e-19)
(0.562079 -0.00412651 7.43887e-20)
(0.691711 0.0170561 6.45515e-20)
(0.813006 0.0398259 2.76978e-20)
(0.923611 0.0624765 -4.34134e-21)
(1.02134 0.08352 -6.52684e-20)
(1.10286 0.101331 -9.15408e-19)
(0.0646385 -0.0153465 5.47818e-19)
(0.207736 -0.0328093 -3.42076e-19)
(0.361091 -0.0265008 4.22273e-21)
(0.514247 -0.00825249 -4.8505e-19)
(0.660932 0.016041 -1.68595e-19)
(0.797059 0.0430518 1.53565e-19)
(0.919789 0.0702095 1.16669e-19)
(1.02722 0.0957207 -4.07446e-19)
(1.11788 0.118614 3.27291e-19)
(1.18945 0.138078 -3.77281e-19)
(0.0846455 -0.0146806 2.36398e-19)
(0.258324 -0.026591 -1.88036e-19)
(0.434073 -0.0118008 7.51775e-19)
(0.602495 0.0151904 7.41618e-20)
(0.757911 0.0471601 1.65443e-19)
(0.896851 0.0801532 7.18872e-19)
(1.01728 0.111355 -1.07385e-19)
(1.11826 0.139055 9.60935e-20)
(1.19945 0.16282 3.91266e-20)
(1.25979 0.182337 -4.2128e-20)
(0.106344 -0.0113315 1.65137e-19)
(0.311283 -0.0136862 3.55409e-19)
(0.508021 0.0120534 -3.66457e-19)
(0.688955 0.0489909 -1.2003e-19)
(0.849597 0.0888207 -1.43997e-19)
(0.987654 0.127215 2.17405e-19)
(1.10242 0.161384 -1.10605e-19)
(1.19434 0.189941 2.91689e-19)
(1.26443 0.213088 9.65261e-20)
(1.31309 0.230868 -1.37519e-19)
(0.129139 -0.00493488 -1.77979e-19)
(0.364891 0.00639623 1.41579e-19)
(0.580323 0.0451937 -2.90788e-19)
(0.770457 0.0926635 1.21315e-19)
(0.932666 0.139829 -1.22249e-19)
(1.06641 0.18237 -1.48732e-19)
(1.17275 0.217876 -1.16825e-19)
(1.25381 0.245574 1.28001e-19)
(1.31211 0.266427 -2.37292e-19)
(1.34944 0.280802 1.24836e-19)
(0.152279 0.00474941 -6.34336e-20)
(0.417183 0.033768 -1.11076e-19)
(0.648224 0.0871814 5.09022e-20)
(0.843913 0.145069 3.02673e-21)
(1.00416 0.19838 3.96707e-20)
(1.13069 0.243295 5.30751e-20)
(1.22665 0.278194 4.81199e-20)
(1.29599 0.303208 -6.25305e-20)
(1.34264 0.320179 5.23732e-20)
(1.3697 0.329806 -7.09964e-20)
(0.17488 0.0177967 -3.67292e-20)
(0.466054 0.0681112 -1.23398e-20)
(0.709004 0.137008 4.72402e-20)
(0.90654 0.204498 -2.10215e-20)
(1.0617 0.262221 5.44673e-20)
(1.17886 0.307431 -6.854e-20)
(1.2634 0.339711 1.5517e-20)
(1.32103 0.360342 1.63206e-20)
(1.35691 0.372119 -6.73872e-21)
(1.37525 0.376086 2.19537e-20)
(0.195978 0.0340818 -3.96194e-20)
(0.509388 0.108648 -1.60513e-19)
(0.760159 0.193127 -1.07053e-20)
(0.956038 0.268773 3.08493e-21)
(1.10362 0.328811 -1.88846e-19)
(1.2101 0.372152 2.4302e-20)
(1.28307 0.399949 -2.02363e-20)
(1.32976 0.414806 -4.79558e-20)
(1.35632 0.420461 9.83869e-20)
(1.36776 0.418304 -1.53507e-19)
(0.214579 0.0532543 -1.91474e-20)
(0.545197 0.154139 3.25222e-19)
(0.799564 0.25351 5.04112e-20)
(0.990726 0.33537 -2.66482e-19)
(1.12902 0.39546 -2.09931e-20)
(1.22439 0.434897 -2.42016e-19)
(1.28641 0.456669 1.73534e-19)
(1.32355 0.464763 -6.18823e-20)
(1.34258 0.463794 1.07926e-19)
(1.34905 0.455472 -6.71114e-20)
(0.22973 0.07473 -1.20749e-19)
(0.571756 0.202919 1.03358e-19)
(0.825608 0.315746 -7.18121e-20)
(1.00962 0.401547 5.23019e-19)
(1.13772 0.45947 2.50841e-19)
(1.22238 0.493263 -5.67498e-20)
(1.27474 0.507898 1.8711e-19)
(1.3041 0.508693 -1.20807e-19)
(1.31756 0.501007 -3.31885e-20)
(1.32092 0.486836 1.83623e-19)
(0.240583 0.0976991 -2.09124e-19)
(0.587724 0.25296 2.38346e-19)
(0.83729 0.377163 -4.51368e-19)
(1.01244 0.464485 6.13885e-20)
(1.13029 0.518234 1.33427e-19)
(1.20533 0.545064 -1.99003e-19)
(1.24977 0.551927 -2.27621e-19)
(1.27335 0.545331 9.82439e-20)
(1.2832 0.531196 -1.16557e-19)
(1.28518 0.511785 1.17873e-19)
(0.246458 0.121153 -5.28192e-20)
(0.592234 0.301976 -2.42592e-19)
(0.834258 0.434958 1.29053e-19)
(0.999602 0.521413 2.09965e-19)
(1.10786 0.569329 -1.22465e-19)
(1.17489 0.588356 -8.9198e-20)
(1.21347 0.587291 -4.88532e-20)
(1.23335 0.573606 -2.378e-20)
(1.24145 0.553574 4.51738e-21)
(1.24356 0.529745 4.17162e-20)
(0.246898 0.143931 3.90166e-20)
(0.584961 0.347543 -2.04353e-19)
(0.816818 0.486358 3.28206e-19)
(0.972124 0.569741 -1.87889e-19)
(1.07202 0.610599 5.17621e-20)
(1.13305 0.621463 -7.13515e-20)
(1.16798 0.61274 7.51433e-20)
(1.18618 0.592577 1.54158e-20)
(1.19423 0.567374 -3.03679e-20)
(1.19774 0.540042 4.90741e-20)
(0.241722 0.164782 -1.02722e-19)
(0.566149 0.387243 1.79993e-19)
(0.78589 0.528767 -7.61435e-21)
(0.931531 0.60718 -3.66269e-20)
(1.02473 0.640219 -9.58388e-20)
(1.08199 0.64302 1.18912e-20)
(1.11555 0.62728 2.48139e-20)
(1.13407 0.601493 -6.44555e-20)
(1.14368 0.571896 7.3678e-20)
(1.14979 0.541886 5.23559e-20)
(0.23105 0.182451 2.47836e-20)
(0.536607 0.418824 -4.31574e-20)
(0.742928 0.559915 1.08848e-20)
(0.879699 0.631825 9.68886e-21)
(0.968046 0.656704 3.33839e-20)
(1.02385 0.651879 -6.44738e-20)
(1.05839 0.63001 -1.33692e-19)
(1.07945 0.599634 -5.36765e-20)
(1.09273 0.566487 -6.76661e-20)
(1.10304 0.534636 4.61065e-20)
(0.215329 0.195783 6.27298e-20)
(0.497671 0.440375 -8.79834e-20)
(0.689811 0.578031 8.18131e-20)
(0.818671 0.642283 -1.51303e-19)
(0.903864 0.658929 3.55096e-20)
(0.960158 0.64688 2.35782e-19)
(0.997756 0.619347 -7.07345e-20)
(1.02365 0.584621 8.19585e-20)
(1.04317 0.547791 1.183e-19)
(1.05939 0.514689 3.4676e-19)
(0.195331 0.203838 3.96075e-19)
(0.451167 0.450515 -2.40635e-19)
(0.6288 0.582064 5.64333e-19)
(0.750618 0.638045 -9.33882e-20)
(0.833773 0.646833 4.54972e-19)
(0.891464 0.628055 2.7809e-19)
(0.932734 0.594672 -6.3842e-19)
(0.963952 0.553783 9.50453e-19)
(0.989752 0.50774 -1.97762e-19)
(1.00695 0.460357 3.48981e-19)
(0.172117 0.205967 -2.18632e-19)
(0.399364 0.448444 -1.39715e-19)
(0.56262 0.571701 1.30416e-19)
(0.678216 0.619592 -3.11109e-19)
(0.759979 0.622055 -9.43507e-19)
(0.819036 0.598968 -3.69891e-19)
(0.863034 0.5631 -3.25608e-19)
(0.897406 0.52162 1.54665e-19)
(0.925383 0.477997 1.26392e-18)
(0.943262 0.436887 -2.36443e-19)
(0.14695 0.201792 1.15381e-19)
(0.344851 0.433807 -4.17992e-19)
(0.494415 0.546919 8.83985e-20)
(0.604895 0.587221 -6.22379e-19)
(0.686311 0.585046 1.32249e-18)
(0.747555 0.559899 -1.49475e-19)
(0.794838 0.523995 6.86416e-19)
(0.832624 0.484143 -9.63434e-19)
(0.863527 0.443812 2.96997e-19)
(0.885157 0.407071 4.14991e-20)
(0.121167 0.191208 8.50814e-20)
(0.290257 0.406677 4.60881e-19)
(0.427244 0.508015 -1.30298e-18)
(0.533763 0.541299 6.12812e-19)
(0.615828 0.536004 -1.84975e-21)
(0.680087 0.510589 -1.95597e-19)
(0.731391 0.47636 2.40765e-19)
(0.773373 0.439533 -2.34316e-19)
(0.808289 0.403236 -7.90404e-19)
(0.83463 0.370568 -1.95056e-19)
(0.0960954 0.174369 2.78646e-19)
(0.238106 0.367573 2.79667e-19)
(0.363939 0.455713 1.11112e-18)
(0.467552 0.48257 -5.97636e-19)
(0.550981 0.475517 1.19581e-18)
(0.618715 0.451332 -2.50911e-19)
(0.674349 0.420086 -2.59134e-19)
(0.720794 0.387231 3.00154e-19)
(0.760013 0.355433 1.92013e-19)
(0.791143 0.326924 6.27341e-19)
(0.0729922 0.151691 -2.82922e-19)
(0.190721 0.317451 8.26487e-20)
(0.307041 0.391189 2.15504e-20)
(0.408633 0.412196 6.09414e-19)
(0.493816 0.404604 -1.47662e-18)
(0.565102 0.382941 2.44425e-19)
(0.624964 0.355784 5.27303e-19)
(0.675686 0.327703 -6.24665e-19)
(0.718987 0.300858 2.16009e-19)
(0.754573 0.276776 -9.04005e-19)
(0.0529969 0.123838 6.03016e-20)
(0.150161 0.257679 2.90955e-19)
(0.25875 0.316033 1.08839e-19)
(0.359018 0.331727 1.42649e-19)
(0.446028 0.324648 2.65287e-19)
(0.520589 0.306602 7.69381e-19)
(0.584231 0.284464 -9.20549e-19)
(0.63871 0.26185 -5.08019e-19)
(0.68556 0.24041 8.27091e-20)
(0.725002 0.221131 5.86507e-19)
(0.0370852 0.0916963 -3.64665e-19)
(0.118152 0.189988 -3.87852e-20)
(0.220886 0.232201 -3.12667e-19)
(0.320342 0.243046 4.30616e-20)
(0.408977 0.237343 -2.51155e-19)
(0.48625 0.223797 -2.79348e-19)
(0.552952 0.207428 -4.06817e-19)
(0.610433 0.190848 1.07414e-18)
(0.660096 0.175216 1.81983e-19)
(0.702596 0.16112 -2.50197e-19)
(0.0260292 0.0563445 1.96538e-19)
(0.0960415 0.116413 2.32373e-19)
(0.194848 0.141951 8.80388e-20)
(0.293855 0.148307 -4.59494e-19)
(0.383697 0.14462 -2.07639e-19)
(0.462899 0.136226 -4.3562e-20)
(0.531746 0.126178 8.31694e-20)
(0.591311 0.116055 6.54423e-20)
(0.642918 0.106544 -4.96961e-19)
(0.687537 0.0979488 2.57285e-19)
(0.0203643 0.0190057 -1.02354e-19)
(0.0847514 0.0392121 -1.04167e-19)
(0.181588 0.04776 7.98601e-20)
(0.280399 0.0498525 6.85396e-20)
(0.370882 0.0485789 6.81859e-20)
(0.451085 0.0457359 1.0158e-19)
(0.521035 0.0423484 -5.22466e-21)
(0.581668 0.0389447 -1.27584e-19)
(0.634265 0.0357519 1.1903e-19)
(0.679969 0.0328632 -1.6158e-19)
(0.0203643 -0.0190057 -1.03029e-19)
(0.0847514 -0.0392122 -9.92676e-20)
(0.181588 -0.0477602 8.80026e-20)
(0.280399 -0.0498526 1.66553e-19)
(0.370882 -0.048579 1.07718e-19)
(0.451085 -0.045736 -1.38268e-19)
(0.521035 -0.0423486 -7.34125e-20)
(0.581668 -0.0389449 3.13768e-20)
(0.634265 -0.035752 6.92771e-20)
(0.679969 -0.0328633 -3.72221e-20)
(0.0260293 -0.0563445 2.45868e-19)
(0.0960415 -0.116413 -2.79484e-19)
(0.194848 -0.141952 -2.23416e-20)
(0.293855 -0.148307 1.44017e-19)
(0.383697 -0.14462 -6.32001e-19)
(0.462899 -0.136226 2.63067e-19)
(0.531746 -0.126178 2.65355e-19)
(0.591311 -0.116055 -3.0696e-19)
(0.642918 -0.106544 2.87993e-19)
(0.687537 -0.0979489 -1.14052e-19)
(0.0370852 -0.0916963 -4.25045e-20)
(0.118153 -0.189988 -4.8412e-21)
(0.220886 -0.232201 -7.26192e-19)
(0.320342 -0.243047 -2.23288e-19)
(0.408977 -0.237343 -2.28148e-20)
(0.48625 -0.223797 -3.4737e-19)
(0.552952 -0.207428 6.32501e-19)
(0.610433 -0.190848 -2.17958e-20)
(0.660096 -0.175216 3.47599e-19)
(0.702596 -0.161121 -2.75607e-19)
(0.0529969 -0.123838 7.17814e-20)
(0.150161 -0.257679 -2.97198e-19)
(0.25875 -0.316033 8.79938e-19)
(0.359018 -0.331727 1.2039e-19)
(0.446028 -0.324648 5.74389e-19)
(0.520589 -0.306602 -5.46995e-19)
(0.584231 -0.284464 5.61171e-19)
(0.63871 -0.26185 -3.96488e-19)
(0.68556 -0.24041 -1.71072e-19)
(0.725002 -0.221131 1.30929e-19)
(0.0729922 -0.151691 6.40825e-19)
(0.190721 -0.317451 1.48385e-21)
(0.307041 -0.391189 -9.27099e-19)
(0.408633 -0.412196 -2.60008e-19)
(0.493816 -0.404604 8.38132e-19)
(0.565102 -0.382941 -4.78471e-19)
(0.624964 -0.355784 -5.41343e-19)
(0.675686 -0.327703 4.77293e-19)
(0.718987 -0.300858 -3.19145e-19)
(0.754573 -0.276776 -6.19557e-20)
(0.0960955 -0.174369 -9.567e-20)
(0.238106 -0.367573 -4.02488e-21)
(0.363939 -0.455714 1.00577e-18)
(0.467552 -0.48257 5.57539e-19)
(0.550981 -0.475518 -6.38203e-19)
(0.618715 -0.451333 7.52869e-19)
(0.674349 -0.420087 -7.98268e-19)
(0.720794 -0.387232 7.79021e-20)
(0.760013 -0.355433 2.29045e-19)
(0.791143 -0.326924 4.7651e-19)
(0.121167 -0.191208 1.09525e-19)
(0.290257 -0.406677 1.57698e-19)
(0.427244 -0.508015 1.64936e-19)
(0.533763 -0.541299 -5.1333e-19)
(0.615829 -0.536004 -8.875e-19)
(0.680087 -0.510589 1.82092e-19)
(0.731391 -0.47636 5.15206e-19)
(0.773373 -0.439534 -1.44489e-19)
(0.808289 -0.403237 8.53601e-19)
(0.83463 -0.370569 -7.49172e-19)
(0.14695 -0.201792 -6.19849e-19)
(0.344851 -0.433807 2.12724e-19)
(0.494415 -0.546919 -5.53331e-19)
(0.604895 -0.587221 8.64745e-19)
(0.686311 -0.585046 4.19807e-19)
(0.747555 -0.559899 5.77464e-19)
(0.794838 -0.523995 -1.30476e-19)
(0.832624 -0.484143 5.04393e-19)
(0.863527 -0.443812 -1.04877e-18)
(0.885157 -0.407071 -2.45804e-19)
(0.172117 -0.205967 3.67181e-20)
(0.399364 -0.448444 -3.72081e-19)
(0.56262 -0.571701 -5.72395e-19)
(0.678216 -0.619592 -2.34832e-19)
(0.75998 -0.622055 -6.44039e-19)
(0.819036 -0.598968 -6.39572e-20)
(0.863034 -0.5631 5.3624e-20)
(0.897406 -0.521621 -2.34771e-19)
(0.925383 -0.477997 -2.56985e-19)
(0.943263 -0.436887 6.10337e-19)
(0.195331 -0.203838 1.95445e-19)
(0.451167 -0.450515 2.43664e-19)
(0.628801 -0.582064 4.205e-19)
(0.750618 -0.638045 1.8199e-20)
(0.833773 -0.646833 2.63713e-19)
(0.891465 -0.628055 -3.51449e-19)
(0.932734 -0.594672 1.04932e-18)
(0.963952 -0.553783 -4.53902e-19)
(0.989752 -0.50774 -2.18751e-19)
(1.00695 -0.460357 -5.92875e-19)
(0.215329 -0.195783 -7.68097e-20)
(0.497671 -0.440375 1.20152e-19)
(0.689811 -0.578031 -1.18691e-19)
(0.818671 -0.642283 6.21289e-20)
(0.903864 -0.658929 -7.13452e-20)
(0.960158 -0.64688 -1.78459e-19)
(0.997756 -0.619347 2.29366e-19)
(1.02365 -0.584621 -7.40246e-20)
(1.04317 -0.547791 1.11899e-19)
(1.05939 -0.514689 -1.96991e-19)
(0.23105 -0.182451 -3.493e-21)
(0.536607 -0.418824 -5.79039e-20)
(0.742928 -0.559915 1.34859e-20)
(0.879699 -0.631825 6.88126e-20)
(0.968046 -0.656704 -3.16016e-20)
(1.02385 -0.651879 8.4682e-21)
(1.05839 -0.63001 -7.61744e-21)
(1.07945 -0.599634 -1.667e-19)
(1.09273 -0.566487 -7.6444e-20)
(1.10304 -0.534636 -1.9472e-19)
(0.241722 -0.164782 -5.71021e-20)
(0.566149 -0.387243 1.8057e-19)
(0.78589 -0.528767 -1.08585e-19)
(0.931531 -0.60718 -3.96949e-20)
(1.02473 -0.640219 1.96488e-20)
(1.08199 -0.64302 3.02055e-20)
(1.11555 -0.62728 -2.44313e-21)
(1.13407 -0.601493 1.24528e-19)
(1.14368 -0.571896 -1.06208e-19)
(1.14979 -0.541886 -1.11015e-21)
(0.246898 -0.143931 -1.39731e-19)
(0.584961 -0.347543 -7.87173e-20)
(0.816818 -0.486358 -1.87815e-19)
(0.972124 -0.569741 2.06706e-19)
(1.07202 -0.610599 -1.46882e-20)
(1.13305 -0.621463 6.44174e-20)
(1.16798 -0.61274 7.23043e-20)
(1.18618 -0.592577 -2.56099e-20)
(1.19423 -0.567375 1.87518e-20)
(1.19774 -0.540042 -5.16126e-20)
(0.246458 -0.121153 -9.48789e-20)
(0.592234 -0.301976 -1.09077e-19)
(0.834258 -0.434958 1.58377e-19)
(0.999602 -0.521413 -2.3052e-19)
(1.10786 -0.569329 3.92784e-20)
(1.17489 -0.588356 1.9492e-20)
(1.21347 -0.587291 4.16901e-20)
(1.23335 -0.573606 -2.66408e-20)
(1.24145 -0.553574 -3.192e-20)
(1.24356 -0.529745 -8.98978e-20)
(0.240583 -0.0976991 3.95593e-19)
(0.587724 -0.25296 -2.769e-19)
(0.83729 -0.377163 1.2421e-20)
(1.01244 -0.464485 -3.30671e-19)
(1.13029 -0.518234 -9.34195e-20)
(1.20533 -0.545064 7.28792e-20)
(1.24977 -0.551927 5.23317e-20)
(1.27335 -0.545332 -1.71152e-19)
(1.2832 -0.531196 7.46837e-20)
(1.28518 -0.511785 -1.12177e-19)
(0.22973 -0.07473 1.96163e-19)
(0.571756 -0.202919 -1.73708e-19)
(0.825608 -0.315746 6.00388e-19)
(1.00962 -0.401547 4.63978e-20)
(1.13772 -0.45947 1.27894e-19)
(1.22238 -0.493263 4.45447e-19)
(1.27474 -0.507898 -9.02508e-20)
(1.3041 -0.508693 2.2037e-20)
(1.31756 -0.501007 -1.21302e-20)
(1.32092 -0.486836 -1.84583e-20)
(0.214579 -0.0532543 1.51136e-19)
(0.545197 -0.154139 3.07529e-19)
(0.799564 -0.25351 -3.01781e-19)
(0.990726 -0.33537 -8.87497e-20)
(1.12902 -0.39546 -9.1347e-20)
(1.22439 -0.434897 1.74938e-19)
(1.28641 -0.456669 -8.08096e-20)
(1.32355 -0.464763 1.86973e-19)
(1.34258 -0.463795 4.44755e-20)
(1.34905 -0.455472 -6.6261e-20)
(0.195978 -0.0340818 -1.63281e-19)
(0.509388 -0.108648 1.3559e-19)
(0.760159 -0.193127 -2.67989e-19)
(0.956038 -0.268773 1.08531e-19)
(1.10362 -0.328811 -1.05655e-19)
(1.2101 -0.372152 -1.22506e-19)
(1.28307 -0.399949 -9.3005e-20)
(1.32976 -0.414806 1.00624e-19)
(1.35632 -0.420461 -1.7214e-19)
(1.36776 -0.418304 9.31943e-20)
(0.17488 -0.0177967 -6.1153e-20)
(0.466054 -0.0681113 -1.07426e-19)
(0.709004 -0.137008 4.86347e-20)
(0.90654 -0.204498 3.46183e-21)
(1.0617 -0.262221 3.63636e-20)
(1.17886 -0.307431 5.07992e-20)
(1.2634 -0.339711 4.23391e-20)
(1.32103 -0.360342 -5.61283e-20)
(1.35691 -0.372119 4.50417e-20)
(1.37525 -0.376086 -6.12573e-20)
(0.152279 -0.00474941 -3.85337e-20)
(0.417183 -0.033768 -1.39045e-20)
(0.648224 -0.0871814 4.98591e-20)
(0.843913 -0.145069 -2.17448e-20)
(1.00416 -0.19838 5.9143e-20)
(1.13069 -0.243295 -7.28653e-20)
(1.22665 -0.278195 1.82786e-20)
(1.29599 -0.303208 1.53927e-20)
(1.34264 -0.320179 -5.42939e-21)
(1.3697 -0.329806 2.15273e-20)
(0.129139 0.00493488 -4.62088e-20)
(0.364891 -0.00639623 -1.75401e-19)
(0.580324 -0.0451937 -1.35938e-20)
(0.770457 -0.0926635 5.25026e-21)
(0.932666 -0.139829 -2.20012e-19)
(1.06641 -0.18237 2.26407e-20)
(1.17275 -0.217876 -2.34415e-20)
(1.25381 -0.245574 -6.25676e-20)
(1.31211 -0.266427 1.36143e-19)
(1.34944 -0.280802 -2.15666e-19)
(0.106344 0.0113315 -2.61995e-20)
(0.311283 0.0136862 3.76262e-19)
(0.508021 -0.0120534 4.83197e-20)
(0.688955 -0.0489909 -3.16325e-19)
(0.849597 -0.0888207 -3.67411e-20)
(0.987654 -0.127215 -3.37744e-19)
(1.10242 -0.161384 2.56777e-19)
(1.19434 -0.189941 -1.02241e-19)
(1.26443 -0.213088 1.90354e-19)
(1.31309 -0.230868 -1.46916e-19)
(0.0846455 0.0146806 -1.48227e-19)
(0.258324 0.026591 1.54488e-19)
(0.434073 0.0118008 -1.03883e-19)
(0.602495 -0.0151904 6.9426e-19)
(0.757911 -0.0471601 3.5696e-19)
(0.896851 -0.0801532 -9.11228e-20)
(1.01728 -0.111355 3.46354e-19)
(1.11826 -0.139055 -2.22062e-19)
(1.19945 -0.16282 -7.03026e-20)
(1.25979 -0.182337 4.44811e-19)
(0.0646385 0.0153465 -2.74083e-19)
(0.207736 0.0328093 3.6617e-19)
(0.361091 0.0265008 -6.68442e-19)
(0.514247 0.00825249 1.11898e-19)
(0.660932 -0.016041 2.71027e-19)
(0.797059 -0.0430518 -3.31854e-19)
(0.919789 -0.0702095 -5.74795e-19)
(1.02722 -0.0957207 3.02031e-19)
(1.11788 -0.118614 -3.86099e-19)
(1.18945 -0.138078 5.43105e-19)
(0.0467532 0.0137799 -6.77424e-20)
(0.160927 0.0331563 -3.68635e-19)
(0.291389 0.0327345 1.75105e-19)
(0.427234 0.0215744 4.23743e-19)
(0.562079 0.00412651 -2.20993e-19)
(0.691711 -0.0170561 -2.12602e-19)
(0.813006 -0.0398259 -3.52489e-19)
(0.923611 -0.0624765 -1.58373e-19)
(1.02134 -0.08352 -3.74232e-20)
(1.10286 -0.101331 5.43362e-19)
(0.0312684 0.0104927 1.13791e-19)
(0.118962 0.0287237 -5.0084e-19)
(0.226867 0.0317245 8.24521e-19)
(0.344115 0.025791 -4.43941e-19)
(0.46456 0.0138973 2.79417e-19)
(0.584239 -0.00225742 -3.38819e-19)
(0.700216 -0.0210713 3.68908e-19)
(0.810248 -0.0410467 3.15855e-19)
(0.911994 -0.0601258 6.78055e-19)
(1.00149 -0.0752811 -9.86326e-19)
(0.0183426 0.00604753 -3.53542e-19)
(0.0825736 0.0208382 6.3543e-19)
(0.168962 0.0251884 8.18984e-21)
(0.267046 0.0227192 -2.12969e-19)
(0.371123 0.0149506 -1.09777e-19)
(0.477701 0.00267796 8.56077e-20)
(0.584382 -0.0131656 -5.94011e-19)
(0.689611 -0.0314687 4.49846e-19)
(0.791651 -0.0496058 -5.69581e-19)
(0.886563 -0.0622235 -2.28525e-19)
(0.00804573 0.00105314 6.08505e-19)
(0.0522043 0.0110047 -1.69872e-19)
(0.118679 0.0152417 -3.06748e-19)
(0.197688 0.0149 8.05597e-19)
(0.284012 0.0101282 -7.68484e-19)
(0.374597 0.00078755 4.18487e-19)
(0.467632 -0.0130299 4.35791e-19)
(0.562551 -0.0310087 1.16897e-19)
(0.659057 -0.0505047 1.19375e-19)
(0.754915 -0.0628694 -1.48662e-19)
(0.000371752 -0.00386185 -5.82062e-19)
(0.0280533 0.000782764 4.95073e-19)
(0.0767121 0.00418004 -4.21691e-19)
(0.137465 0.00534648 5.1167e-19)
(0.205459 0.0033068 -1.48421e-19)
(0.277731 -0.00286244 -5.02491e-19)
(0.352445 -0.0138926 1.40831e-19)
(0.429191 -0.0307015 -2.27769e-19)
(0.508983 -0.0525908 -2.64842e-19)
(0.594313 -0.0698012 -7.20556e-19)
(-0.00478711 -0.00813511 -7.27304e-19)
(0.0100815 -0.0084732 5.17366e-19)
(0.0435387 -0.00602674 -9.75687e-19)
(0.0878781 -0.00330852 1.68721e-19)
(0.138621 -0.00186059 -6.34751e-19)
(0.192666 -0.00264419 -3.71031e-19)
(0.247443 -0.00598076 8.68031e-19)
(0.301004 -0.0120577 -1.16329e-18)
(0.352663 -0.0214206 2.20163e-19)
(0.399854 -0.0301564 -3.03873e-19)
(-0.00769644 -0.0113904 3.58302e-19)
(-0.00210399 -0.0159191 1.35728e-19)
(0.0191554 -0.0144007 -3.88981e-20)
(0.049945 -0.0103781 3.5855e-19)
(0.0865658 -0.0057275 1.02245e-18)
(0.126444 -0.00140794 3.43922e-19)
(0.167578 0.00238773 3.47406e-19)
(0.208752 0.00572833 -1.17689e-19)
(0.249989 0.00801326 -1.07933e-18)
(0.288898 0.00952389 2.27751e-19)
(-0.00879444 -0.0134591 -1.01208e-19)
(-0.00937704 -0.0211538 2.88146e-19)
(0.00255933 -0.0205666 -7.26587e-20)
(0.0226275 -0.0158742 4.96025e-19)
(0.0480482 -0.00924456 -1.11351e-18)
(0.0768769 -0.00183688 9.21349e-20)
(0.107689 0.00581861 -5.04839e-19)
(0.139696 0.0133212 7.28299e-19)
(0.172682 0.019739 -2.09036e-19)
(0.204107 0.0243235 -2.46754e-20)
(-0.00859499 -0.0143306 -6.88759e-20)
(-0.0128689 -0.0240596 -3.46547e-19)
(-0.00778264 -0.0243585 8.38881e-19)
(0.00398983 -0.0196654 -4.27635e-19)
(0.0205553 -0.0123453 2.9157e-20)
(0.0405046 -0.00377476 1.29839e-19)
(0.062801 0.00517474 -1.16055e-19)
(0.0868153 0.0137117 1.47765e-19)
(0.112109 0.02075 5.03115e-19)
(0.136559 0.0254616 1.07987e-19)
(-0.00758802 -0.014093 -1.54549e-19)
(-0.0137214 -0.0247052 -1.53802e-19)
(-0.0134802 -0.0257369 -6.5696e-19)
(-0.00798919 -0.0215359 3.38259e-19)
(0.00165554 -0.0144977 -6.7742e-19)
(0.0144933 -0.00609675 1.4994e-19)
(0.0297661 0.00263466 1.64801e-19)
(0.0469279 0.0107853 -1.70769e-19)
(0.0654467 0.0173515 -1.08535e-19)
(0.0837317 0.0215947 -3.98277e-19)
(-0.00618931 -0.0128868 1.20778e-19)
(-0.012956 -0.0232855 -2.54156e-20)
(-0.0160166 -0.0247913 4.83769e-22)
(-0.0151828 -0.021357 -3.05328e-19)
(-0.0108713 -0.0152238 7.50398e-19)
(-0.003675 -0.00781515 -1.14047e-19)
(0.00586239 -0.000156789 -2.78218e-19)
(0.0172625 0.00689516 3.33736e-19)
(0.0299831 0.0125251 -1.15211e-19)
(0.0428973 0.0161301 5.1804e-19)
(-0.00472517 -0.010875 -2.2673e-20)
(-0.011412 -0.0200787 -1.18906e-19)
(-0.0166384 -0.021735 -4.51652e-20)
(-0.0191677 -0.0191568 -5.57878e-20)
(-0.018869 -0.0142634 -1.16439e-19)
(-0.0160407 -0.00829391 -3.56317e-19)
(-0.0110559 -0.00214534 4.3565e-19)
(-0.00432413 0.00347078 2.49438e-19)
(0.00364229 0.00794437 -4.38889e-20)
(0.0120697 0.0108166 -3.16696e-19)
(-0.00343643 -0.00822854 1.28763e-19)
(-0.00973169 -0.0154206 2.01212e-20)
(-0.016312 -0.0168957 1.31094e-19)
(-0.0211623 -0.0151439 -1.45176e-20)
(-0.0237395 -0.011629 1.12051e-19)
(-0.0241187 -0.00730368 1.23189e-19)
(-0.0225402 -0.00285541 1.80535e-19)
(-0.019349 0.0011911 -5.01215e-19)
(-0.015018 0.00441799 -9.08793e-20)
(-0.0100732 0.00650418 1.31699e-19)
(-0.00249029 -0.00512294 -6.50247e-20)
(-0.00837119 -0.00969129 -8.26666e-20)
(-0.0157291 -0.0107025 -3.82671e-20)
(-0.0220353 -0.00969889 1.80969e-19)
(-0.0264712 -0.00759514 8.52824e-20)
(-0.0289614 -0.00498872 1.7042e-20)
(-0.0296531 -0.00230883 -3.6112e-20)
(-0.0288421 0.000124989 -2.74564e-20)
(-0.026968 0.00207004 2.31514e-19)
(-0.0244022 0.00333625 -1.27276e-19)
(-0.00199185 -0.00173884 3.31504e-20)
(-0.00762065 -0.00330444 3.68926e-20)
(-0.0153308 -0.0036635 -3.02727e-20)
(-0.0223384 -0.00333808 -2.6771e-20)
(-0.0276873 -0.00263899 -2.69486e-20)
(-0.0312256 -0.00176958 -4.19014e-20)
(-0.033053 -0.000875535 1.31324e-21)
(-0.0334381 -6.39687e-05 5.5691e-20)
(-0.0328026 0.000585607 -5.49301e-20)
(-0.0314436 0.00101024 8.06064e-20)
(-0.00793466 -0.00257882 3.80207e-21)
(0.0617227 -0.00664437 2.31308e-21)
(0.278472 -0.006762 3.21351e-22)
(0.379023 -0.00439849 -2.17467e-22)
(0.48096 -0.00376642 -1.49626e-23)
(0.559641 -0.00267576 3.83221e-23)
(0.608991 -0.00229031 5.04438e-23)
(0.671784 -0.00165378 -1.14379e-23)
(0.690104 -0.00157585 -2.55521e-25)
(0.751228 -0.00122319 6.6199e-23)
(0.00887608 -0.00804122 6.03086e-21)
(0.0770036 -0.0197723 2.71649e-22)
(0.290002 -0.0201318 -4.17188e-21)
(0.387783 -0.0130922 3.43452e-21)
(0.487712 -0.0112172 2.2602e-22)
(0.564859 -0.00797307 -1.63446e-22)
(0.613299 -0.00683148 2.08568e-22)
(0.675126 -0.00493776 2.41342e-23)
(0.693058 -0.00471038 8.60614e-23)
(0.753426 -0.00365636 -6.09953e-23)
(0.0422019 -0.0143868 6.24826e-21)
(0.107089 -0.0324195 -8.47749e-21)
(0.31263 -0.0330403 4.2791e-21)
(0.404987 -0.0214849 -2.87255e-21)
(0.500979 -0.0184382 2.12894e-22)
(0.575128 -0.0131177 -1.70895e-22)
(0.621785 -0.0112565 -8.17992e-23)
(0.68172 -0.00814043 6.81005e-25)
(0.698897 -0.00777798 -6.88298e-23)
(0.757778 -0.0060461 -8.91777e-23)
(0.0914389 -0.0220943 -9.73578e-21)
(0.15105 -0.0442864 -1.18386e-20)
(0.345517 -0.0452007 -5.56401e-21)
(0.430028 -0.029393 2.99574e-21)
(0.5203 -0.0252881 -3.76282e-21)
(0.590121 -0.0180156 1.0361e-21)
(0.6342 -0.0154929 -6.6396e-23)
(0.691394 -0.011211 4.60528e-23)
(0.707482 -0.0107363 -7.35484e-23)
(0.764198 -0.00836461 3.29905e-23)
(0.155653 -0.0314382 2.73315e-20)
(0.207555 -0.0550856 1.73869e-20)
(0.387465 -0.0563487 6.33839e-21)
(0.462034 -0.0366541 -5.90481e-21)
(0.545018 -0.0316412 3.12932e-21)
(0.60937 -0.0225835 8.56795e-22)
(0.650183 -0.0194756 6.81891e-22)
(0.703897 -0.0141036 8.7246e-23)
(0.718615 -0.0135463 1.8598e-22)
(0.772562 -0.0105857 -1.74627e-22)
(0.233558 -0.0423582 -1.22824e-20)
(0.274918 -0.0645075 9.42556e-21)
(0.436982 -0.0662325 1.17844e-21)
(0.499921 -0.0431258 6.71994e-21)
(0.574317 -0.0373897 -1.55442e-21)
(0.632292 -0.0267505 -1.02193e-21)
(0.669283 -0.0231484 -7.06234e-22)
(0.718913 -0.0167789 -6.33126e-23)
(0.732043 -0.016173 -8.75687e-23)
(0.782709 -0.0126856 1.83314e-22)
(0.323519 -0.0545868 -9.55201e-21)
(0.351163 -0.0722905 -2.50624e-20)
(0.492359 -0.0746501 -4.31541e-21)
(0.542449 -0.0486933 -3.77458e-21)
(0.607269 -0.0424497 1.87538e-21)
(0.658218 -0.0304607 -5.45212e-22)
(0.690982 -0.0264659 7.32232e-22)
(0.736075 -0.0192043 1.54089e-22)
(0.747471 -0.0185873 -2.45814e-23)
(0.794448 -0.0146425 7.06356e-23)