1.45 	0 	0 	-0.291427
2.35 	0 	0 	-0.12669
