1.45 	0 	0 	-0.00138247 	-0.00315766 	3.9731e-21
2.35 	0 	0 	0.0869841 	-0.00752413 	2.2842e-21
