1.45 	0 	0 	-0.298388
2.35 	0 	0 	-0.132418
