/*--------------------------------*- C++ -*----------------------------------*\
  =========                 |
  \\      /  F ield         | OpenFOAM: The Open Source CFD Toolbox
   \\    /   O peration     | Website:  https://openfoam.org
    \\  /    A nd           | Version:  6.0
     \\/     M anipulation  |
\*---------------------------------------------------------------------------*/
FoamFile
{
    version     2.0;
    format      ascii;
    class       volVectorField;
    location    "28";
    object      U;
}
// * * * * * * * * * * * * * * * * * * * * * * * * * * * * * * * * * * * * * //

dimensions      [0 1 -1 0 0 0 0];

internalField   nonuniform List<vector> 
34500
(
(0.999998 -1.7939e-06 -4.62946e-17)
(0.999976 1.88125e-05 -8.12982e-18)
(0.99992 1.46753e-05 1.42233e-16)
(0.999833 -5.01417e-05 -1.07737e-16)
(0.999746 -0.000153116 3.35875e-17)
(0.999673 -0.000259464 -1.01538e-16)
(0.999623 -0.000362311 -1.01021e-16)
(0.999587 -0.000472984 8.65834e-17)
(0.999574 -0.000593082 1.07269e-16)
(0.999582 -0.000722557 -6.83184e-16)
(0.999621 -0.000841173 -1.04045e-15)
(0.999681 -0.000966354 1.26836e-16)
(0.999757 -0.00105007 4.34049e-16)
(1.00007 -0.00130417 -2.07263e-16)
(0.99641 -0.00307936 7.70551e-17)
(0.999997 3.16112e-05 3.2421e-17)
(0.999949 6.71471e-05 9.75748e-17)
(0.999826 1.39454e-05 7.17563e-17)
(0.999657 -0.000157283 -3.02418e-16)
(0.999506 -0.000365186 -5.0628e-16)
(0.999389 -0.00054745 -5.50836e-17)
(0.999307 -0.000719767 2.55609e-16)
(0.999248 -0.000914681 -6.77416e-16)
(0.999226 -0.00113883 -1.78662e-16)
(0.999248 -0.00138221 6.81542e-16)
(0.999329 -0.00160055 1.26223e-15)
(0.999456 -0.00181714 -6.29139e-16)
(0.99957 -0.00195298 -9.84082e-16)
(1.00034 -0.00223972 -3.94752e-16)
(0.996055 -0.00402729 5.24684e-16)
(1 7.41695e-05 1.0459e-17)
(0.999957 9.65324e-05 -1.22832e-16)
(0.99983 -6.11291e-06 -1.2517e-16)
(0.999663 -0.000227201 4.55983e-16)
(0.999526 -0.000450417 -2.86385e-17)
(0.999434 -0.000612929 -1.64122e-16)
(0.999378 -0.000752737 9.7856e-17)
(0.999343 -0.000912622 3.84652e-16)
(0.999336 -0.00111144 2.47672e-19)
(0.999368 -0.0013367 -3.92973e-16)
(0.999451 -0.00153765 -7.27991e-16)
(0.999589 -0.00172049 4.13633e-16)
(0.999652 -0.00182651 2.24776e-16)
(1.00051 -0.00193743 1.64428e-16)
(0.997579 -0.00257185 -2.4588e-16)
(1.00001 0.000113167 -1.73405e-17)
(0.999972 0.000101481 -9.01248e-18)
(0.999851 -4.93757e-05 4.83157e-17)
(0.999693 -0.000298749 -3.05576e-16)
(0.999566 -0.00052032 3.72507e-16)
(0.999492 -0.000660994 3.30114e-16)
(0.999459 -0.000771881 -3.99575e-16)
(0.999452 -0.000894993 -4.19933e-16)
(0.999463 -0.00106093 4.34945e-16)
(0.999504 -0.00126118 -4.70443e-16)
(0.999582 -0.00144914 -2.44351e-16)
(0.999719 -0.00161948 -3.85211e-16)
(0.999728 -0.00173567 5.4211e-16)
(1.0005 -0.00175451 -4.79718e-17)
(0.998493 -0.00208081 2.15484e-17)
(1.00001 0.000144148 -1.70288e-17)
(0.999983 8.8219e-05 1.53197e-16)
(0.999861 -0.000106141 6.95355e-17)
(0.999696 -0.000375757 1.69857e-16)
(0.999558 -0.000601356 4.67766e-17)
(0.99948 -0.00074316 -1.58322e-16)
(0.999451 -0.000857116 1.02551e-16)
(0.999461 -0.000975054 2.66323e-16)
(0.999494 -0.00113074 -4.1764e-16)
(0.999553 -0.00131939 -2.30899e-16)
(0.999638 -0.00150331 1.00626e-15)
(0.999786 -0.00167634 6.34023e-16)
(0.999772 -0.00181005 -2.89608e-16)
(1.00042 -0.00178274 5.92118e-16)
(0.999008 -0.00193112 -5.89905e-16)
(1.00001 0.000165833 1.83363e-17)
(0.999993 6.46714e-05 -9.47315e-17)
(0.999872 -0.000162008 -1.86298e-16)
(0.9997 -0.000440774 -5.29552e-17)
(0.999546 -0.00066915 1.09487e-16)
(0.999456 -0.000821387 -1.0887e-16)
(0.999421 -0.00095357 1.48203e-16)
(0.99944 -0.00108431 1.31194e-16)
(0.999494 -0.00123976 2.90983e-16)
(0.99958 -0.00141409 -1.00175e-16)
(0.999684 -0.00157793 2.79743e-18)
(0.999853 -0.00172977 -3.89137e-16)
(0.99984 -0.00184969 1.83086e-17)
(1.00036 -0.00176218 -4.68732e-16)
(0.999373 -0.00161798 7.43993e-17)
(1 0.000178288 3.25256e-18)
(1.00001 3.6859e-05 -3.55518e-17)
(0.999892 -0.000208475 -2.8999e-17)
(0.99972 -0.000484872 1.7579e-16)
(0.999559 -0.000710236 -2.20572e-16)
(0.999461 -0.000871065 2.75597e-16)
(0.999417 -0.00102338 -6.19351e-16)
(0.999435 -0.00117642 -3.69846e-16)
(0.999501 -0.00134235 -1.51581e-16)
(0.999611 -0.00150728 6.71243e-16)
(0.999737 -0.00164535 -7.6812e-16)
(0.99993 -0.00176001 2.97968e-16)
(0.999932 -0.00184751 4.5611e-16)
(1.00033 -0.00169256 -9.58186e-17)
(0.999635 -0.00131133 -1.20969e-16)
(0.999997 0.000182639 1.51026e-17)
(1.00002 8.79707e-06 3.2258e-17)
(0.999919 -0.000243074 2.50271e-17)
(0.999757 -0.000508964 -1.50893e-16)
(0.9996 -0.000726533 3.28951e-16)
(0.999502 -0.000889569 -1.39597e-16)
(0.999453 -0.00105547 2.01623e-16)
(0.999463 -0.00123239 -1.46197e-16)
(0.99953 -0.00141955 3.97485e-16)
(0.999652 -0.00158979 1.77701e-16)
(0.999794 -0.00171341 2.4469e-16)
(1.00001 -0.00179504 -5.65264e-17)
(1.00003 -0.00184784 -5.04603e-16)
(1.00035 -0.00162922 1.1382e-15)
(0.999854 -0.00106984 1.86756e-16)
(0.999988 0.000180634 -1.12058e-17)
(1.00003 -1.67947e-05 9.88481e-17)
(0.999948 -0.000266203 1.50701e-16)
(0.999802 -0.000518067 1.11905e-16)
(0.99966 -0.000725849 -4.88722e-16)
(0.999578 -0.000882793 1.41003e-16)
(0.999536 -0.00104765 3.20691e-16)
(0.999542 -0.0012358 7.7233e-16)
(0.999603 -0.00144093 -3.85336e-16)
(0.999726 -0.00162277 8.99691e-17)
(0.999872 -0.00174248 4.48865e-16)
(1.00009 -0.00180053 -3.23653e-16)
(1.00015 -0.0018216 -1.54019e-16)
(1.00039 -0.0015479 -3.80946e-16)
(1.00006 -0.000833941 8.408e-17)
(0.999978 0.000174372 4.06473e-17)
(1.00004 -3.86931e-05 -8.96365e-17)
(0.999974 -0.000280495 8.83494e-18)
(0.999846 -0.000519571 -1.10153e-16)
(0.999723 -0.000720531 4.10592e-16)
(0.999668 -0.000867371 7.95988e-17)
(0.99965 -0.00101629 2.7008e-16)
(0.999666 -0.00119444 -5.72826e-16)
(0.999726 -0.00139968 4.1572e-17)
(0.999846 -0.00158455 -7.8713e-17)
(0.999987 -0.00170115 -1.39737e-16)
(1.00021 -0.00174268 4.41452e-17)
(1.00027 -0.00174065 5.92234e-16)
(1.00046 -0.00143133 -8.04283e-16)
(1.00024 -0.000607145 -2.69255e-16)
(0.999966 0.000165946 -2.61973e-17)
(1.00004 -5.66144e-05 3.52085e-17)
(0.999989 -0.000289333 -1.474e-16)
(0.999875 -0.000521434 2.49829e-16)
(0.999767 -0.000725021 -3.61468e-16)
(0.999739 -0.000868459 -3.02943e-16)
(0.999754 -0.00099852 -3.38705e-16)
(0.999795 -0.0011526 3.91435e-17)
(0.999866 -0.00133947 -8.13487e-17)
(0.999987 -0.00151302 -4.24233e-16)
(1.00012 -0.00162146 -7.20751e-16)
(1.00033 -0.00165115 2.85696e-16)
(1.0004 -0.00163794 -3.28402e-16)
(1.00055 -0.00131785 9.07007e-16)
(1.00038 -0.000434757 5.37159e-17)
(0.999954 0.000157278 -2.45303e-17)
(1.00003 -7.09653e-05 -1.04108e-16)
(0.999991 -0.000295505 1.50593e-16)
(0.999883 -0.000527819 -2.34043e-16)
(0.999778 -0.000746803 7.68573e-17)
(0.999764 -0.000903511 4.53983e-16)
(0.999807 -0.00102782 5.5354e-17)
(0.999881 -0.00116044 -6.7266e-17)
(0.999976 -0.00132189 1.81398e-16)
(1.00011 -0.00147414 -1.56738e-16)
(1.00024 -0.00156829 -9.49599e-17)
(1.00044 -0.00158665 -6.67704e-17)
(1.00052 -0.00156772 -2.87098e-16)
(1.00064 -0.00124902 -6.21325e-16)
(1.0005 -0.000327486 1.24248e-17)
(0.999941 0.000149809 -2.17448e-18)
(1.00001 -8.23177e-05 1.40327e-16)
(0.999986 -0.000299893 -2.21296e-16)
(0.999879 -0.000536749 8.33516e-17)
(0.999766 -0.00078004 -9.35034e-17)
(0.999748 -0.000967409 -1.54686e-16)
(0.999805 -0.00110739 -3.88703e-17)
(0.999908 -0.00123455 3.64765e-16)
(1.00003 -0.00137608 -6.29709e-16)
(1.00018 -0.00150428 4.19952e-16)
(1.00033 -0.00157827 2.20386e-16)
(1.00052 -0.00157979 1.83954e-16)
(1.00062 -0.00154837 7.49411e-16)
(1.00072 -0.00122378 7.29929e-16)
(1.00061 -0.000257276 5.4769e-16)
(0.999925 0.00014441 8.29497e-18)
(0.999993 -9.17269e-05 5.28132e-17)
(0.999981 -0.000302775 1.75881e-16)
(0.999881 -0.000542479 5.5716e-17)
(0.999759 -0.000809138 1.70559e-16)
(0.999725 -0.00103513 1.67953e-16)
(0.99978 -0.00120805 -1.18404e-17)
(0.9999 -0.0013481 4.92539e-17)
(1.00005 -0.0014811 9.36921e-16)
(1.00023 -0.00158746 -1.13814e-16)
(1.00039 -0.00163654 5.41762e-16)
(1.00059 -0.00161236 -7.38616e-16)
(1.0007 -0.00155559 1.36896e-16)
(1.0008 -0.0012096 -1.34442e-15)
(1.00074 -0.00019448 -6.15107e-16)
(0.999907 0.000141253 9.92994e-18)
(0.999973 -0.000100627 -1.17541e-16)
(0.999984 -0.00030515 1.54614e-16)
(0.999906 -0.000541052 -2.23908e-16)
(0.999788 -0.000819674 1.56711e-16)
(0.999737 -0.00107816 2.06696e-17)
(0.999779 -0.00128875 1.94858e-16)
(0.999903 -0.00145313 -2.59791e-16)
(1.00007 -0.00158801 -8.38295e-16)
(1.00027 -0.00167725 2.49044e-16)
(1.00045 -0.00170006 -5.59766e-16)
(1.00066 -0.0016448 1.12793e-16)
(1.00079 -0.00155517 -4.90209e-16)
(1.00088 -0.00118097 2.65679e-16)
(1.00085 -0.000135939 -1.08212e-16)
(0.999883 0.000140066 3.32061e-17)
(0.999952 -0.000110882 7.18022e-17)
(0.999993 -0.00031005 -3.58544e-16)
(0.999956 -0.000534166 2.88075e-16)
(0.999861 -0.000807819 -2.79682e-16)
(0.999806 -0.00108189 -3.72636e-16)
(0.999833 -0.00132198 -3.82588e-16)
(0.999951 -0.00151198 3.37267e-16)
(1.00013 -0.00165483 7.18164e-16)
(1.00034 -0.00173313 1.62827e-16)
(1.00053 -0.00173395 9.46347e-17)
(1.00074 -0.00165096 7.00686e-17)
(1.00088 -0.00153346 -7.32703e-16)
(1.00097 -0.00114004 6.44058e-17)
(1.00092 -0.000101326 6.30918e-16)
(0.999854 0.000140276 -8.95728e-17)
(0.999926 -0.000124057 -9.22893e-17)
(1 -0.000321649 3.42459e-17)
(1.00002 -0.000529627 -2.64034e-16)
(0.999966 -0.000783206 -1.79079e-17)
(0.999923 -0.00105286 4.81055e-16)
(0.999943 -0.00130697 5.50449e-17)
(1.00005 -0.00151635 3.03648e-16)
(1.00022 -0.00166927 -6.02159e-16)
(1.00044 -0.00174383 -3.09343e-16)
(1.00062 -0.00173259 4.44119e-16)
(1.00083 -0.00163419 -1.48907e-16)
(1.00097 -0.00150453 4.83539e-16)
(1.00105 -0.00111168 7.49185e-16)
(1.00096 -0.000115134 -5.96798e-17)
(0.999818 0.000141383 2.80612e-17)
(0.999892 -0.000141087 1.14614e-17)
(0.999995 -0.000344012 1.15483e-16)
(1.00007 -0.000537845 2.25875e-18)
(1.00007 -0.000764054 9.874e-17)
(1.00006 -0.00101424 -2.89249e-16)
(1.00008 -0.00126694 5.9733e-16)
(1.00018 -0.00148658 -1.53363e-16)
(1.00034 -0.00164931 6.51587e-16)
(1.00054 -0.00172755 -3.40868e-16)
(1.00072 -0.00171704 -5.4284e-16)
(1.00091 -0.00161978 5.24015e-16)
(1.00106 -0.00149688 -8.838e-16)
(1.00112 -0.00112395 -1.30156e-15)
(1.00095 -0.000188637 -3.28513e-16)
(0.999778 0.000143024 3.12428e-18)
(0.999847 -0.000161709 1.94772e-17)
(0.999963 -0.00037911 -3.11836e-17)
(1.00008 -0.000567742 1.58466e-16)
(1.00014 -0.000769558 1.08658e-16)
(1.00017 -0.000994806 -4.26036e-17)
(1.00021 -0.00123623 -3.60052e-16)
(1.00031 -0.0014584 -3.4708e-16)
(1.00045 -0.00162976 -2.34621e-16)
(1.00064 -0.00171775 4.32339e-16)
(1.00081 -0.00171949 3.35031e-16)
(1.00098 -0.00163784 -4.92677e-16)
(1.00113 -0.00153548 1.09485e-15)
(1.00119 -0.00119236 1.37149e-15)
(1.00093 -0.000313983 4.62268e-17)
(0.999735 0.000145161 3.57277e-17)
(0.999789 -0.000184718 -4.75525e-17)
(0.999901 -0.000426235 2.29224e-16)
(1.00004 -0.000623097 -4.56311e-17)
(1.00015 -0.000812411 -1.74148e-16)
(1.00022 -0.00101748 7.38119e-17)
(1.00029 -0.00124533 -1.29483e-16)
(1.00039 -0.00146567 2.92991e-16)
(1.00053 -0.00164418 7.70224e-17)
(1.00071 -0.00174516 5.38495e-17)
(1.00087 -0.00176587 -2.56936e-16)
(1.00103 -0.00170744 3.4112e-16)
(1.00117 -0.00162972 1.73934e-16)
(1.00125 -0.00131352 1.55346e-16)
(1.00092 -0.000468184 3.92505e-16)
(0.999691 0.000147915 -1.83673e-17)
(0.999723 -0.000208101 2.72198e-17)
(0.999812 -0.000481794 -3.71614e-16)
(0.999953 -0.000701669 -2.37734e-16)
(1.00009 -0.000895442 3.28891e-16)
(1.00021 -0.00109247 -8.9006e-17)
(1.00031 -0.0013111 5.19926e-16)
(1.00042 -0.00152872 -1.41125e-16)
(1.00057 -0.00171254 -7.48237e-18)
(1.00074 -0.00182603 -1.49736e-16)
(1.00089 -0.00186605 3.84557e-16)
(1.00105 -0.00182992 -2.42433e-16)
(1.00121 -0.0017709 -7.9716e-16)
(1.00131 -0.00146844 -1.89669e-16)
(1.00094 -0.000621746 -4.48373e-16)
(0.999651 0.000151567 2.47248e-17)
(0.999652 -0.000229815 1.12478e-16)
(0.999704 -0.000540663 3.34996e-16)
(0.999826 -0.000796023 2.59954e-16)
(0.999975 -0.00101172 -3.19838e-17)
(1.00012 -0.00121606 -1.30117e-16)
(1.00025 -0.00143364 -5.75591e-16)
(1.0004 -0.00164986 -6.68957e-17)
(1.00055 -0.00183657 -3.41901e-16)
(1.00073 -0.00195865 1.10753e-16)
(1.00088 -0.00201258 -7.04909e-16)
(1.00105 -0.00199082 3.4007e-16)
(1.00123 -0.00193787 1.14838e-15)
(1.00138 -0.00163096 -8.84878e-16)
(1.00101 -0.000748737 5.22532e-16)
(0.999616 0.000156319 -1.99369e-17)
(0.999582 -0.000248044 -1.58264e-16)
(0.999591 -0.000597121 -1.9175e-16)
(0.999678 -0.000896002 -9.56396e-17)
(0.999822 -0.0011477 -6.11974e-17)
(0.999988 -0.00137359 8.40088e-17)
(1.00015 -0.00159902 -3.21959e-17)
(1.00032 -0.00181595 -4.41911e-16)
(1.0005 -0.00200254 -1.30099e-16)
(1.00069 -0.0021269 -3.27266e-17)
(1.00086 -0.00218565 6.41654e-16)
(1.00105 -0.00216648 1.07334e-16)
(1.00126 -0.00210476 -9.548e-16)
(1.00145 -0.00177594 5.06362e-16)
(1.00112 -0.000831668 -1.01163e-16)
(0.999586 0.000162276 1.80079e-17)
(0.999519 -0.000261812 9.30562e-17)
(0.999485 -0.000646521 9.23039e-17)
(0.999532 -0.000991301 1.79545e-16)
(0.999658 -0.00128743 -9.77866e-17)
(0.999834 -0.00154518 -2.75198e-17)
(1.00002 -0.0017856 1.98639e-16)
(1.00022 -0.00200488 2.96725e-16)
(1.00043 -0.00218801 -2.14368e-17)
(1.00064 -0.00230762 -3.58232e-16)
(1.00084 -0.00236118 -2.75353e-16)
(1.00105 -0.0023326 -4.84031e-16)
(1.00129 -0.00224927 2.03178e-17)
(1.00153 -0.00188593 2.6212e-16)
(1.00128 -0.000865122 -1.58056e-16)
(0.999562 0.000169292 -9.62962e-18)
(0.999467 -0.000270825 -5.5067e-17)
(0.999399 -0.000685667 1.40187e-16)
(0.999406 -0.00107364 1.47207e-17)
(0.999509 -0.00141625 -1.24535e-16)
(0.999687 -0.00171074 1.0038e-16)
(0.999898 -0.00197015 -4.79227e-17)
(1.00013 -0.0021924 2.737e-16)
(1.00036 -0.00236889 5.05584e-16)
(1.0006 -0.00247743 7.8495e-17)
(1.00083 -0.00251721 2.37633e-16)
(1.00106 -0.00246975 2.41864e-16)
(1.00134 -0.0023565 5.97196e-17)
(1.00161 -0.00195268 -5.39416e-16)
(1.00146 -0.000853013 1.30241e-16)
(0.999542 0.000177032 1.28953e-17)
(0.999428 -0.000275703 1.1599e-17)
(0.999336 -0.000713587 -2.8639e-16)
(0.999313 -0.00113802 -1.25153e-16)
(0.999394 -0.0015237 1.75944e-16)
(0.99957 -0.00185462 -2.74584e-17)
(0.999795 -0.00213363 1.83605e-16)
(1.00005 -0.00235831 -2.43767e-16)
(1.00031 -0.00252562 1.38945e-16)
(1.00058 -0.00261872 1.15532e-16)
(1.00083 -0.00263908 1.21919e-16)
(1.00109 -0.00256737 1.55134e-16)
(1.0014 -0.00242129 2.15635e-16)
(1.00171 -0.00197748 3.03456e-17)
(1.00166 -0.000806427 7.65489e-17)
(0.999523 0.000184958 -3.96781e-17)
(0.999401 -0.00027746 1.05006e-16)
(0.999301 -0.000730921 1.64423e-16)
(0.999258 -0.00118298 -1.05284e-16)
(0.999323 -0.00160436 -6.84491e-17)
(0.999494 -0.00196712 3.89498e-17)
(0.999729 -0.0022635 -2.00017e-16)
(1 -0.0024893 -1.30836e-16)
(1.00028 -0.00264594 -1.71823e-16)
(1.00058 -0.00272161 2.72998e-16)
(1.00086 -0.00272042 -3.7868e-16)
(1.00115 -0.00262341 2.95681e-16)
(1.00148 -0.00244638 1.44799e-16)
(1.00182 -0.00196804 5.41358e-16)
(1.00186 -0.000738951 -4.93256e-16)
(0.999503 0.000192465 1.6741e-17)
(0.999385 -0.000277557 -7.90357e-17)
(0.999288 -0.000739902 5.78702e-17)
(0.99924 -0.00121014 1.28081e-16)
(0.999296 -0.00165787 -8.87887e-17)
(0.999463 -0.00204542 -1.50042e-16)
(0.999705 -0.00235512 -7.10247e-17)
(0.999991 -0.00258037 9.78558e-17)
(1.00029 -0.00272604 -4.47435e-16)
(1.00061 -0.00278477 6.59638e-17)
(1.00091 -0.00276313 2.51551e-16)
(1.00122 -0.0026434 -7.02931e-16)
(1.00158 -0.00244077 1.41868e-16)
(1.00193 -0.00193614 2.16531e-17)
(1.00206 -0.000666059 3.63567e-16)
(0.999481 0.000198933 -6.36434e-18)
(0.999375 -0.000277309 9.68356e-17)
(0.999294 -0.000743304 -9.36187e-17)
(0.999252 -0.00122327 -5.81213e-17)
(0.999307 -0.00168772 -9.26499e-17)
(0.999473 -0.00209193 -4.89746e-17)
(0.999718 -0.00241015 -1.05632e-16)
(1.00001 -0.00263335 7.54032e-17)
(1.00033 -0.00276896 2.9046e-17)
(1.00066 -0.00281318 -3.09726e-16)
(1.00098 -0.00277467 -3.69367e-16)
(1.0013 -0.00263719 4.0968e-16)
(1.00168 -0.00241604 -3.57533e-16)
(1.00205 -0.00189421 -1.13754e-16)
(1.00224 -0.000599239 -1.11599e-17)
(0.999453 0.000203872 -1.9255e-17)
(0.999369 -0.000278004 -4.47434e-17)
(0.999312 -0.000744256 3.15906e-17)
(0.999286 -0.00122715 2.25219e-16)
(0.999347 -0.0016998 3.76195e-16)
(0.999516 -0.00211305 3.07075e-16)
(0.999762 -0.00243517 3.35401e-16)
(1.00006 -0.0026553 -2.13902e-16)
(1.00038 -0.00278269 1.33108e-19)
(1.00072 -0.00281619 2.31856e-16)
(1.00106 -0.00276579 4.56825e-17)
(1.0014 -0.00261661 2.51623e-16)
(1.00179 -0.00238421 2.02187e-16)
(1.00217 -0.00185338 -5.29116e-16)
(1.00241 -0.000548074 -3.45631e-16)
(0.999421 0.000206933 9.90733e-18)
(0.999362 -0.000280457 -8.08384e-17)
(0.999333 -0.000745392 -1.61725e-16)
(0.999329 -0.00122672 -1.58828e-16)
(0.999404 -0.00170093 1.4536e-17)
(0.999577 -0.00211686 -1.73322e-16)
(0.999826 -0.00243913 -3.77262e-16)
(1.00013 -0.00265588 2.87872e-16)
(1.00045 -0.00277759 2.34097e-16)
(1.0008 -0.00280477 -5.1594e-16)
(1.00115 -0.00274787 4.23121e-16)
(1.0015 -0.00259296 -3.08439e-16)
(1.00191 -0.00235561 -1.42148e-16)
(1.00229 -0.00182217 -1.2409e-16)
(1.00257 -0.000517309 1.47271e-16)
(0.999385 0.000208005 3.77073e-17)
(0.999353 -0.000285265 1.73436e-17)
(0.999351 -0.000748901 8.74638e-17)
(0.999374 -0.00122625 4.06028e-17)
(0.999466 -0.00169765 4.77328e-17)
(0.999647 -0.00211178 2.99595e-16)
(0.999897 -0.0024317 -1.35283e-16)
(1.0002 -0.00264544 1.47812e-16)
(1.00053 -0.00276435 8.48778e-17)
(1.00088 -0.00278965 5.92018e-17)
(1.00124 -0.00273129 1.96889e-16)
(1.0016 -0.0025757 -4.19861e-17)
(1.00203 -0.00233808 9.3321e-18)
(1.00242 -0.00180616 8.65691e-16)
(1.00272 -0.0005092 2.74365e-18)
(0.999346 0.000207154 -3.65997e-17)
(0.999338 -0.000292519 -1.26366e-17)
(0.999362 -0.000756071 5.7161e-17)
(0.999412 -0.00122906 -1.74309e-16)
(0.999523 -0.00169546 -2.79197e-16)
(0.999714 -0.00210519 -2.67484e-16)
(0.999968 -0.0024216 2.26614e-16)
(1.00027 -0.00263343 -8.29035e-17)
(1.0006 -0.00275249 9.64519e-18)
(1.00097 -0.00277986 -4.94672e-18)
(1.00133 -0.00272417 -2.72089e-16)
(1.00171 -0.00257159 -2.45781e-16)
(1.00215 -0.0023365 -1.58481e-16)
(1.00255 -0.0018081 2.39609e-17)
(1.00286 -0.000522651 -5.39281e-17)
(0.999305 0.000204656 -1.82696e-17)
(0.999316 -0.000302156 4.83402e-17)
(0.999363 -0.000767592 4.75497e-17)
(0.999437 -0.00123719 7.7402e-17)
(0.999568 -0.00169826 1.0585e-16)
(0.99977 -0.00210286 1.67258e-18)
(1.00003 -0.00241586 2.26383e-16)
(1.00034 -0.00262731 -5.04681e-16)
(1.00067 -0.00274928 2.57266e-16)
(1.00104 -0.00278198 2.62391e-16)
(1.00142 -0.00273194 -3.75292e-16)
(1.00181 -0.00258454 7.00776e-16)
(1.00227 -0.00235302 3.68862e-16)
(1.00268 -0.00182812 -6.86583e-16)
(1.003 -0.000555257 -2.03327e-16)
(0.999263 0.000200879 3.77802e-17)
(0.999287 -0.000313762 2.93224e-17)
(0.999353 -0.000783404 4.56691e-18)
(0.999448 -0.00125165 -3.46889e-17)
(0.999597 -0.00170852 2.01051e-17)
(0.999812 -0.00210867 2.83797e-16)
(1.00008 -0.00241936 -4.57682e-17)
(1.00039 -0.00263239 3.23838e-16)
(1.00073 -0.00275972 -4.79606e-17)
(1.00111 -0.00280013 -2.90128e-16)
(1.00151 -0.00275747 6.00269e-16)
(1.00191 -0.00261602 -3.60249e-16)
(1.00239 -0.00238757 -4.87625e-16)
(1.00282 -0.0018648 2.05915e-16)
(1.00315 -0.000603057 3.42787e-16)
(0.999222 0.000196298 -3.14155e-17)
(0.999251 -0.000326938 -1.32432e-17)
(0.99933 -0.000803123 -1.72627e-16)
(0.999442 -0.00127246 -8.43476e-17)
(0.999609 -0.00172723 5.19247e-17)
(0.999836 -0.00212474 -2.86498e-16)
(1.00011 -0.00243499 -8.42075e-17)
(1.00043 -0.00265166 2.8213e-16)
(1.00079 -0.00278639 -2.38605e-16)
(1.00118 -0.00283607 6.99898e-17)
(1.00159 -0.00280147 -3.34251e-16)
(1.00201 -0.00266557 1.0504e-17)
(1.00252 -0.00243862 2.63913e-16)
(1.00296 -0.00191558 1.38695e-16)
(1.00329 -0.000662471 -5.38257e-17)
(0.999181 0.000191355 2.9968e-17)
(0.999209 -0.000341117 -9.71978e-17)
(0.999296 -0.000825989 8.15839e-17)
(0.999422 -0.00129912 5.33963e-17)
(0.999604 -0.00175443 -4.02602e-17)
(0.999844 -0.00215176 -1.72039e-16)
(1.00013 -0.00246393 5.21492e-17)
(1.00046 -0.0026864 -1.29369e-16)
(1.00083 -0.00283012 -2.18025e-16)
(1.00124 -0.00288987 -2.72164e-17)
(1.00167 -0.00286308 -4.82918e-16)
(1.00211 -0.00273145 4.94159e-16)
(1.00264 -0.00250376 3.84102e-17)
(1.0031 -0.00197765 -7.9199e-17)
(1.00344 -0.000729517 -7.67176e-18)
(0.999141 0.000186492 -3.67543e-17)
(0.999163 -0.000355893 1.00052e-16)
(0.999253 -0.000851256 -2.29812e-17)
(0.999389 -0.00133066 -2.09305e-16)
(0.999584 -0.00178936 -9.97146e-17)
(0.999837 -0.0021894 1.15816e-16)
(1.00014 -0.00250605 -1.69888e-16)
(1.00048 -0.00273633 -1.9027e-16)
(1.00087 -0.00289026 3.23741e-16)
(1.0013 -0.00296026 1.12653e-16)
(1.00175 -0.00294037 5.06682e-16)
(1.00222 -0.00281119 -3.811e-16)
(1.00277 -0.00258016 1.36919e-16)
(1.00325 -0.00204794 -1.54013e-16)
(1.0036 -0.000801176 5.11615e-18)
(0.999101 0.000182028 2.27483e-17)
(0.999112 -0.000370818 -5.78972e-17)
(0.999203 -0.000878118 7.19065e-17)
(0.999346 -0.00136611 3.11863e-16)
(0.999552 -0.00183103 1.32306e-16)
(0.999818 -0.00223668 8.2066e-17)
(1.00013 -0.00256044 3.37397e-16)
(1.00049 -0.00280041 1.60306e-16)
(1.0009 -0.00296536 -2.64e-16)
(1.00136 -0.00304528 4.49749e-16)
(1.00184 -0.00303096 2.50065e-16)
(1.00233 -0.00290207 -2.11661e-16)
(1.00291 -0.00266501 -4.04838e-16)
(1.00341 -0.00212377 -1.57154e-16)
(1.00377 -0.000874424 6.04497e-17)
(0.99906 0.000178223 4.67052e-18)
(0.999058 -0.00038568 -1.23339e-16)
(0.999148 -0.000906014 -9.15238e-17)
(0.999296 -0.00140448 -2.14717e-16)
(0.999511 -0.00187826 3.44768e-17)
(0.999791 -0.00229241 -3.33234e-16)
(1.00012 -0.00262577 -3.58177e-16)
(1.0005 -0.00287703 -1.44049e-16)
(1.00093 -0.00305349 3.06815e-16)
(1.00142 -0.00314271 -3.25868e-16)
(1.00192 -0.00313235 1.15169e-16)
(1.00244 -0.00300154 2.14155e-16)
(1.00305 -0.00275589 3.25132e-16)
(1.00357 -0.00220294 1.98223e-16)
(1.00394 -0.000947696 1.67622e-17)
(0.999019 0.000175197 3.2826e-17)
(0.999003 -0.000400265 2.01583e-16)
(0.99909 -0.000934478 9.38088e-17)
(0.999241 -0.0014451 1.80252e-16)
(0.999465 -0.00193008 1.07964e-16)
(0.999759 -0.00235536 4.55177e-17)
(1.00011 -0.00270059 5.24845e-17)
(1.00051 -0.00296453 -1.20543e-16)
(1.00097 -0.0031527 -1.22229e-16)
(1.00148 -0.00325032 1.43213e-17)
(1.00201 -0.00324223 -7.87198e-16)
(1.00256 -0.00310731 -3.07427e-16)
(1.0032 -0.00285075 3.23244e-16)
(1.00374 -0.00228386 -7.20228e-17)
(1.00412 -0.00101932 -1.98787e-16)
(0.998975 0.000173005 -4.41189e-17)
(0.998947 -0.000414607 -1.29173e-16)
(0.99903 -0.000963352 -1.85492e-16)
(0.999183 -0.00148744 6.09259e-17)
(0.999416 -0.00198572 -2.04839e-16)
(0.999724 -0.00242452 3.81554e-17)
(1.00009 -0.0027836 -4.71989e-17)
(1.00052 -0.00306129 -8.60637e-18)
(1.001 -0.00326115 -1.46033e-16)
(1.00154 -0.00336615 -7.65547e-17)
(1.00211 -0.00335861 2.71303e-17)
(1.00269 -0.00321754 2.66951e-16)
(1.00335 -0.00294805 -1.34583e-16)
(1.00391 -0.0023652 2.65366e-16)
(1.0043 -0.0010888 9.3477e-17)
(0.998929 0.000171591 2.35781e-17)
(0.99889 -0.000428722 1.2374e-16)
(0.998969 -0.00099258 2.35654e-16)
(0.999125 -0.00153134 -6.80814e-17)
(0.999367 -0.00204471 -1.65146e-17)
(0.999689 -0.00249907 2.49955e-16)
(1.00008 -0.00287369 2.12482e-16)
(1.00053 -0.00316594 -1.45543e-16)
(1.00104 -0.00337724 3.89873e-16)
(1.00162 -0.0034885 3.53641e-16)
(1.00221 -0.00347986 3.76011e-16)
(1.00282 -0.00333077 -1.73761e-17)
(1.00351 -0.00304657 -2.98276e-16)
(1.00409 -0.00244618 -3.1298e-16)
(1.00448 -0.00115521 -3.00571e-17)
(0.99888 0.000170873 -2.02029e-17)
(0.998832 -0.00044284 -6.53425e-17)
(0.998909 -0.00102238 -1.95311e-16)
(0.999068 -0.0015768 1.25672e-16)
(0.999318 -0.00210686 1.20553e-16)
(0.999657 -0.00257855 -1.67346e-16)
(1.00007 -0.00297007 -8.44657e-17)
(1.00054 -0.00327739 8.36742e-18)
(1.00109 -0.00349974 -1.73276e-16)
(1.00169 -0.00361612 -3.02992e-16)
(1.00232 -0.00360479 -5.58951e-16)
(1.00296 -0.00344604 6.03453e-17)
(1.00368 -0.00314565 3.64094e-16)
(1.00427 -0.00252633 3.29378e-16)
(1.00467 -0.0012189 -6.90505e-17)
(0.998827 0.000170699 -1.60748e-17)
(0.998775 -0.000457124 -1.31426e-17)
(0.998849 -0.00105298 1.70906e-16)
(0.999012 -0.0016241 -1.61234e-16)
(0.999273 -0.0021722 -3.18524e-16)
(0.999627 -0.00266265 1.54537e-16)
(1.00006 -0.00307213 8.76639e-17)
(1.00057 -0.00339482 4.05854e-16)
(1.00114 -0.00362766 5.80012e-17)
(1.00178 -0.00374797 2.82075e-16)
(1.00244 -0.0037325 8.37527e-16)
(1.00311 -0.00356262 -2.29762e-16)
(1.00384 -0.00324481 -9.75466e-17)
(1.00445 -0.00260553 -1.15215e-17)
(1.00486 -0.00127951 -2.74919e-17)
(0.998772 0.000170927 4.49556e-17)
(0.998718 -0.000471899 4.90973e-17)
(0.998791 -0.0010848 -1.4698e-16)
(0.998958 -0.00167356 1.36513e-16)
(0.999229 -0.00224091 -9.18487e-17)
(0.999602 -0.00275137 -2.95645e-16)
(1.00006 -0.00317956 1.29815e-17)
(1.00059 -0.00351764 -3.49143e-17)
(1.0012 -0.00376029 -2.15151e-16)
(1.00187 -0.00388337 1.81284e-16)
(1.00256 -0.00386239 -7.8169e-16)
(1.00325 -0.00368008 -1.42212e-17)
(1.00402 -0.00334382 -1.74177e-16)
(1.00464 -0.00268363 3.2476e-17)
(1.00505 -0.00133757 -8.14507e-17)
(0.998713 0.000171385 -1.1472e-17)
(0.99866 -0.000487381 -1.17002e-17)
(0.998733 -0.0011182 2.03394e-17)
(0.998906 -0.00172562 -1.51803e-16)
(0.999189 -0.0023133 -2.72289e-17)
(0.99958 -0.00284468 3.60988e-16)
(1.00006 -0.00329208 -2.63004e-16)
(1.00062 -0.0036454 -3.25666e-16)
(1.00126 -0.00389707 3.48623e-16)
(1.00196 -0.00402172 -3.15403e-16)
(1.00269 -0.00399399 3.99103e-16)
(1.00341 -0.00379809 3.7751e-16)
(1.00419 -0.00344249 2.71887e-16)
(1.00482 -0.00276063 -1.80776e-16)
(1.00524 -0.00139275 -6.13825e-17)
(0.998651 0.000171936 -1.23706e-17)
(0.998602 -0.000503899 -7.17733e-17)
(0.998676 -0.0011536 -9.66319e-17)
(0.998856 -0.0017807 7.09146e-17)
(0.999152 -0.00238968 1.79695e-16)
(0.999562 -0.00294275 6.2995e-17)
(1.00007 -0.0034096 2.44406e-16)
(1.00066 -0.00377779 5.34253e-17)
(1.00133 -0.00403761 -4.58345e-16)
(1.00207 -0.00416271 1.6033e-16)
(1.00282 -0.00412704 -2.26623e-16)
(1.00356 -0.00391654 -1.8825e-16)
(1.00436 -0.00354085 -2.53542e-16)
(1.00501 -0.00283661 4.00173e-17)
(1.00542 -0.00144574 1.48323e-16)
(0.998586 0.000172436 -1.89855e-17)
(0.998544 -0.000521633 3.41852e-17)
(0.99862 -0.00119133 4.12743e-17)
(0.998808 -0.00183919 -1.42123e-16)
(0.999118 -0.00247032 6.93459e-17)
(0.999548 -0.00304559 -2.1032e-16)
(1.00008 -0.00353195 -2.57638e-17)
(1.0007 -0.0039145 3.16147e-16)
(1.00141 -0.00418155 -2.01581e-16)
(1.00217 -0.00430594 -2.66467e-16)
(1.00295 -0.00426128 2.28834e-16)
(1.00372 -0.00403527 -6.79335e-17)
(1.00454 -0.00363887 -7.18266e-16)
(1.00519 -0.00291177 7.32107e-17)
(1.00561 -0.0014963 1.06697e-16)
(0.998519 0.000172779 -9.77037e-18)
(0.998484 -0.000540844 3.33398e-17)
(0.998564 -0.00123171 1.2566e-17)
(0.998761 -0.00190139 1.89522e-17)
(0.999086 -0.00255544 1.19645e-16)
(0.999536 -0.00315329 6.64673e-17)
(1.00009 -0.00365901 -2.18836e-16)
(1.00075 -0.00405528 -1.99918e-17)
(1.00148 -0.00432857 6.03782e-16)
(1.00228 -0.00445117 -1.93609e-16)
(1.00308 -0.00439653 -5.69768e-18)
(1.00387 -0.00415422 2.86185e-17)
(1.00471 -0.00373657 2.77268e-17)
(1.00537 -0.00298605 -5.07086e-17)
(1.00578 -0.00154498 1.68426e-17)
(0.998449 0.000172866 2.57507e-17)
(0.998424 -0.000561629 -6.80028e-17)
(0.998507 -0.0012749 -7.76581e-17)
(0.998714 -0.00196751 1.5658e-19)
(0.999055 -0.00264513 -1.80647e-16)
(0.999527 -0.00326574 -2.88361e-17)
(1.00011 -0.00379051 4.25019e-17)
(1.00079 -0.00419977 -4.81098e-17)
(1.00156 -0.0044783 -4.08741e-16)
(1.00238 -0.00459805 5.44111e-16)
(1.00322 -0.00453254 -3.10537e-17)
(1.00403 -0.0042732 -5.68635e-17)
(1.00489 -0.00383385 3.35193e-16)
(1.00555 -0.00305949 -3.75527e-16)
(1.00596 -0.00159133 7.91096e-18)
(0.998377 0.000172634 2.73217e-18)
(0.998362 -0.00058415 8.15738e-17)
(0.99845 -0.00132107 2.19207e-16)
(0.998668 -0.00203763 -5.52589e-17)
(0.999025 -0.00273938 1.17393e-16)
(0.99952 -0.00338282 -1.82339e-16)
(1.00013 -0.00392622 -2.18296e-16)
(1.00084 -0.00434763 5.23308e-18)
(1.00164 -0.00463042 2.37955e-16)
(1.00249 -0.00474635 -4.74868e-16)
(1.00335 -0.00466914 1.18259e-16)
(1.00419 -0.00439218 -2.05617e-17)
(1.00506 -0.00393071 2.5888e-16)
(1.00573 -0.00313209 7.99542e-17)
(1.00613 -0.00163599 -1.24085e-16)
(0.998303 0.00017203 1.04989e-18)
(0.998298 -0.000608398 -8.85277e-17)
(0.998392 -0.00137021 -1.25095e-16)
(0.998621 -0.00211172 2.07125e-17)
(0.998996 -0.00283804 -2.18082e-17)
(0.999513 -0.00350423 1.65523e-16)
(1.00015 -0.00406572 3.58429e-16)
(1.00089 -0.00449846 -3.17834e-16)
(1.00172 -0.00478451 3.61443e-16)
(1.0026 -0.00489568 3.19608e-17)
(1.00348 -0.00480607 7.08737e-17)
(1.00434 -0.00451098 -1.36917e-16)
(1.00522 -0.00402711 2.64358e-16)
(1.0059 -0.00320396 1.49723e-16)
(1.00629 -0.00167854 1.94953e-16)
(0.998226 0.000171029 -8.58476e-18)
(0.998232 -0.000634425 8.44401e-17)
(0.998333 -0.00142228 1.54066e-16)
(0.998574 -0.00218965 5.32296e-17)
(0.998966 -0.00294088 1.55612e-16)
(0.999506 -0.00362963 1.19478e-16)
(1.00017 -0.00420861 -3.2181e-16)
(1.00094 -0.00465179 6.44609e-16)
(1.0018 -0.00494018 -2.0278e-16)
(1.00271 -0.00504577 -6.74178e-17)
(1.00362 -0.00494313 -2.44058e-16)
(1.00449 -0.00462947 -1.07154e-16)
(1.00539 -0.00412295 -2.94181e-16)
(1.00607 -0.00327493 -1.08281e-16)
(1.00645 -0.00171949 4.68662e-17)
(0.998147 0.000169619 -3.04846e-17)
(0.998164 -0.000662129 -9.02935e-17)
(0.998271 -0.00147714 -1.08114e-17)
(0.998525 -0.00227117 1.05865e-16)
(0.998935 -0.00304752 -1.4162e-16)
(0.999499 -0.00375855 -1.03953e-16)
(1.00019 -0.00435435 4.02691e-16)
(1.00099 -0.00480711 -1.20284e-16)
(1.00188 -0.00509696 -5.1361e-16)
(1.00281 -0.0051962 7.06904e-17)
(1.00374 -0.00508001 -1.23883e-16)
(1.00464 -0.00474744 2.29238e-16)
(1.00555 -0.0042181 3.67183e-16)
(1.00624 -0.00334499 3.2684e-16)
(1.00661 -0.00175829 -2.73135e-16)
(0.998066 0.00016781 1.83091e-18)
(0.998094 -0.000691473 -1.74106e-17)
(0.998208 -0.0015346 -7.20841e-17)
(0.998475 -0.00235597 4.49151e-17)
(0.998904 -0.00315757 -7.85103e-17)
(0.999491 -0.0038905 1.3386e-16)
(1.00021 -0.00450244 -1.15702e-16)
(1.00104 -0.00496393 3.9655e-17)
(1.00195 -0.00525444 -1.07599e-16)
(1.00291 -0.00534671 2.73803e-16)
(1.00387 -0.00521654 3.3499e-16)
(1.00478 -0.00486481 1.93368e-18)
(1.0057 -0.0043125 -5.84314e-16)
(1.0064 -0.00341405 -3.97316e-16)
(1.00676 -0.00179555 2.70148e-16)