1.275 	2.15223e-18 	-2.76991e-20 	-0.0325025 	-0.000472464 	-2.04958e-22
1.825 	2.15223e-18 	-1.39322e-20 	-0.00713015 	-0.00307788 	1.80578e-21
2.375 	2.15223e-18 	-2.66896e-23 	0.137677 	-0.00403717 	-7.4103e-22
