1.45 	0 	0 	0.111415 	-0.0111348 	3.1748e-21
2.35 	0 	0 	0.397451 	-0.0133872 	-3.91626e-22
