1.275 	2.15223e-18 	-2.76991e-20 	-0.0343889 	-0.000443246 	-1.93288e-22
1.825 	2.15223e-18 	-1.39322e-20 	-0.0093303 	-0.00277512 	1.71723e-21
2.375 	2.15223e-18 	-2.66896e-23 	0.115685 	-0.00326192 	-7.16588e-22
