1.45 	0 	0 	-0.290767
2.35 	0 	0 	-0.126626
