1.45 	0 	0 	-0.00813532 	-0.00258559 	1.65342e-20
2.35 	0 	0 	0.0621195 	-0.00662709 	9.88731e-21
