1.45 	0 	0 	-0.291671
2.35 	0 	0 	-0.12699
