/*--------------------------------*- C++ -*----------------------------------*\
  =========                 |
  \\      /  F ield         | OpenFOAM: The Open Source CFD Toolbox
   \\    /   O peration     | Website:  https://openfoam.org
    \\  /    A nd           | Version:  6.0
     \\/     M anipulation  |
\*---------------------------------------------------------------------------*/
FoamFile
{
    version     2.0;
    format      ascii;
    class       volScalarField;
    location    "111";
    object      p;
}
// * * * * * * * * * * * * * * * * * * * * * * * * * * * * * * * * * * * * * //

dimensions      [0 2 -2 0 0 0 0];

internalField   nonuniform List<scalar> 
34500
(
1.00821
1.00858
1.0087
1.0086
1.00831
1.00789
1.00736
1.00675
1.00608
1.00539
1.00465
1.00399
1.00311
1.00276
1.00251
1.00822
1.00863
1.00884
1.00886
1.00872
1.00846
1.00808
1.00762
1.00707
1.00646
1.00575
1.00512
1.00413
1.00395
1.00348
1.00822
1.00862
1.00879
1.00876
1.00855
1.00821
1.00776
1.00723
1.00662
1.00598
1.00526
1.00465
1.00375
1.00385
1.00348
1.00822
1.00861
1.00875
1.00869
1.00843
1.00803
1.00752
1.00695
1.0063
1.00565
1.00494
1.00437
1.00359
1.00391
1.00386
1.00823
1.00862
1.00877
1.00872
1.00848
1.0081
1.0076
1.00704
1.00641
1.00578
1.00509
1.00455
1.00382
1.00424
1.00435
1.00824
1.00863
1.0088
1.00878
1.00856
1.0082
1.00774
1.0072
1.00659
1.00597
1.00529
1.00477
1.00407
1.00454
1.00472
1.00825
1.00865
1.00882
1.00881
1.0086
1.00826
1.0078
1.00726
1.00666
1.00605
1.00539
1.00488
1.00421
1.00472
1.00499
1.00826
1.00866
1.00884
1.00883
1.00863
1.00829
1.00783
1.0073
1.00669
1.00609
1.00544
1.00495
1.00433
1.00487
1.00524
1.00827
1.00867
1.00885
1.00885
1.00866
1.00832
1.00787
1.00734
1.00674
1.00614
1.0055
1.00504
1.00445
1.00502
1.00546
1.00829
1.00869
1.00887
1.00887
1.00869
1.00836
1.00792
1.0074
1.00681
1.00622
1.00559
1.00514
1.00459
1.00516
1.00564
1.0083
1.0087
1.00889
1.00889
1.00872
1.0084
1.00797
1.00745
1.00687
1.00629
1.00567
1.00523
1.00471
1.00528
1.0058
1.00832
1.00872
1.00891
1.00891
1.00874
1.00843
1.008
1.0075
1.00692
1.00634
1.00573
1.00531
1.00483
1.00538
1.00593
1.00834
1.00874
1.00893
1.00894
1.00877
1.00846
1.00804
1.00754
1.00696
1.0064
1.0058
1.00539
1.00493
1.00548
1.00604
1.00836
1.00877
1.00896
1.00896
1.0088
1.00849
1.00807
1.00758
1.00701
1.00645
1.00587
1.00547
1.00504
1.00557
1.00614
1.00838
1.00879
1.00899
1.009
1.00883
1.00853
1.00812
1.00762
1.00706
1.00651
1.00593
1.00555
1.00514
1.00565
1.00622
1.00841
1.00882
1.00902
1.00903
1.00887
1.00858
1.00816
1.00767
1.00712
1.00657
1.006
1.00563
1.00524
1.00573
1.00629
1.00843
1.00885
1.00905
1.00907
1.00891
1.00862
1.00821
1.00773
1.00718
1.00663
1.00607
1.00571
1.00534
1.0058
1.00635
1.00846
1.00888
1.00909
1.00911
1.00896
1.00867
1.00826
1.00778
1.00723
1.00669
1.00614
1.00578
1.00543
1.00586
1.0064
1.00849
1.00891
1.00912
1.00915
1.009
1.00872
1.00831
1.00783
1.00729
1.00676
1.00621
1.00586
1.00552
1.00592
1.00644
1.00852
1.00894
1.00916
1.00919
1.00905
1.00877
1.00837
1.00789
1.00735
1.00682
1.00628
1.00593
1.00561
1.00598
1.00648
1.00855
1.00898
1.0092
1.00923
1.0091
1.00882
1.00842
1.00795
1.00741
1.00688
1.00635
1.006
1.00569
1.00603
1.00651
1.00858
1.00901
1.00924
1.00928
1.00914
1.00887
1.00848
1.008
1.00747
1.00695
1.00642
1.00607
1.00577
1.00608
1.00653
1.00861
1.00905
1.00928
1.00932
1.00919
1.00892
1.00853
1.00806
1.00753
1.00701
1.00649
1.00614
1.00584
1.00613
1.00655
1.00865
1.00909
1.00932
1.00937
1.00925
1.00898
1.00859
1.00812
1.00759
1.00707
1.00655
1.0062
1.00591
1.00617
1.00657
1.00869
1.00913
1.00936
1.00942
1.0093
1.00903
1.00865
1.00818
1.00765
1.00713
1.00661
1.00627
1.00598
1.00621
1.00658
1.00872
1.00917
1.00941
1.00947
1.00935
1.00909
1.00871
1.00824
1.00771
1.00719
1.00667
1.00632
1.00603
1.00624
1.00658
1.00876
1.00922
1.00945
1.00952
1.0094
1.00914
1.00876
1.0083
1.00777
1.00725
1.00673
1.00638
1.00609
1.00627
1.00659
1.00881
1.00926
1.0095
1.00957
1.00946
1.0092
1.00882
1.00835
1.00782
1.0073
1.00678
1.00643
1.00614
1.0063
1.00659
1.00885
1.00931
1.00955
1.00962
1.00951
1.00925
1.00887
1.0084
1.00788
1.00735
1.00684
1.00648
1.00619
1.00632
1.00659
1.00889
1.00936
1.0096
1.00967
1.00956
1.00931
1.00892
1.00846
1.00793
1.00741
1.00689
1.00653
1.00624
1.00635
1.00659
1.00894
1.00941
1.00965
1.00972
1.00962
1.00936
1.00898
1.00851
1.00798
1.00746
1.00694
1.00658
1.00629
1.00637
1.00659
1.00899
1.00946
1.00971
1.00978
1.00967
1.00942
1.00904
1.00857
1.00804
1.00751
1.00699
1.00662
1.00633
1.00639
1.00659
1.00904
1.00951
1.00976
1.00984
1.00973
1.00948
1.0091
1.00863
1.0081
1.00757
1.00705
1.00667
1.00638
1.00641
1.00658
1.00909
1.00956
1.00982
1.0099
1.00979
1.00954
1.00916
1.00869
1.00815
1.00762
1.0071
1.00672
1.00642
1.00643
1.00658
1.00914
1.00962
1.00988
1.00996
1.00986
1.0096
1.00922
1.00875
1.00821
1.00768
1.00715
1.00676
1.00646
1.00645
1.00657
1.0092
1.00968
1.00994
1.01002
1.00992
1.00967
1.00928
1.00881
1.00827
1.00773
1.00721
1.00681
1.00649
1.00646
1.00656
1.00925
1.00974
1.01001
1.01009
1.00999
1.00974
1.00935
1.00887
1.00833
1.00779
1.00726
1.00685
1.00653
1.00648
1.00655
1.00931
1.0098
1.01007
1.01016
1.01006
1.00981
1.00942
1.00894
1.00839
1.00785
1.00731
1.00689
1.00656
1.00649
1.00654
1.00937
1.00986
1.01014
1.01023
1.01013
1.00988
1.00949
1.00901
1.00846
1.0079
1.00736
1.00693
1.00659
1.0065
1.00653
1.00943
1.00993
1.01021
1.0103
1.0102
1.00995
1.00956
1.00907
1.00851
1.00795
1.0074
1.00697
1.00661
1.0065
1.00651
1.0095
1.01
1.01028
1.01037
1.01028
1.01002
1.00963
1.00913
1.00857
1.00801
1.00745
1.007
1.00664
1.00651
1.0065
1.00956
1.01006
1.01035
1.01044
1.01035
1.01009
1.00969
1.0092
1.00863
1.00806
1.00749
1.00703
1.00666
1.00651
1.00648
1.00963
1.01013
1.01042
1.01051
1.01042
1.01016
1.00976
1.00926
1.00869
1.0081
1.00753
1.00706
1.00668
1.00652
1.00646
1.00969
1.0102
1.01049
1.01059
1.01049
1.01023
1.00983
1.00932
1.00874
1.00815
1.00757
1.00709
1.0067
1.00652
1.00645
1.00976
1.01028
1.01057
1.01066
1.01057
1.0103
1.0099
1.00938
1.0088
1.0082
1.00761
1.00712
1.00672
1.00652
1.00643
1.00983
1.01035
1.01064
1.01074
1.01064
1.01038
1.00996
1.00945
1.00885
1.00825
1.00765
1.00715
1.00674
1.00652
1.00641
1.00991
1.01043
1.01072
1.01082
1.01072
1.01045
1.01003
1.00951
1.00891
1.0083
1.00769
1.00718
1.00675
1.00651
1.00639
1.00998
1.01051
1.0108
1.0109
1.0108
1.01053
1.01011
1.00958
1.00897
1.00835
1.00773
1.00721
1.00677
1.00651
1.00637
1.01006
1.01059
1.01089
1.01099
1.01089
1.01061
1.01018
1.00965
1.00903
1.0084
1.00777
1.00723
1.00678
1.00651
1.00635
1.01014
1.01067
1.01097
1.01107
1.01097
1.01069
1.01026
1.00972
1.00909
1.00845
1.00781
1.00726
1.00679
1.0065
1.00632
1.01022
1.01075
1.01106
1.01116
1.01106
1.01078
1.01034
1.00979
1.00916
1.0085
1.00785
1.00728
1.0068
1.00649
1.0063
1.0103
1.01084
1.01115
1.01125
1.01115
1.01086
1.01042
1.00986
1.00922
1.00855
1.00788
1.00731
1.00681
1.00648
1.00627
1.01038
1.01093
1.01124
1.01134
1.01124
1.01095
1.0105
1.00993
1.00928
1.0086
1.00792
1.00733
1.00681
1.00647
1.00624
1.01047
1.01102
1.01133
1.01144
1.01133
1.01104
1.01058
1.01
1.00934
1.00864
1.00795
1.00734
1.00682
1.00645
1.00621
1.01056
1.01111
1.01143
1.01153
1.01142
1.01112
1.01066
1.01007
1.0094
1.00869
1.00798
1.00736
1.00682
1.00644
1.00618
1.01065
1.0112
1.01152
1.01162
1.01151
1.01121
1.01074
1.01014
1.00945
1.00873
1.00801
1.00737
1.00682
1.00642
1.00615
1.01074
1.01129
1.01162
1.01172
1.01161
1.0113
1.01082
1.01021
1.00951
1.00878
1.00804
1.00739
1.00682
1.00641
1.00612
1.01083
1.01139
1.01172
1.01182
1.0117
1.01138
1.0109
1.01028
1.00957
1.00882
1.00807
1.0074
1.00681
1.00639
1.00609
1.01093
1.01149
1.01182
1.01192
1.0118
1.01147
1.01098
1.01035
1.00962
1.00886
1.0081
1.00742
1.00681
1.00637
1.00605
1.01102
1.01159
1.01192
1.01202
1.0119
1.01157
1.01106
1.01042
1.00968
1.00891
1.00813
1.00743
1.00681
1.00635
1.00602
1.01112
1.0117
1.01203
1.01212
1.012
1.01166
1.01115
1.01049
1.00974
1.00895
1.00816
1.00744
1.0068
1.00633
1.00598
1.01122
1.0118
1.01213
1.01223
1.0121
1.01176
1.01124
1.01057
1.00981
1.009
1.00819
1.00745
1.0068
1.0063
1.00594
1.01133
1.01191
1.01224
1.01234
1.01221
1.01186
1.01133
1.01065
1.00987
1.00905
1.00822
1.00747
1.00679
1.00628
1.0059
1.01143
1.01202
1.01236
1.01245
1.01232
1.01196
1.01142
1.01073
1.00994
1.0091
1.00825
1.00748
1.00678
1.00625
1.00586
1.01154
1.01213
1.01247
1.01257
1.01243
1.01207
1.01152
1.01081
1.01
1.00915
1.00828
1.00749
1.00677
1.00622
1.00582
1.01165
1.01224
1.01259
1.01269
1.01255
1.01217
1.01161
1.01089
1.01007
1.00919
1.00831
1.00749
1.00676
1.00619
1.00577
1.01176
1.01236
1.01271
1.01281
1.01266
1.01228
1.01171
1.01098
1.01014
1.00924
1.00834
1.0075
1.00675
1.00616
1.00572
1.01187
1.01248
1.01283
1.01293
1.01278
1.01239
1.01181
1.01106
1.0102
1.00928
1.00836
1.0075
1.00673
1.00612
1.00567
1.01199
1.0126
1.01295
1.01305
1.0129
1.0125
1.01191
1.01114
1.01026
1.00933
1.00838
1.0075
1.00671
1.00608
1.00562
1.0121
1.01272
1.01307
1.01317
1.01301
1.01261
1.012
1.01122
1.01032
1.00937
1.0084
1.0075
1.00669
1.00604
1.00556
1.01222
1.01284
1.0132
1.01329
1.01313
1.01272
1.0121
1.0113
1.01038
1.0094
1.00842
1.00749
1.00666
1.006
1.00551
1.01234
1.01297
1.01333
1.01342
1.01325
1.01283
1.01219
1.01138
1.01044
1.00944
1.00843
1.00749
1.00664
1.00596
1.00545
1.01247
1.0131
1.01346
1.01355
1.01337
1.01294
1.01229
1.01145
1.0105
1.00948
1.00845
1.00749
1.00661
1.00592
1.00539
1.01259
1.01323
1.01359
1.01368
1.01349
1.01305
1.01238
1.01153
1.01056
1.00952
1.00847
1.00748
1.00659
1.00587
1.00534
1.01272
1.01337
1.01372
1.01381
1.01362
1.01316
1.01248
1.01162
1.01062
1.00956
1.00848
1.00748
1.00656
1.00583
1.00527
1.01285
1.0135
1.01386
1.01395
1.01375
1.01328
1.01259
1.0117
1.01069
1.0096
1.0085
1.00747
1.00654
1.00578
1.00521
1.01299
1.01365
1.01401
1.01409
1.01388
1.0134
1.01269
1.01179
1.01075
1.00965
1.00852
1.00747
1.00651
1.00573
1.00515
1.01312
1.01379
1.01415
1.01423
1.01402
1.01353
1.0128
1.01188
1.01082
1.00969
1.00854
1.00746
1.00648
1.00568
1.00508
1.01326
1.01394
1.0143
1.01438
1.01416
1.01366
1.01292
1.01198
1.01089
1.00974
1.00856
1.00745
1.00645
1.00563
1.00501
1.01341
1.01408
1.01445
1.01453
1.0143
1.01379
1.01304
1.01207
1.01097
1.00978
1.00858
1.00744
1.00641
1.00557
1.00493
1.01355
1.01424
1.0146
1.01468
1.01445
1.01393
1.01315
1.01217
1.01104
1.00982
1.0086
1.00743
1.00637
1.00551
1.00486
1.0137
1.01439
1.01476
1.01484
1.0146
1.01406
1.01327
1.01227
1.01111
1.00987
1.00861
1.00742
1.00634
1.00545
1.00478
1.01385
1.01455
1.01492
1.01499
1.01475
1.0142
1.01339
1.01236
1.01118
1.00991
1.00862
1.0074
1.00629
1.00539
1.0047
1.014
1.01471
1.01508
1.01515
1.0149
1.01434
1.01351
1.01246
1.01124
1.00995
1.00863
1.00738
1.00625
1.00532
1.00462
1.01415
1.01487
1.01525
1.01532
1.01505
1.01448
1.01363
1.01255
1.01131
1.00999
1.00864
1.00737
1.00621
1.00525
1.00453
1.01431
1.01504
1.01541
1.01548
1.01521
1.01462
1.01375
1.01265
1.01138
1.01003
1.00865
1.00735
1.00616
1.00518
1.00444
1.01447
1.01521
1.01558
1.01565
1.01536
1.01476
1.01387
1.01275
1.01145
1.01007
1.00866
1.00733
1.00611
1.00511
1.00435
1.01463
1.01538
1.01575
1.01582
1.01552
1.01491
1.014
1.01285
1.01152
1.01011
1.00867
1.0073
1.00606
1.00504
1.00426
1.0148
1.01555
1.01593
1.01599
1.01569
1.01506
1.01413
1.01295
1.0116
1.01015
1.00868
1.00728
1.00601
1.00496
1.00416
1.01497
1.01573
1.01611
1.01617
1.01586
1.01521
1.01426
1.01305
1.01167
1.01019
1.00868
1.00725
1.00595
1.00488
1.00406
1.01514
1.01591
1.01629
1.01634
1.01602
1.01536
1.01439
1.01316
1.01174
1.01022
1.00868
1.00722
1.00589
1.00479
1.00395
1.01531
1.01609
1.01647
1.01653
1.0162
1.01552
1.01452
1.01326
1.01181
1.01026
1.00868
1.00719
1.00582
1.0047
1.00385
1.01549
1.01628
1.01666
1.01671
1.01637
1.01567
1.01465
1.01336
1.01188
1.01029
1.00868
1.00715
1.00576
1.00461
1.00374
1.01567
1.01647
1.01685
1.0169
1.01654
1.01583
1.01479
1.01347
1.01195
1.01032
1.00867
1.00711
1.00569
1.00451
1.00362
1.01586
1.01667
1.01705
1.01709
1.01672
1.01599
1.01492
1.01357
1.01201
1.01035
1.00867
1.00707
1.00562
1.00442
1.00351
1.01605
1.01686
1.01724
1.01728
1.0169
1.01615
1.01505
1.01367
1.01208
1.01038
1.00866
1.00703
1.00555
1.00432
1.00339
1.01624
1.01707
1.01745
1.01748
1.01709
1.01631
1.01519
1.01377
1.01215
1.01041
1.00865
1.00699
1.00547
1.00422
1.00327
1.01644
1.01727
1.01765
1.01768
1.01727
1.01648
1.01533
1.01388
1.01222
1.01044
1.00865
1.00694
1.0054
1.00412
1.00315
1.01664
1.01748
1.01786
1.01788
1.01747
1.01665
1.01547
1.01399
1.01229
1.01048
1.00865
1.0069
1.00533
1.00402
1.00303
1.01684
1.0177
1.01808
1.0181
1.01767
1.01683
1.01562
1.01411
1.01237
1.01052
1.00864
1.00687
1.00525
1.00392
1.0029
1.01705
1.01792
1.0183
1.01831
1.01787
1.01702
1.01578
1.01423
1.01246
1.01056
1.00864
1.00683
1.00518
1.00381
1.00276
1.01726
1.01814
1.01853
1.01854
1.01808
1.01721
1.01594
1.01436
1.01254
1.0106
1.00865
1.00678
1.0051
1.0037
1.00263
1.01748
1.01837
1.01876
1.01877
1.0183
1.0174
1.01611
1.01449
1.01263
1.01065
1.00864
1.00674
1.00501
1.00358
1.00249
1.0177
1.0186
1.01899
1.019
1.01852
1.0176
1.01628
1.01462
1.01272
1.01069
1.00864
1.00669
1.00493
1.00346
1.00234
1.01792
1.01884
1.01923
1.01924
1.01874
1.01781
1.01645
1.01476
1.01281
1.01073
1.00863
1.00664
1.00483
1.00333
1.00219
1.01815
1.01908
1.01947
1.01948
1.01897
1.01801
1.01663
1.01489
1.0129
1.01077
1.00862
1.00658
1.00473
1.0032
1.00203
1.01838
1.01932
1.01972
1.01972
1.0192
1.01822
1.0168
1.01503
1.01299
1.01081
1.00861
1.00652
1.00463
1.00306
1.00187
1.01862
1.01957
1.01997
1.01997
1.01944
1.01843
1.01698
1.01516
1.01307
1.01084
1.00859
1.00645
1.00452
1.00292
1.0017
1.01886
1.01982
1.02023
1.02022
1.01967
1.01864
1.01715
1.01529
1.01315
1.01087
1.00856
1.00638
1.00441
1.00278
1.00153
1.0191
1.02008
1.02048
1.02047
1.01991
1.01885
1.01733
1.01542
1.01322
1.01089
1.00853
1.0063
1.00429
1.00263
1.00136
1.01935
1.02034
1.02075
1.02073
1.02015
1.01907
1.0175
1.01554
1.0133
1.01091
1.0085
1.00622
1.00417
1.00247
1.00118
1.01961
1.02061
1.02101
1.02099
1.02039
1.01928
1.01768
1.01567
1.01337
1.01093
1.00846
1.00614
1.00404
1.00231
1.00099
1.01986
1.02088
1.02129
1.02126
1.02064
1.0195
1.01785
1.0158
1.01344
1.01094
1.00843
1.00605
1.00392
1.00215
1.00081
1.02013
1.02116
1.02156
1.02153
1.02089
1.01972
1.01803
1.01593
1.01352
1.01096
1.00839
1.00596
1.00379
1.00199
1.00062
1.0204
1.02144
1.02185
1.0218
1.02115
1.01994
1.01821
1.01606
1.0136
1.01098
1.00835
1.00588
1.00365
1.00182
1.00042
1.02067
1.02173
1.02214
1.02209
1.02141
1.02018
1.0184
1.01619
1.01367
1.011
1.00832
1.00579
1.00352
1.00165
1.00022
1.02095
1.02202
1.02243
1.02238
1.02168
1.02041
1.0186
1.01633
1.01376
1.01102
1.00828
1.0057
1.00338
1.00147
1.00002
1.02124
1.02232
1.02273
1.02267
1.02196
1.02066
1.01879
1.01648
1.01384
1.01104
1.00824
1.0056
1.00324
1.00129
0.999807
1.02153
1.02263
1.02304
1.02298
1.02224
1.02091
1.019
1.01663
1.01393
1.01106
1.0082
1.00551
1.00309
1.00111
0.999591
1.02183
1.02294
1.02336
1.02329
1.02253
1.02116
1.01921
1.01678
1.01401
1.01109
1.00816
1.00541
1.00294
1.00092
0.99937
1.02213
1.02326
1.02368
1.0236
1.02283
1.02143
1.01942
1.01694
1.0141
1.01111
1.00811
1.0053
1.00279
1.00072
0.999142
1.02244
1.02358
1.02401
1.02393
1.02313
1.02169
1.01964
1.01709
1.0142
1.01113
1.00807
1.00519
1.00263
1.00052
0.998909
1.02275
1.02391
1.02435
1.02426
1.02344
1.02197
1.01987
1.01725
1.01429
1.01115
1.00802
1.00508
1.00246
1.00031
0.998669
1.02307
1.02425
1.02469
1.02459
1.02375
1.02224
1.02009
1.01741
1.01437
1.01116
1.00796
1.00496
1.00229
1.0001
0.998423
1.0234
1.02459
1.02503
1.02493
1.02407
1.02253
1.02032
1.01758
1.01446
1.01117
1.0079
1.00484
1.00211
0.999876
0.99817
1.02373
1.02494
1.02539
1.02528
1.0244
1.02281
1.02055
1.01774
1.01455
1.01118
1.00784
1.00471
1.00193
0.999649
0.997911
1.02407
1.0253
1.02575
1.02564
1.02473
1.0231
1.02078
1.0179
1.01464
1.01119
1.00777
1.00457
1.00174
0.999414
0.997645
1.02441
1.02566
1.02612
1.026
1.02507
1.0234
1.02102
1.01807
1.01472
1.01119
1.0077
1.00443
1.00154
0.999173
0.997372
1.02476
1.02603
1.02649
1.02637
1.02541
1.0237
1.02126
1.01823
1.0148
1.01119
1.00762
1.00428
1.00133
0.998926
0.997092
1.02512
1.02641
1.02688
1.02674
1.02576
1.024
1.0215
1.01839
1.01488
1.01119
1.00753
1.00413
1.00112
0.998672
0.996806
1.02549
1.0268
1.02727
1.02713
1.02612
1.02431
1.02174
1.01856
1.01496
1.01118
1.00745
1.00397
1.00091
0.998411
0.996513
1.02586
1.02719
1.02767
1.02752
1.02648
1.02463
1.02199
1.01873
1.01504
1.01117
1.00735
1.00381
1.00069
0.998143
0.996213
1.02624
1.02759
1.02807
1.02791
1.02685
1.02495
1.02224
1.0189
1.01512
1.01116
1.00726
1.00364
1.00046
0.997868
0.995904
1.02663
1.028
1.02849
1.02832
1.02723
1.02527
1.0225
1.01907
1.01519
1.01114
1.00716
1.00346
1.00022
0.997586
0.99559
1.02702
1.02842
1.02891
1.02874
1.02761
1.02561
1.02276
1.01924
1.01527
1.01112
1.00705
1.00328
0.999977
0.997296
0.995267
1.02743
1.02885
1.02934
1.02916
1.028
1.02595
1.02302
1.01941
1.01535
1.0111
1.00694
1.00309
0.999727
0.997
0.994936
1.02784
1.02928
1.02979
1.02959
1.0284
1.02629
1.02329
1.01959
1.01542
1.01108
1.00682
1.0029
0.999469
0.996694
0.994598
1.02826
1.02973
1.03024
1.03004
1.02881
1.02664
1.02356
1.01976
1.01549
1.01105
1.0067
1.0027
0.999204
0.996382
0.994251
1.02869
1.03018
1.0307
1.03049
1.02923
1.027
1.02384
1.01994
1.01556
1.01101
1.00657
1.00249
0.99893
0.99606
0.993896
1.02912
1.03064
1.03117
1.03095
1.02966
1.02737
1.02412
1.02012
1.01563
1.01098
1.00644
1.00227
0.998649
0.99573
0.993532
1.02957
1.03111
1.03165
1.03142
1.03009
1.02774
1.02441
1.0203
1.0157
1.01093
1.0063
1.00205
0.998358
0.995391
0.993159
1.03003
1.0316
1.03214
1.0319
1.03054
1.02812
1.0247
1.02048
1.01577
1.01089
1.00615
1.00182
0.998059
0.995043
0.992778
1.03049
1.03209
1.03264
1.03239
1.03099
1.02851
1.02499
1.02066
1.01583
1.01083
1.00599
1.00157
0.99775
0.994685
0.992387
1.03096
1.03259
1.03315
1.03289
1.03146
1.0289
1.02529
1.02084
1.01589
1.01078
1.00583
1.00132
0.997433
0.994319
0.991987
1.03145
1.03311
1.03367
1.03341
1.03193
1.0293
1.02559
1.02102
1.01594
1.01071
1.00566
1.00106
0.997105
0.993942
0.991577
1.03194
1.03363
1.03421
1.03393
1.03241
1.02971
1.02589
1.02121
1.016
1.01064
1.00548
1.0008
0.996768
0.993555
0.991158
1.03244
1.03416
1.03475
1.03447
1.0329
1.03012
1.0262
1.02139
1.01605
1.01056
1.00529
1.00052
0.99642
0.993158
0.990728
1.03296
1.03471
1.03531
1.03501
1.0334
1.03055
1.02651
1.02157
1.01609
1.01048
1.00509
1.00023
0.996062
0.992751
0.990289
1.03348
1.03527
1.03588
1.03557
1.03391
1.03098
1.02683
1.02175
1.01613
1.01039
1.00489
0.999929
0.995692
0.992332
0.989839
1.03402
1.03584
1.03646
1.03614
1.03444
1.03141
1.02715
1.02193
1.01617
1.01029
1.00467
0.999619
0.995312
0.991903
0.989379
1.03457
1.03642
1.03706
1.03672
1.03497
1.03186
1.02747
1.02211
1.0162
1.01018
1.00444
0.999298
0.99492
0.991462
0.988907
1.03513
1.03702
1.03767
1.03732
1.03551
1.03231
1.02779
1.02229
1.01622
1.01006
1.00421
0.998965
0.994516
0.991011
0.988426
1.0357
1.03763
1.03829
1.03793
1.03607
1.03277
1.02812
1.02246
1.01624
1.00994
1.00396
0.99862
0.9941
0.990546
0.987932
1.03628
1.03825
1.03892
1.03855
1.03664
1.03324
1.02845
1.02263
1.01626
1.0098
1.0037
0.998263
0.993672
0.990071
0.987428
1.03688
1.03889
1.03958
1.03919
1.03721
1.03371
1.02879
1.02281
1.01626
1.00966
1.00343
0.997893
0.993231
0.989583
0.986911
1.03748
1.03954
1.04024
1.03984
1.03781
1.0342
1.02913
1.02297
1.01626
1.0095
1.00314
0.99751
0.992777
0.989082
0.986384
1.03811
1.0402
1.04092
1.0405
1.03841
1.03469
1.02947
1.02314
1.01625
1.00934
1.00285
0.997113
0.992309
0.988568
0.985844
1.03874
1.04088
1.04162
1.04118
1.03903
1.03519
1.02981
1.0233
1.01623
1.00916
1.00254
0.996703
0.991828
0.988042
0.985292
1.03939
1.04158
1.04233
1.04188
1.03965
1.0357
1.03015
1.02346
1.01621
1.00897
1.00221
0.996277
0.991332
0.987501
0.984727
1.04006
1.04229
1.04306
1.04259
1.0403
1.03622
1.0305
1.02361
1.01617
1.00876
1.00187
0.995837
0.990822
0.986948
0.98415
1.04074
1.04302
1.04381
1.04332
1.04095
1.03674
1.03085
1.02376
1.01613
1.00855
1.00152
0.995381
0.990296
0.986379
0.98356
1.04143
1.04376
1.04457
1.04407
1.04162
1.03727
1.0312
1.02391
1.01607
1.00832
1.00115
0.994909
0.989756
0.985797
0.982957
1.04214
1.04452
1.04535
1.04483
1.04231
1.03782
1.03155
1.02404
1.016
1.00807
1.00076
0.99442
0.989199
0.985199
0.98234
1.04286
1.0453
1.04615
1.04561
1.043
1.03836
1.0319
1.02417
1.01592
1.00781
1.00036
0.993915
0.988626
0.984587
0.98171
1.04361
1.0461
1.04697
1.04641
1.04372
1.03892
1.03225
1.0243
1.01583
1.00753
0.999938
0.993392
0.988036
0.983959
0.981065
1.04437
1.04692
1.04781
1.04723
1.04444
1.03949
1.0326
1.02441
1.01572
1.00723
0.999499
0.99285
0.98743
0.983317
0.980407
1.04514
1.04775
1.04867
1.04807
1.04518
1.04006
1.03294
1.02452
1.01559
1.00692
0.999039
0.99229
0.986805
0.982657
0.979734
1.04594
1.04861
1.04955
1.04892
1.04594
1.04064
1.03329
1.02461
1.01546
1.00659
0.998561
0.99171
0.986163
0.981982
0.979048
1.04675
1.04949
1.05046
1.0498
1.04672
1.04123
1.03363
1.02469
1.0153
1.00624
0.998061
0.991111
0.985502
0.98129
0.978345
1.04758
1.05039
1.05139
1.0507
1.0475
1.04182
1.03397
1.02477
1.01513
1.00586
0.99754
0.990491
0.984823
0.980581
0.977629
1.04844
1.05131
1.05234
1.05162
1.04831
1.04242
1.03431
1.02482
1.01493
1.00547
0.996996
0.989849
0.984124
0.979855
0.976896
1.04931
1.05225
1.05331
1.05257
1.04913
1.04303
1.03464
1.02487
1.01472
1.00505
0.99643
0.989186
0.983406
0.979112
0.976149
1.0502
1.05322
1.05431
1.05353
1.04997
1.04364
1.03497
1.0249
1.01448
1.0046
0.995839
0.9885
0.982667
0.97835
0.975385
1.05112
1.05421
1.05533
1.05453
1.05082
1.04426
1.03529
1.02491
1.01423
1.00414
0.995224
0.987792
0.981908
0.977571
0.974607
1.05206
1.05523
1.05639
1.05554
1.0517
1.04488
1.0356
1.0249
1.01395
1.00364
0.994582
0.987059
0.981127
0.976772
0.973811
1.05302
1.05628
1.05746
1.05658
1.05258
1.04551
1.0359
1.02488
1.01364
1.00312
0.993915
0.986303
0.980326
0.975956
0.973001
1.054
1.05735
1.05857
1.05765
1.05349
1.04614
1.03619
1.02483
1.0133
1.00257
0.993219
0.985521
0.979502
0.97512
0.972173
1.05501
1.05845
1.05971
1.05874
1.05441
1.04677
1.03647
1.02476
1.01294
1.00199
0.992496
0.984714
0.978656
0.974266
0.971329
1.05605
1.05957
1.06088
1.05987
1.05535
1.04741
1.03673
1.02466
1.01255
1.00138
0.991742
0.98388
0.977787
0.973391
0.970467
1.05711
1.06073
1.06208
1.06102
1.05631
1.04804
1.03698
1.02454
1.01212
1.00074
0.990959
0.98302
0.976895
0.972497
0.96959
1.0582
1.06192
1.06331
1.06219
1.05728
1.04868
1.03721
1.02439
1.01166
1.00006
0.990144
0.982132
0.975979
0.971582
0.968694
1.05932
1.06314
1.06458
1.0634
1.05827
1.04931
1.03743
1.02421
1.01117
0.999344
0.989296
0.981216
0.97504
0.970648
0.967782
1.06046
1.0644
1.06588
1.06464
1.05928
1.04994
1.03762
1.02399
1.01063
0.998593
0.988416
0.980271
0.974075
0.969692
0.966851
1.06164
1.06569
1.06723
1.06591
1.0603
1.05056
1.03778
1.02374
1.01006
0.997805
0.987501
0.979297
0.973087
0.968717
0.965904
1.06285
1.06701
1.0686
1.06722
1.06134
1.05118
1.03792
1.02345
1.00945
0.996977
0.986551
0.978292
0.972072
0.967719
0.964938
1.06409
1.06838
1.07002
1.06855
1.06239
1.05178
1.03803
1.02312
1.00879
0.996107
0.985564
0.977257
0.971033
0.966701
0.963955
1.06536
1.06978
1.07148
1.06992
1.06346
1.05238
1.03811
1.02275
1.00809
0.995195
0.984541
0.97619
0.969967
0.965661
0.962954
1.06667
1.07122
1.07299
1.07133
1.06454
1.05296
1.03815
1.02233
1.00734
0.994239
0.983479
0.975092
0.968876
0.9646
0.961935
1.06801
1.07271
1.07453
1.07277
1.06562
1.05352
1.03815
1.02186
1.00653
0.993237
0.982378
0.973962
0.967757
0.963516
0.960897
1.06939
1.07424
1.07613
1.07424
1.06672
1.05406
1.03811
1.02134
1.00568
0.992187
0.981237
0.972799
0.966613
0.962411
0.959842
1.07082
1.07581
1.07777
1.07575
1.06783
1.05458
1.03802
1.02076
1.00477
0.991089
0.980055
0.971601
0.96544
0.961283
0.958768
1.07228
1.07744
1.07947
1.0773
1.06895
1.05507
1.03789
1.02012
1.0038
0.98994
0.978832
0.970371
0.964241
0.960134
0.957676
1.07378
1.07911
1.08121
1.07888
1.07006
1.05553
1.03769
1.01942
1.00278
0.98874
0.977566
0.969106
0.963014
0.958962
0.956565
1.07533
1.08084
1.08301
1.0805
1.07118
1.05596
1.03744
1.01865
1.00169
0.987486
0.976257
0.967807
0.96176
0.957768
0.955436
1.07692
1.08262
1.08487
1.08216
1.0723
1.05634
1.03712
1.01781
1.00053
0.986177
0.974903
0.966472
0.960477
0.956551
0.954288
1.07856
1.08446
1.08679
1.08386
1.07341
1.05667
1.03673
1.0169
0.999308
0.984813
0.973504
0.965102
0.959168
0.955313
0.953122
1.08024
1.08636
1.08877
1.08559
1.07451
1.05696
1.03626
1.01591
0.998016
0.98339
0.97206
0.963696
0.957829
0.954051
0.951938
1.08198
1.08832
1.09081
1.08736
1.0756
1.05718
1.03572
1.01483
0.996651
0.98191
0.97057
0.962255
0.956463
0.952767
0.950735
1.08378
1.09035
1.09292
1.08916
1.07666
1.05733
1.03508
1.01367
0.995212
0.980368
0.969033
0.960777
0.955068
0.951461
0.949514
1.08562
1.09245
1.0951
1.09099
1.07771
1.05742
1.03435
1.01242
0.993696
0.978767
0.967449
0.959263
0.953646
0.950133
0.948275
1.08753
1.09462
1.09734
1.09285
1.07872
1.05741
1.03352
1.01107
0.9921
0.977102
0.965817
0.957713
0.952195
0.948781
0.947017
1.0895
1.09687
1.09967
1.09474
1.07968
1.05732
1.03258
1.00962
0.990423
0.975375
0.964138
0.956127
0.950716
0.947409
0.945742
1.09153
1.0992
1.10206
1.09666
1.08061
1.05713
1.03152
1.00806
0.988662
0.973584
0.96241
0.954505
0.94921
0.946014
0.944448
1.09363
1.10162
1.10454
1.09859
1.08147
1.05683
1.03034
1.0064
0.986816
0.971729
0.960635
0.952847
0.947676
0.944598
0.943138
1.09579
1.10413
1.1071
1.10054
1.08226
1.0564
1.02903
1.00463
0.984883
0.969808
0.958811
0.951152
0.946115
0.94316
0.941809
1.09803
1.10674
1.10973
1.1025
1.08298
1.05585
1.02759
1.00274
0.982862
0.967822
0.95694
0.949423
0.944527
0.941701
0.940464
1.10035
1.10945
1.11246
1.10447
1.0836
1.05514
1.026
1.00073
0.98075
0.96577
0.955021
0.947658
0.942912
0.940221
0.939102
1.10275
1.11227
1.11526
1.10642
1.08412
1.05428
1.02425
0.998603
0.978549
0.963653
0.953055
0.945859
0.941271
0.93872
0.937723
1.10524
1.1152
1.11815
1.10836
1.08451
1.05325
1.02234
0.996347
0.976255
0.961471
0.951042
0.944025
0.939604
0.937199
0.936328
1.10781
1.11826
1.12113
1.11027
1.08477
1.05204
1.02027
0.993963
0.97387
0.959224
0.948984
0.942158
0.937912
0.935659
0.934916
1.11048
1.12144
1.12418
1.11214
1.08487
1.05063
1.01802
0.991448
0.971392
0.956912
0.94688
0.940259
0.936196
0.934099
0.933489
1.11325
1.12476
1.12732
1.11395
1.08479
1.049
1.01559
0.988801
0.968823
0.954537
0.944732
0.938327
0.934456
0.932521
0.932047
1.11613
1.12822
1.13054
1.11569
1.08452
1.04715
1.01298
0.98602
0.966163
0.952099
0.94254
0.936365
0.932692
0.930924
0.930589
1.11913
1.13184
1.13382
1.11733
1.08402
1.04505
1.01016
0.983106
0.963413
0.949602
0.940307
0.934373
0.930906
0.929309
0.929117
1.12224
1.13562
1.13717
1.11885
1.08328
1.0427
1.00716
0.980058
0.960574
0.947044
0.938034
0.932352
0.929098
0.927678
0.92763
1.12549
1.13957
1.14058
1.12023
1.08226
1.04007
1.00395
0.976878
0.957649
0.944429
0.935722
0.930304
0.92727
0.92603
0.92613
1.12888
1.14369
1.14403
1.12144
1.08095
1.03716
1.00053
0.973566
0.954639
0.941759
0.933373
0.928229
0.925422
0.924366
0.924617
1.13242
1.14801
1.1475
1.12244
1.07931
1.03395
0.996911
0.970126
0.951548
0.939037
0.930989
0.92613
0.923556
0.922687
0.923091
1.13613
1.15251
1.15098
1.12321
1.07731
1.03043
0.993085
0.96656
0.948379
0.936264
0.928571
0.924007
0.921672
0.920993
0.921552
1.14001
1.15722
1.15445
1.12369
1.07493
1.02659
0.989056
0.962873
0.945135
0.933444
0.926124
0.921863
0.919771
0.919287
0.920001
1.14408
1.16213
1.15788
1.12385
1.07213
1.02243
0.984826
0.95907
0.941821
0.93058
0.923647
0.919698
0.917855
0.917567
0.918439
1.14836
1.16726
1.16123
1.12363
1.06889
1.01792
0.9804
0.955158
0.938441
0.927676
0.921145
0.917516
0.915925
0.915836
0.916867
1.15287
1.17259
1.16446
1.123
1.06517
1.01308
0.975787
0.951142
0.935
0.924735
0.918619
0.915316
0.913983
0.914094
0.915284
1.15762
1.17813
1.16754
1.12189
1.06094
1.0079
0.970994
0.947031
0.931503
0.92176
0.916073
0.913103
0.912029
0.912342
0.913691
1.16265
1.18388
1.1704
1.12025
1.05619
1.00239
0.966033
0.942832
0.927957
0.918757
0.913508
0.910877
0.910065
0.910581
0.912089
1.16797
1.18983
1.17299
1.11802
1.05088
0.996548
0.960917
0.938556
0.924366
0.915729
0.910929
0.90864
0.908093
0.908811
0.910478
1.17363
1.19595
1.17523
1.11513
1.045
0.99039
0.955662
0.934212
0.920738
0.912681
0.908338
0.906395
0.906113
0.907034
0.908859
1.17964
1.20223
1.17706
1.11152
1.03854
0.983932
0.950284
0.929809
0.917079
0.909618
0.905739
0.904144
0.904128
0.905251
0.907232
1.18604
1.20863
1.17838
1.10713
1.03149
0.977197
0.944801
0.925359
0.913395
0.906543
0.903134
0.90189
0.902139
0.903463
0.905598
1.19287
1.21511
1.17909
1.10189
1.02384
0.970212
0.939235
0.920872
0.909694
0.903462
0.900527
0.899633
0.900148
0.90167
0.903957
1.20018
1.22162
1.17909
1.09574
1.01561
0.963008
0.933604
0.916358
0.905982
0.90038
0.897921
0.897378
0.898155
0.899874
0.90231
1.208
1.22808
1.17827
1.08863
1.00682
0.955624
0.927932
0.911829
0.902267
0.897302
0.89532
0.895126
0.896164
0.898076
0.900657
1.21638
1.23441
1.17649
1.08051
0.997496
0.948099
0.922239
0.907294
0.898556
0.894232
0.892727
0.89288
0.894175
0.896275
0.899
1.22537
1.2405
1.17363
1.07134
0.987685
0.94048
0.916547
0.902765
0.894855
0.891177
0.890146
0.890643
0.89219
0.894475
0.897337
1.23501
1.24623
1.16954
1.06109
0.977444
0.932816
0.910875
0.898252
0.891173
0.888141
0.88758
0.888416
0.89021
0.892674
0.895671
1.24535
1.25145
1.16408
1.04975
0.966846
0.925156
0.905242
0.893763
0.887517
0.88513
0.885034
0.886202
0.888237
0.890874
0.894001
1.25642
1.25596
1.1571
1.03735
0.955978
0.917551
0.899666
0.889309
0.883895
0.882149
0.882511
0.884005
0.886272
0.889076
0.892328
1.26827
1.25957
1.14844
1.02391
0.944938
0.910047
0.89416
0.884899
0.880314
0.879204
0.880015
0.881826
0.884318
0.887281
0.890653
1.2809
1.26202
1.13797
1.0095
0.933839
0.902691
0.888738
0.880543
0.876783
0.876301
0.87755
0.879668
0.882374
0.88549
0.888977
1.29431
1.26303
1.12556
0.994242
0.922799
0.895518
0.883409
0.876249
0.87331
0.873447
0.875121
0.877533
0.880443
0.883703
0.8873
1.30846
1.26225
1.11108
0.978275
0.911942
0.88856
0.87818
0.872027
0.869904
0.870647
0.872731
0.875424
0.878526
0.881922
0.885624
1.32328
1.2593
1.09445
0.961797
0.901386
0.881837
0.873058
0.867889
0.866576
0.86791
0.870387
0.873345