/*--------------------------------*- C++ -*----------------------------------*\
  =========                 |
  \\      /  F ield         | OpenFOAM: The Open Source CFD Toolbox
   \\    /   O peration     | Website:  https://openfoam.org
    \\  /    A nd           | Version:  6.0
     \\/     M anipulation  |
\*---------------------------------------------------------------------------*/
FoamFile
{
    version     2.0;
    format      ascii;
    class       volVectorField;
    location    "111";
    object      U;
}
// * * * * * * * * * * * * * * * * * * * * * * * * * * * * * * * * * * * * * //

dimensions      [0 1 -1 0 0 0 0];

internalField   nonuniform List<vector> 
34500
(
(0.999994 2.03927e-05 -4.64425e-17)
(0.999954 3.32078e-06 -8.15832e-18)
(0.999875 -3.39032e-05 1.42636e-16)
(0.999763 -0.000102618 -1.07994e-16)
(0.999628 -0.000211819 3.37011e-17)
(0.999481 -0.000369329 -1.01876e-16)
(0.999335 -0.000581535 -1.01366e-16)
(0.999201 -0.000854836 8.71558e-17)
(0.999094 -0.00119072 1.0768e-16)
(0.999019 -0.00160505 -6.86452e-16)
(0.998991 -0.00209896 -1.04696e-15)
(0.998999 -0.00279977 1.2814e-16)
(0.999067 -0.00355977 4.3962e-16)
(1.00027 -0.00538773 -2.12111e-16)
(0.981166 -0.0160365 8.68497e-17)
(0.999987 6.27314e-05 3.25249e-17)
(0.999911 2.26927e-05 9.78989e-17)
(0.999768 -5.39579e-05 7.19687e-17)
(0.999567 -0.000185036 -3.03174e-16)
(0.999326 -0.00038685 -5.07634e-16)
(0.999066 -0.000674735 -5.52606e-17)
(0.998808 -0.00106043 2.56577e-16)
(0.998575 -0.00155345 -6.80336e-16)
(0.998392 -0.00215286 -1.79552e-16)
(0.998272 -0.00288487 6.85433e-16)
(0.998234 -0.00373794 1.27084e-15)
(0.998288 -0.0049371 -6.34925e-16)
(0.998248 -0.00617888 -9.96917e-16)
(1.0011 -0.00879212 -4.04635e-16)
(0.982149 -0.019501 5.82976e-16)
(0.999982 0.000104801 1.04929e-17)
(0.999911 4.84011e-05 -1.23247e-16)
(0.999783 -4.11621e-05 -1.25536e-16)
(0.999609 -0.000175661 4.5712e-16)
(0.999403 -0.000368686 -2.8693e-17)
(0.999182 -0.00063475 -1.64598e-16)
(0.998966 -0.000985464 9.81795e-17)
(0.998773 -0.0014291 3.86316e-16)
(0.998625 -0.00196187 2.83385e-19)
(0.998534 -0.00260909 -3.95261e-16)
(0.998508 -0.00334836 -7.33015e-16)
(0.998602 -0.00439713 4.17477e-16)
(0.998294 -0.00549508 2.27828e-16)
(1.00142 -0.00757353 1.68389e-16)
(0.988917 -0.013864 -2.69026e-16)
(0.999976 0.000146169 -1.73967e-17)
(0.999912 7.27389e-05 -9.04801e-18)
(0.999803 -2.94986e-05 4.84631e-17)
(0.999659 -0.000166583 -3.06351e-16)
(0.999491 -0.000349467 3.73482e-16)
(0.999315 -0.000591555 3.31127e-16)
(0.999143 -0.000904357 -4.01032e-16)
(0.998991 -0.00129584 -4.21699e-16)
(0.998875 -0.00176185 4.37037e-16)
(0.998808 -0.00232849 -4.73078e-16)
(0.99878 -0.00297194 -2.4602e-16)
(0.998899 -0.00389752 -3.88766e-16)
(0.998357 -0.00496184 5.49579e-16)
(1.00103 -0.00670363 -4.92384e-17)
(0.992024 -0.0120054 2.35565e-17)
(0.999968 0.000187543 -1.70846e-17)
(0.9999 9.56853e-05 1.5373e-16)
(0.999792 -2.51859e-05 6.97608e-17)
(0.99965 -0.000179195 1.70292e-16)
(0.999487 -0.000377276 4.69046e-17)
(0.999318 -0.000633096 -1.58825e-16)
(0.999154 -0.000958507 1.02925e-16)
(0.99901 -0.00136177 2.67437e-16)
(0.9989 -0.00183906 -4.1968e-16)
(0.998839 -0.00241847 -2.32307e-16)
(0.998805 -0.00307615 1.01329e-15)
(0.998951 -0.00401102 6.39968e-16)
(0.99829 -0.00516863 -2.93684e-16)
(1.00033 -0.00680334 6.06953e-16)
(0.993278 -0.0116586 -6.36194e-16)
(0.999958 0.00022942 1.83964e-17)
(0.999884 0.000119481 -9.50672e-17)
(0.99977 -2.09115e-05 -1.86893e-16)
(0.999623 -0.000195368 -5.31077e-17)
(0.999456 -0.000415353 1.09812e-16)
(0.999285 -0.00069455 -1.09256e-16)
(0.999121 -0.00104438 1.48775e-16)
(0.99898 -0.001473 1.3177e-16)
(0.998872 -0.00197649 2.92447e-16)
(0.998817 -0.00258424 -1.00882e-16)
(0.998779 -0.00327055 2.96831e-18)
(0.998953 -0.00422099 -3.92872e-16)
(0.998266 -0.00543864 1.85778e-17)
(0.999705 -0.00695351 -4.80794e-16)
(0.994067 -0.0109572 7.97917e-17)
(0.999946 0.000271883 3.26336e-18)
(0.999869 0.000144801 -3.56845e-17)
(0.999753 -1.31981e-05 -2.91066e-17)
(0.999606 -0.000205055 1.76314e-16)
(0.999442 -0.000442256 -2.21228e-16)
(0.999277 -0.000737659 2.76494e-16)
(0.999121 -0.00110133 -6.2179e-16)
(0.998989 -0.0015409 -3.71526e-16)
(0.998891 -0.00205228 -1.52365e-16)
(0.998845 -0.00266587 6.75301e-16)
(0.998806 -0.00335514 -7.73799e-16)
(0.998999 -0.0042859 3.00939e-16)
(0.998331 -0.00551294 4.6305e-16)
(0.999271 -0.00688358 -9.8403e-17)
(0.994617 -0.0101641 -1.29525e-16)
(0.999933 0.000314905 1.51529e-17)
(0.999853 0.000171225 3.2374e-17)
(0.999739 -3.22937e-06 2.51032e-17)
(0.999596 -0.000210687 -1.51361e-16)
(0.999438 -0.000462547 3.30034e-16)
(0.999282 -0.000770465 -1.40129e-16)
(0.999138 -0.00114275 2.02375e-16)
(0.99902 -0.00158625 -1.46955e-16)
(0.998933 -0.00209683 3.99638e-16)
(0.998899 -0.00270586 1.78836e-16)
(0.998857 -0.00338846 2.46574e-16)
(0.999057 -0.00428887 -5.70582e-17)
(0.998432 -0.00551282 -5.12329e-16)
(0.998986 -0.00676813 1.16845e-15)
(0.995019 -0.00956086 1.99198e-16)
(0.999918 0.000358519 -1.12429e-17)
(0.999836 0.000198418 9.92225e-17)
(0.999723 7.59674e-06 1.51249e-16)
(0.999583 -0.000215715 1.12286e-16)
(0.999431 -0.000483102 -4.90413e-16)
(0.999283 -0.000805073 1.41511e-16)
(0.999149 -0.00118818 3.2207e-16)
(0.999042 -0.00163835 7.7612e-16)
(0.998965 -0.00215125 -3.87445e-16)
(0.998942 -0.00275878 9.06187e-17)
(0.998898 -0.00343906 4.52525e-16)
(0.999098 -0.00431453 -3.27025e-16)
(0.998528 -0.00553335 -1.5647e-16)
(0.998803 -0.00670363 -3.9092e-16)
(0.995375 -0.00910108 8.94727e-17)
(0.999902 0.00040277 4.07835e-17)
(0.999817 0.000226323 -8.99791e-17)
(0.999705 1.90326e-05 8.87923e-18)
(0.999568 -0.000220509 -1.10543e-16)
(0.999421 -0.000504271 4.12114e-16)
(0.999279 -0.000841732 7.99233e-17)
(0.999153 -0.00123791 2.71413e-16)
(0.999055 -0.00169776 -5.75829e-16)
(0.998987 -0.00221656 4.18139e-17)
(0.998973 -0.00282596 -7.91729e-17)
(0.998929 -0.00350733 -1.40726e-16)
(0.999123 -0.0043613 4.45782e-17)
(0.998613 -0.00556634 6.01756e-16)
(0.998695 -0.00666288 -8.25966e-16)
(0.995718 -0.00870486 -2.86127e-16)
(0.999885 0.000447675 -2.6285e-17)
(0.999797 0.000254918 3.53449e-17)
(0.999685 3.11758e-05 -1.47971e-16)
(0.999552 -0.00022443 2.50782e-16)
(0.99941 -0.000524198 -3.62888e-16)
(0.999276 -0.000876606 -3.04292e-16)
(0.999157 -0.00128541 -3.40342e-16)
(0.999068 -0.00175477 3.93001e-17)
(0.999009 -0.00227949 -8.18666e-17)
(0.999003 -0.00289039 -4.27282e-16)
(0.998961 -0.00357207 -7.26924e-16)
(0.999145 -0.00440416 2.88869e-16)
(0.998692 -0.00558528 -3.33679e-16)
(0.998639 -0.00661375 9.31577e-16)
(0.996041 -0.00835207 5.68874e-17)
(0.999865 0.00049322 -2.46126e-17)
(0.999775 0.000284098 -1.04516e-16)
(0.999664 4.38593e-05 1.51193e-16)
(0.999536 -0.000227569 -2.34945e-16)
(0.999401 -0.000542601 7.7154e-17)
(0.999274 -0.000908676 4.56034e-16)
(0.999164 -0.00132857 5.56437e-17)
(0.999085 -0.00180589 -6.76927e-17)
(0.999034 -0.0023351 1.82582e-16)
(0.999037 -0.00294589 -1.57976e-16)
(0.998997 -0.00362619 -9.58786e-17)
(0.999168 -0.00443624 -6.74955e-17)
(0.998765 -0.00558757 -2.9187e-16)
(0.998618 -0.00655645 -6.3819e-16)
(0.996334 -0.00804602 1.30977e-17)
(0.999845 0.000539386 -2.18178e-18)
(0.999751 0.000313742 1.40878e-16)
(0.999641 5.67731e-05 -2.22193e-16)
(0.999518 -0.000230571 8.36903e-17)
(0.99939 -0.000560552 -9.39141e-17)
(0.999272 -0.000939545 -1.55396e-16)
(0.999172 -0.00136954 -3.90713e-17)
(0.999102 -0.00185385 3.66916e-16)
(0.99906 -0.00238675 -6.33931e-16)
(0.999072 -0.00299664 4.23149e-16)
(0.999035 -0.00367493 2.22361e-16)
(0.999192 -0.00446438 1.86133e-16)
(0.99883 -0.00558356 7.61986e-16)
(0.998617 -0.0065016 7.49866e-16)
(0.996595 -0.00778546 5.79197e-16)
(0.999823 0.000586156 8.32291e-18)
(0.999726 0.000343774 5.30213e-17)
(0.999616 6.9699e-05 1.76603e-16)
(0.999498 -0.000233959 5.59613e-17)
(0.999377 -0.000579064 1.71283e-16)
(0.999268 -0.000970913 1.68758e-16)
(0.999177 -0.00141083 -1.19018e-17)
(0.999118 -0.00190201 4.95547e-17)
(0.999084 -0.00243865 9.4327e-16)
(0.999104 -0.00304773 -1.14707e-16)
(0.999071 -0.00372404 5.4685e-16)
(0.999214 -0.00449473 -7.47388e-16)
(0.998886 -0.00558027 1.39342e-16)
(0.998629 -0.00645316 -1.38118e-15)
(0.996831 -0.00756227 -6.4981e-16)
(0.999799 0.000633517 9.96342e-18)
(0.999698 0.000374174 -1.18004e-16)
(0.999589 8.26074e-05 1.55269e-16)
(0.999474 -0.000237847 -2.24873e-16)
(0.99936 -0.000598436 1.57434e-16)
(0.99926 -0.0010034 2.08096e-17)
(0.999179 -0.00145344 1.95931e-16)
(0.999129 -0.0019517 -2.61371e-16)
(0.999104 -0.00249237 -8.4407e-16)
(0.999133 -0.0031008 2.51035e-16)
(0.999106 -0.00377497 -5.65086e-16)
(0.999235 -0.00452816 1.14085e-16)
(0.998937 -0.00557841 -4.98495e-16)
(0.99865 -0.00640912 2.72821e-16)
(0.997044 -0.00736815 -1.14261e-16)
(0.999774 0.000681452 3.33175e-17)
(0.999669 0.000404951 7.20843e-17)
(0.999559 9.55839e-05 -3.60068e-16)
(0.999448 -0.000242049 2.89379e-16)
(0.99934 -0.000618409 -2.81027e-16)
(0.999248 -0.0010367 -3.74548e-16)
(0.999177 -0.00149704 -3.84734e-16)
(0.999137 -0.00200252 3.39386e-16)
(0.999121 -0.00254734 7.23218e-16)
(0.999159 -0.00315503 1.642e-16)
(0.999138 -0.00382648 9.5537e-17)
(0.999256 -0.00456285 7.0875e-17)
(0.998984 -0.00557649 -7.45407e-16)
(0.998677 -0.00636719 6.60949e-17)
(0.997238 -0.00719801 6.65154e-16)
(0.999747 0.000729943 -8.98729e-17)
(0.999637 0.000436125 -9.26516e-17)
(0.999527 0.00010876 3.43901e-17)
(0.999419 -0.000246272 -2.65256e-16)
(0.999318 -0.000638529 -1.80382e-17)
(0.999234 -0.00107023 4.83701e-16)
(0.999172 -0.00154094 5.5328e-17)
(0.999143 -0.00205365 3.05714e-16)
(0.999137 -0.00260256 -6.06541e-16)
(0.999183 -0.00320932 -3.11889e-16)
(0.99917 -0.00387737 4.48571e-16)
(0.999278 -0.00459751 -1.50829e-16)
(0.999028 -0.0055741 4.91904e-16)
(0.998711 -0.00632731 7.69631e-16)
(0.997415 -0.00704937 -6.28239e-17)
(0.999718 0.000778963 2.81552e-17)
(0.999605 0.000467708 1.15071e-17)
(0.999494 0.000122239 1.1598e-16)
(0.999389 -0.00025027 2.26575e-18)
(0.999293 -0.000658421 9.92416e-17)
(0.999218 -0.00110352 -2.90867e-16)
(0.999165 -0.00158459 6.01088e-16)
(0.999147 -0.00210453 -1.54291e-16)
(0.99915 -0.00265753 6.56486e-16)
(0.999206 -0.00326329 -3.43817e-16)
(0.999201 -0.0039275 -5.48347e-16)
(0.999301 -0.00463222 5.30656e-16)
(0.999072 -0.00557225 -8.99408e-16)
(0.998749 -0.00629067 -1.33715e-15)
(0.997578 -0.00692018 -3.45703e-16)
(0.999688 0.000828489 3.13481e-18)
(0.99957 0.000499704 1.95527e-17)
(0.999459 0.000136089 -3.13134e-17)
(0.999357 -0.000253896 1.59222e-16)
(0.999267 -0.000677893 1.09244e-16)
(0.9992 -0.00113636 -4.28544e-17)
(0.999157 -0.00162786 -3.62318e-16)
(0.999149 -0.00215512 -3.49477e-16)
(0.999162 -0.00271235 -2.36399e-16)
(0.999226 -0.00331726 4.36118e-16)
(0.999231 -0.00397748 3.38496e-16)
(0.999326 -0.00466777 -4.9903e-16)
(0.999114 -0.00557219 1.11412e-15)
(0.998792 -0.00625814 1.40875e-15)
(0.997731 -0.00680785 4.85821e-17)
(0.999656 0.000878494 3.58464e-17)
(0.999534 0.000532108 -4.77309e-17)
(0.999423 0.000150327 2.30161e-16)
(0.999323 -0.000257111 -4.58549e-17)
(0.999239 -0.000696931 -1.7508e-16)
(0.99918 -0.00116882 7.42556e-17)
(0.999147 -0.00167088 -1.30331e-16)
(0.999149 -0.00220567 2.95095e-16)
(0.999172 -0.00276739 7.7637e-17)
(0.999245 -0.00337175 5.43371e-17)
(0.99926 -0.00402796 -2.59624e-16)
(0.99935 -0.00470469 3.45539e-16)
(0.999156 -0.00557448 1.77036e-16)
(0.998839 -0.0062296 1.59616e-16)
(0.997876 -0.00670932 4.12383e-16)
(0.999622 0.000928957 -1.84282e-17)
(0.999497 0.000564913 2.73234e-17)
(0.999385 0.000164957 -3.73095e-16)
(0.999288 -0.000259934 -2.38788e-16)
(0.999209 -0.000715612 3.3061e-16)
(0.999158 -0.00120104 -8.9539e-17)
(0.999134 -0.0017139 5.23304e-16)
(0.999146 -0.00225649 -1.42151e-16)
(0.99918 -0.00282298 -7.54846e-18)
(0.999262 -0.00342707 -1.51077e-16)
(0.999287 -0.00407918 3.88602e-16)
(0.999375 -0.00474295 -2.456e-16)
(0.999198 -0.00557886 -8.11303e-16)
(0.998889 -0.00620414 -1.94755e-16)
(0.998016 -0.0066217 -4.70712e-16)
(0.999587 0.00097986 2.48076e-17)
(0.999458 0.000598113 1.12889e-16)
(0.999345 0.00017997 3.36282e-16)
(0.999251 -0.000262398 2.61084e-16)
(0.999177 -0.000734026 -3.21911e-17)
(0.999133 -0.00123319 -1.30842e-16)
(0.999119 -0.00175711 -5.7933e-16)
(0.999142 -0.00230777 -6.73915e-17)
(0.999186 -0.00287925 -3.44588e-16)
(0.999277 -0.00348321 1.11735e-16)
(0.999312 -0.00413092 -7.12338e-16)
(0.9994 -0.00478196 3.44524e-16)
(0.999241 -0.00558456 1.16881e-15)
(0.998944 -0.00618063 -9.08815e-16)
(0.998153 -0.00654256 5.48349e-16)
(0.99955 0.00103119 -2.00035e-17)
(0.999417 0.000631706 -1.58841e-16)
(0.999303 0.000195374 -1.92466e-16)
(0.999211 -0.000264507 -9.60284e-17)
(0.999143 -0.000752199 -6.15214e-17)
(0.999107 -0.0012653 8.44971e-17)
(0.999101 -0.00180053 -3.23769e-17)
(0.999135 -0.00235948 -4.44948e-16)
(0.999189 -0.00293602 -1.31076e-16)
(0.99929 -0.00353982 -3.30297e-17)
(0.999337 -0.00418266 6.48418e-16)
(0.999426 -0.00482089 1.08745e-16)
(0.999284 -0.00559067 -9.7177e-16)
(0.999001 -0.00615805 5.19986e-16)
(0.998287 -0.00647027 -1.06063e-16)
(0.999512 0.00108292 1.80701e-17)
(0.999374 0.000665689 9.33954e-17)
(0.99926 0.00021118 9.26362e-17)
(0.99917 -0.000266236 1.80225e-16)
(0.999107 -0.000770089 -9.82303e-17)
(0.999078 -0.00129729 -2.76445e-17)
(0.999082 -0.00184403 1.99819e-16)
(0.999126 -0.00241135 2.98762e-16)
(0.999191 -0.00299289 -2.15623e-17)
(0.999302 -0.00359635 -3.61397e-16)
(0.99936 -0.00423371 -2.78261e-16)
(0.999453 -0.00485894 -4.90429e-16)
(0.999328 -0.00559646 2.06469e-17)
(0.999061 -0.00613583 2.69229e-16)
(0.998418 -0.00640393 -1.65719e-16)
(0.999472 0.00113505 -9.66189e-18)
(0.99933 0.000700054 -5.52701e-17)
(0.999214 0.000227403 1.4069e-16)
(0.999127 -0.00026754 1.47635e-17)
(0.999069 -0.000787599 -1.25052e-16)
(0.999047 -0.001329 1.00884e-16)
(0.999061 -0.00188733 -4.82134e-17)
(0.999116 -0.00246302 2.75494e-16)
(0.999193 -0.0030494 5.0942e-16)
(0.999313 -0.00365222 7.91904e-17)
(0.999384 -0.00428352 2.40158e-16)
(0.999482 -0.00489555 2.45059e-16)
(0.999374 -0.00560161 6.07509e-17)
(0.999123 -0.00611393 -5.53961e-16)
(0.998545 -0.00634345 1.36568e-16)
(0.99943 0.00118755 1.29426e-17)
(0.999284 0.000734786 1.16408e-17)
(0.999167 0.000244041 -2.87427e-16)
(0.999082 -0.000268387 -1.25614e-16)
(0.999029 -0.000804641 1.76676e-16)
(0.999015 -0.00136026 -2.75907e-17)
(0.999038 -0.00193019 1.84631e-16)
(0.999105 -0.00251416 -2.45369e-16)
(0.999193 -0.00310514 1.39998e-16)
(0.999324 -0.00370706 1.16553e-16)
(0.999408 -0.00433182 1.23254e-16)
(0.999511 -0.00493064 1.5722e-16)
(0.99942 -0.00560631 2.19513e-16)
(0.999188 -0.00609286 3.1127e-17)
(0.998668 -0.00628899 8.02988e-17)
(0.999386 0.0012404 -3.98214e-17)
(0.999236 0.000769855 1.05418e-16)
(0.999119 0.000261073 1.65039e-16)
(0.999036 -0.000268777 -1.05685e-16)
(0.998988 -0.000821176 -6.87341e-17)
(0.998982 -0.00139098 3.91397e-17)
(0.999015 -0.00197245 -2.01139e-16)
(0.999093 -0.00256459 -1.31699e-16)
(0.999193 -0.00315997 -1.73115e-16)
(0.999336 -0.00376081 2.75472e-16)
(0.999432 -0.00437875 -3.82782e-16)
(0.999542 -0.00496456 2.99755e-16)
(0.999467 -0.00561122 1.47448e-16)
(0.999253 -0.00607345 5.56044e-16)
(0.998787 -0.00624093 -5.16948e-16)
(0.999341 0.00129357 1.68033e-17)
(0.999187 0.000805219 -7.93466e-17)
(0.999068 0.000278448 5.81179e-17)
(0.998988 -0.000268766 1.28589e-16)
(0.998945 -0.000837252 -8.91866e-17)
(0.998947 -0.00142119 -1.50795e-16)
(0.998991 -0.00201416 -7.1432e-17)
(0.99908 -0.00261439 9.84999e-17)
(0.999193 -0.00321404 -4.50944e-16)
(0.999346 -0.00381376 6.66223e-17)
(0.999455 -0.00442483 2.54361e-16)
(0.999573 -0.00499804 -7.1268e-16)
(0.999515 -0.00561718 1.4453e-16)
(0.99932 -0.00605658 2.23207e-17)
(0.998901 -0.00619945 3.81029e-16)
(0.999293 0.00134702 -6.38815e-18)
(0.999136 0.000840827 9.72499e-17)
(0.999016 0.000296093 -9.39897e-17)
(0.998938 -0.00026845 -5.83598e-17)
(0.998902 -0.00085299 -9.31188e-17)
(0.998912 -0.00145104 -4.92675e-17)
(0.998966 -0.00205551 -1.06281e-16)
(0.999067 -0.00266382 7.59271e-17)
(0.999192 -0.00326774 2.92138e-17)
(0.999357 -0.00386644 -3.12624e-16)
(0.999479 -0.00447077 -3.73566e-16)
(0.999604 -0.0050319 4.1543e-16)
(0.999563 -0.00562503 -3.64146e-16)
(0.999387 -0.00604291 -1.16786e-16)
(0.999012 -0.00616433 -1.16602e-17)
(0.999245 0.0014007 -1.93304e-17)
(0.999083 0.000876622 -4.49247e-17)
(0.998963 0.000313919 3.17427e-17)
(0.998888 -0.000267962 2.26276e-16)
(0.998857 -0.000868568 3.78034e-16)
(0.998875 -0.00148076 3.08758e-16)
(0.998939 -0.00209678 3.37517e-16)
(0.999052 -0.00271325 -2.15465e-16)
(0.99919 -0.00332153 5.83986e-20)
(0.999366 -0.00391941 2.34149e-16)
(0.999501 -0.00451725 4.61741e-17)
(0.999635 -0.00506683 2.55299e-16)
(0.999611 -0.00563532 2.05994e-16)
(0.999455 -0.00603273 -5.43619e-16)
(0.999119 -0.00613501 -3.62131e-16)
(0.999194 0.00145459 9.94572e-18)
(0.999029 0.00091254 -8.11998e-17)
(0.998908 0.00033183 -1.62484e-16)
(0.998835 -0.000267446 -1.59553e-16)
(0.99881 -0.000884184 1.46732e-17)
(0.998837 -0.0015106 -1.74319e-16)
(0.998912 -0.00213828 -3.79748e-16)
(0.999036 -0.00276304 2.90035e-16)
(0.999187 -0.00337584 2.36077e-16)
(0.999374 -0.00397316 -5.21151e-16)
(0.999522 -0.00456475 4.28205e-16)
(0.999665 -0.00510325 -3.12915e-16)
(0.999658 -0.00564829 -1.44828e-16)
(0.999522 -0.006026 -1.27561e-16)
(0.999223 -0.00611081 1.54236e-16)
(0.999142 0.00150862 3.78605e-17)
(0.998973 0.000948521 1.74235e-17)
(0.998851 0.000349731 8.78823e-17)
(0.998781 -0.000267046 4.08407e-17)
(0.998762 -0.000900035 4.8072e-17)
(0.998797 -0.00154081 3.01498e-16)
(0.998882 -0.00218028 -1.36307e-16)
(0.999019 -0.0028135 1.49041e-16)
(0.999182 -0.00343096 8.56414e-17)
(0.999381 -0.00402797 5.97383e-17)
(0.999542 -0.00461354 1.9941e-16)
(0.999696 -0.00514131 -4.2615e-17)
(0.999705 -0.00566387 9.5084e-18)
(0.99959 -0.00602246 8.89542e-16)
(0.999325 -0.0060909 2.86773e-18)
(0.999088 0.00156275 -3.67493e-17)
(0.998915 0.000984505 -1.26981e-17)
(0.998792 0.000367538 5.74593e-17)
(0.998725 -0.00026689 -1.75257e-16)
(0.998711 -0.000916298 -2.80832e-16)
(0.998755 -0.0015716 -2.69202e-16)
(0.998851 -0.00222302 2.28213e-16)
(0.999 -0.00286484 -8.35151e-17)
(0.999176 -0.00348711 9.74995e-18)
(0.999387 -0.00408398 -5.06819e-18)
(0.999562 -0.00466368 -2.75412e-16)
(0.999725 -0.00518095 -2.49543e-16)
(0.999752 -0.00568185 -1.61559e-16)
(0.999658 -0.00602173 2.47122e-17)
(0.999425 -0.00607463 -5.64734e-17)
(0.999033 0.00161692 -1.83469e-17)
(0.998856 0.00102043 4.85803e-17)
(0.998731 0.000385173 4.78157e-17)
(0.998666 -0.000267088 7.78419e-17)
(0.998659 -0.000933119 1.06517e-16)
(0.998712 -0.00160314 1.68422e-18)
(0.998818 -0.00226667 2.28129e-16)
(0.998978 -0.00291722 -5.09021e-16)
(0.999168 -0.00354437 2.59796e-16)
(0.999391 -0.00414121 2.65246e-16)
(0.999579 -0.00471511 -3.80095e-16)
(0.999755 -0.00522201 7.1159e-16)
(0.999798 -0.00570193 3.76059e-16)
(0.999725 -0.00602342 -7.05525e-16)
(0.999523 -0.0060613 -2.1288e-16)
(0.998975 0.0016711 3.79405e-17)
(0.998794 0.00105625 2.94752e-17)
(0.998669 0.000402576 4.60542e-18)
(0.998606 -0.000267719 -3.48968e-17)
(0.998604 -0.000950603 2.02533e-17)
(0.998665 -0.00163556 2.85879e-16)
(0.998783 -0.00231136 -4.61014e-17)
(0.998955 -0.00297073 3.26665e-16)
(0.999158 -0.00360279 -4.83669e-17)
(0.999394 -0.00419963 -2.93427e-16)
(0.999596 -0.00476772 6.08139e-16)
(0.999783 -0.00526428 -3.65822e-16)
(0.999844 -0.0057238 -4.97195e-16)
(0.999792 -0.00602716 2.11586e-16)
(0.999621 -0.00605039 3.58695e-16)
(0.998916 0.00172522 -3.15512e-17)
(0.998731 0.00109191 -1.33067e-17)
(0.998604 0.000419698 -1.736e-16)
(0.998544 -0.000268833 -8.48773e-17)
(0.998547 -0.00096881 5.22963e-17)
(0.998617 -0.00166893 -2.88608e-16)
(0.998745 -0.00235715 -8.4887e-17)
(0.99893 -0.00302541 2.84734e-16)
(0.999146 -0.00366235 -2.41001e-16)
(0.999395 -0.00425916 7.07455e-17)
(0.999612 -0.00482136 -3.38638e-16)
(0.999812 -0.00530757 1.06841e-17)
(0.99989 -0.00574717 2.69108e-16)
(0.999859 -0.00603259 1.42552e-16)
(0.999716 -0.0060414 -5.63151e-17)
(0.998856 0.00177923 3.00995e-17)
(0.998667 0.00112737 -9.77069e-17)
(0.998538 0.000436503 8.20511e-17)
(0.998479 -0.00027045 5.37243e-17)
(0.998488 -0.000987744 -4.05241e-17)
(0.998567 -0.00170324 -1.73374e-16)
(0.998706 -0.00240403 5.25991e-17)
(0.998904 -0.00308122 -1.30537e-16)
(0.999133 -0.00372298 -2.20304e-16)
(0.999396 -0.00431966 -2.75769e-17)
(0.999628 -0.00487587 -4.89448e-16)
(0.999841 -0.00535163 5.0211e-16)
(0.999936 -0.00577176 3.91737e-17)
(0.999926 -0.00603941 -8.13676e-17)
(0.999811 -0.00603409 -8.02607e-18)
(0.998793 0.00183309 -3.69188e-17)
(0.9986 0.00116256 1.00585e-16)
(0.998469 0.000452966 -2.31154e-17)
(0.998413 -0.00027256 -2.10665e-16)
(0.998427 -0.00100736 -1.00419e-16)
(0.998514 -0.00173841 1.16711e-16)
(0.998664 -0.00245188 -1.71358e-16)
(0.998875 -0.00313804 -1.92075e-16)
(0.999119 -0.00378453 3.27166e-16)
(0.999396 -0.00438096 1.13964e-16)
(0.999643 -0.00493102 5.13593e-16)
(0.999869 -0.00539624 -3.87198e-16)
(0.999982 -0.00579728 1.39674e-16)
(0.999992 -0.00604735 -1.58283e-16)
(0.999905 -0.00602817 5.34841e-18)
(0.998729 0.00188673 2.28509e-17)
(0.998532 0.00119746 -5.82076e-17)
(0.9984 0.000469065 7.23348e-17)
(0.998345 -0.000275138 3.13892e-16)
(0.998364 -0.00102757 1.33268e-16)
(0.99846 -0.00177431 8.27209e-17)
(0.998621 -0.00250054 3.40376e-16)
(0.998845 -0.00319565 1.61869e-16)
(0.999104 -0.00384677 -2.6684e-16)
(0.999394 -0.00444282 4.55197e-16)
(0.999657 -0.00498659 2.53566e-16)
(0.999897 -0.00544116 -2.15098e-16)
(1.00003 -0.00582353 -4.12987e-16)
(1.00006 -0.00605624 -1.61529e-16)
(0.999997 -0.00602365 6.31992e-17)
(0.998663 0.00194011 4.69195e-18)
(0.998462 0.001232 -1.24016e-16)
(0.998328 0.000484776 -9.20731e-17)
(0.998275 -0.000278158 -2.16142e-16)
(0.9983 -0.00104828 3.4738e-17)
(0.998404 -0.00181075 -3.35951e-16)
(0.998577 -0.00254977 -3.61375e-16)
(0.998814 -0.0032538 -1.45463e-16)
(0.999088 -0.00390944 3.10171e-16)
(0.999393 -0.00450496 -3.29843e-16)
(0.999671 -0.00504234 1.16849e-16)
(0.999926 -0.00548623 2.17696e-16)
(1.00007 -0.00585039 3.31703e-16)
(1.00012 -0.00606605 2.03716e-16)
(1.00009 -0.00602058 1.75309e-17)
(0.998596 0.00199318 3.29813e-17)
(0.998391 0.00126614 2.02696e-16)
(0.998255 0.000500065 9.43791e-17)
(0.998204 -0.000281605 1.81453e-16)
(0.998235 -0.00106939 1.08778e-16)
(0.998347 -0.00184759 4.58717e-17)
(0.998532 -0.00259935 5.29522e-17)
(0.998783 -0.00331223 -1.21755e-16)
(0.999071 -0.00397228 -1.23568e-16)
(0.999391 -0.00456719 1.44976e-17)
(0.999685 -0.00509813 -7.98326e-16)
(0.999954 -0.00553139 -3.12526e-16)
(1.00012 -0.00587788 3.29855e-16)
(1.00019 -0.00607693 -7.40317e-17)
(1.00018 -0.00601932 -2.07739e-16)
(0.998527 0.00204588 -4.43289e-17)
(0.998318 0.00129982 -1.29895e-16)
(0.998181 0.000514888 -1.86632e-16)
(0.998132 -0.000285494 6.13404e-17)
(0.998168 -0.00109088 -2.06367e-16)
(0.99829 -0.00188471 3.84565e-17)
(0.998486 -0.00264913 -4.76395e-17)
(0.99875 -0.00337078 -8.70605e-18)
(0.999053 -0.00403515 -1.47672e-16)
(0.999388 -0.00462941 -7.75225e-17)
(0.999698 -0.00515397 2.74843e-17)
(0.999983 -0.00557676 2.71429e-16)
(1.00017 -0.00590621 -1.37288e-16)
(1.00025 -0.00608916 2.72772e-16)
(1.00026 -0.00602011 9.76658e-17)
(0.998456 0.00209818 2.36928e-17)
(0.998243 0.001333 1.24442e-16)
(0.998105 0.00052919 2.37116e-16)
(0.998059 -0.000289878 -6.85446e-17)
(0.998101 -0.00111277 -1.6637e-17)
(0.998231 -0.00192212 2.52052e-16)
(0.998439 -0.00269906 2.14456e-16)
(0.998717 -0.00342941 -1.47056e-16)
(0.999036 -0.00409805 3.94313e-16)
(0.999386 -0.00469169 3.58149e-16)
(0.999712 -0.00521003 3.81448e-16)
(1.00001 -0.00562262 -1.76477e-17)
(1.00021 -0.00593573 -3.04395e-16)
(1.00032 -0.00610315 -3.21699e-16)
(1.00035 -0.00602333 -3.14068e-17)
(0.998383 0.00215002 -2.03022e-17)
(0.998167 0.00136563 -6.57153e-17)
(0.998027 0.000542902 -1.96537e-16)
(0.997984 -0.000294843 1.26544e-16)
(0.998032 -0.00113516 1.21484e-16)
(0.998172 -0.0019599 -1.68776e-16)
(0.998392 -0.00274928 -8.52554e-17)
(0.998684 -0.00348825 8.42612e-18)
(0.999017 -0.00416116 -1.75241e-16)
(0.999383 -0.0047543 -3.06877e-16)
(0.999725 -0.00526665 -5.67153e-16)
(1.00004 -0.0056694 6.14025e-17)
(1.00026 -0.00596686 3.71666e-16)
(1.00038 -0.00611929 3.38601e-16)
(1.00043 -0.00602905 -7.21494e-17)
(0.998309 0.00220136 -1.61564e-17)
(0.998089 0.00139766 -1.32189e-17)
(0.997948 0.000555957 1.71994e-16)
(0.997908 -0.000300498 -1.62357e-16)
(0.997962 -0.00115821 -3.20994e-16)
(0.998111 -0.00199829 1.55863e-16)
(0.998343 -0.00280003 8.85035e-17)
(0.998649 -0.00354762 4.10113e-16)
(0.998998 -0.00422486 5.86973e-17)
(0.999379 -0.00481764 2.85764e-16)
(0.999737 -0.00532431 8.49919e-16)
(1.00007 -0.00571757 -2.33705e-16)
(1.0003 -0.00600003 -9.95312e-17)
(1.00045 -0.00613789 -1.18131e-17)
(1.00051 -0.00603738 -2.87365e-17)
(0.998233 0.00225216 4.51851e-17)
(0.998009 0.00142905 4.93889e-17)
(0.997868 0.000568291 -1.47927e-16)
(0.997829 -0.000306962 1.37483e-16)
(0.99789 -0.00118211 -9.25873e-17)
(0.998049 -0.00203753 -2.98239e-16)
(0.998294 -0.00285165 1.31179e-17)
(0.998613 -0.00360791 -3.52741e-17)
(0.998978 -0.00428958 -2.17678e-16)
(0.999374 -0.0048822 1.83725e-16)
(0.999749 -0.00538347 -7.93388e-16)
(1.0001 -0.00576756 -1.44745e-17)
(1.00035 -0.00603552 -1.77808e-16)
(1.00051 -0.00615903 3.34229e-17)
(1.00059 -0.00604796 -8.51048e-17)
(0.998155 0.0023024 -1.15304e-17)
(0.997927 0.00145977 -1.17676e-17)
(0.997785 0.000579854 2.04692e-17)
(0.99775 -0.000314337 -1.52891e-16)
(0.997817 -0.00120704 -2.74697e-17)
(0.997985 -0.00207789 3.64171e-16)
(0.998242 -0.00290449 -2.65578e-16)
(0.998576 -0.00366952 -3.29193e-16)
(0.998956 -0.00435576 3.52813e-16)
(0.999368 -0.0049484 -3.19573e-16)
(0.99976 -0.00544451 4.05117e-16)
(1.00012 -0.00581963 3.84161e-16)
(1.00039 -0.0060734 2.7766e-16)
(1.00057 -0.00618258 -1.85844e-16)
(1.00067 -0.00606037 -6.41468e-17)
(0.998076 0.00235204 -1.24354e-17)
(0.997844 0.00148982 -7.22111e-17)
(0.997701 0.000590615 -9.72813e-17)
(0.997668 -0.000322693 7.14316e-17)
(0.997741 -0.00123313 1.81129e-16)
(0.997919 -0.00211961 6.35718e-17)
(0.998188 -0.00295883 2.4683e-16)
(0.998537 -0.00373278 5.39824e-17)
(0.998933 -0.00442371 -4.63888e-16)
(0.999361 -0.00501651 1.62533e-16)
(0.999769 -0.00550758 -2.30109e-16)
(1.00015 -0.00587378 -1.91545e-16)
(1.00044 -0.00611347 -2.589e-16)
(1.00063 -0.00620812 4.11599e-17)
(1.00075 -0.00607397 1.54862e-16)
(0.997995 0.00240104 -1.90879e-17)
(0.997759 0.00151916 3.43948e-17)
(0.997614 0.000600564 4.15429e-17)
(0.997584 -0.000332054 -1.43179e-16)
(0.997663 -0.00126045 6.9908e-17)
(0.997851 -0.00216276 -2.12235e-16)
(0.998133 -0.00301481 -2.60133e-17)
(0.998496 -0.00379784 3.19658e-16)
(0.998908 -0.00449357 -2.04094e-16)
(0.999352 -0.00508657 -2.70094e-16)
(0.999778 -0.00557261 2.32368e-16)
(1.00017 -0.00592979 -6.91296e-17)
(1.00048 -0.00615535 -7.33688e-16)
(1.0007 -0.00623517 7.53063e-17)
(1.00083 -0.00608836 1.11396e-16)
(0.997913 0.00244939 -9.8253e-18)
(0.997672 0.00154781 3.35504e-17)
(0.997526 0.000609709 1.26443e-17)
(0.997498 -0.000342402 1.90847e-17)
(0.997583 -0.00128898 1.20647e-16)
(0.997781 -0.00220735 6.70781e-17)
(0.998075 -0.0030724 -2.2108e-16)
(0.998452 -0.00386464 -2.01983e-17)
(0.998881 -0.00456521 6.11309e-16)
(0.999343 -0.00515838 -1.96315e-16)
(0.999786 -0.00563929 -5.77971e-18)
(1.0002 -0.00598726 2.9153e-17)
(1.00052 -0.00619855 2.82098e-17)
(1.00076 -0.00626319 -5.21294e-17)
(1.00091 -0.00610308 1.75805e-17)
(0.997829 0.00249707 2.58914e-17)
(0.997584 0.00157574 -6.8438e-17)
(0.997436 0.000618069 -7.82115e-17)
(0.99741 -0.000353678 1.48375e-19)
(0.997501 -0.00131861 -1.8218e-16)
(0.997708 -0.00225323 -2.91112e-17)
(0.998015 -0.00313144 4.29249e-17)
(0.998408 -0.00393296 -4.86471e-17)
(0.998853 -0.00463836 -4.13901e-16)
(0.999332 -0.0052316 5.51791e-16)
(0.999794 -0.00570721 -3.15399e-17)
(1.00023 -0.00604571 -5.78859e-17)
(1.00057 -0.00624261 3.42386e-16)
(1.00082 -0.00629183 -3.86264e-16)
(1.00099 -0.00611812 8.25458e-18)
(0.997743 0.00254405 2.74719e-18)
(0.997493 0.00160295 8.21041e-17)
(0.997344 0.000625666 2.20759e-16)
(0.99732 -0.00036581 -5.57023e-17)
(0.997417 -0.00134921 1.18401e-16)
(0.997634 -0.0023002 -1.84102e-16)
(0.997954 -0.00319165 -2.20634e-16)
(0.998362 -0.00400248 5.30583e-18)
(0.998824 -0.00471263 2.41007e-16)
(0.999321 -0.00530579 -4.81626e-16)
(0.999802 -0.00577594 1.20173e-16)
(1.00025 -0.00610477 -2.0932e-17)
(1.00061 -0.00628722 2.64519e-16)
(1.00088 -0.00632093 8.22078e-17)
(1.00107 -0.00613352 -1.29612e-16)
(0.997656 0.00259031 1.05568e-18)
(0.997401 0.00162944 -8.91125e-17)
(0.997251 0.000632514 -1.25998e-16)
(0.997229 -0.000378732 2.08613e-17)
(0.997332 -0.00138064 -2.19976e-17)
(0.997559 -0.00234804 1.67112e-16)
(0.997892 -0.00325274 3.6225e-16)
(0.998315 -0.00407285 -3.21599e-16)
(0.998795 -0.00478768 3.66196e-16)
(0.99931 -0.00538064 3.24064e-17)
(0.999809 -0.00584521 7.20564e-17)
(1.00028 -0.00616427 -1.39473e-16)
(1.00066 -0.00633236 2.70203e-16)
(1.00095 -0.00635063 1.54011e-16)
(1.00115 -0.00614979 2.0359e-16)
(0.997567 0.00263584 -8.63459e-18)
(0.997308 0.00165519 8.50063e-17)
(0.997156 0.000638612 1.55199e-16)
(0.997136 -0.000392402 5.36472e-17)
(0.997246 -0.00141281 1.5701e-16)
(0.997482 -0.00239659 1.2066e-16)
(0.997828 -0.00331451 -3.25335e-16)
(0.998268 -0.00414384 6.52352e-16)
(0.998765 -0.00486328 -2.05396e-16)
(0.999299 -0.00545596 -6.84265e-17)
(0.999817 -0.00591493 -2.48062e-16)
(1.0003 -0.00622423 -1.09201e-16)
(1.0007 -0.00637819 -3.00703e-16)
(1.00101 -0.00638119 -1.11439e-16)
(1.00123 -0.0061672 4.89633e-17)
(0.997476 0.00268063 -3.06644e-17)
(0.997212 0.00168017 -9.09095e-17)
(0.997059 0.000643941 -1.08831e-17)
(0.997042 -0.000406821 1.0673e-16)
(0.997159 -0.00144567 -1.42892e-16)
(0.997405 -0.00244578 -1.04995e-16)
(0.997765 -0.00337687 4.07127e-16)
(0.99822 -0.00421539 -1.2169e-16)
(0.998735 -0.00493939 -5.20486e-16)
(0.999287 -0.0055318 7.17216e-17)
(0.999825 -0.00598525 -1.25965e-16)
(1.00033 -0.00628492 2.33576e-16)
(1.00075 -0.00642504 3.75423e-16)
(1.00107 -0.00641302 3.3634e-16)
(1.00131 -0.00618622 -2.85317e-16)
(0.997384 0.00272468 1.83865e-18)
(0.997115 0.00170438 -1.75369e-17)
(0.996961 0.000648466 -7.26257e-17)
(0.996947 -0.000422032 4.52956e-17)
(0.99707 -0.00147928 -7.92357e-17)
(0.997327 -0.00249566 1.35229e-16)
(0.9977 -0.00343988 -1.16993e-16)