1.45 	0 	0 	-0.00606943 	-0.00270836 	3.92122e-21
2.35 	0 	0 	0.0674082 	-0.00680671 	2.44258e-21
