1.45 	0 	0 	-0.292791
2.35 	0 	0 	-0.128014
