1.45 	0 	0 	-0.306909
2.35 	0 	0 	-0.12133
