1.275 	2.15223e-18 	-2.76991e-20 	-0.031039 	-0.00115003 	-2.06351e-22
1.825 	2.15223e-18 	-1.39322e-20 	0.0296043 	-0.00506466 	1.53327e-21
2.375 	2.15223e-18 	-2.66896e-23 	0.246741 	-0.00661771 	-5.68138e-22
