1.275 	2.15223e-18 	-2.76991e-20 	-0.0343151 	-0.000450974 	-1.95073e-22
1.825 	2.15223e-18 	-1.39322e-20 	-0.00919725 	-0.0027774 	1.7403e-21
2.375 	2.15223e-18 	-2.66896e-23 	0.116065 	-0.00325353 	-7.26399e-22
