/*--------------------------------*- C++ -*----------------------------------*\
  =========                 |
  \\      /  F ield         | OpenFOAM: The Open Source CFD Toolbox
   \\    /   O peration     | Website:  https://openfoam.org
    \\  /    A nd           | Version:  6.0
     \\/     M anipulation  |
\*---------------------------------------------------------------------------*/
FoamFile
{
    version     2.0;
    format      ascii;
    class       surfaceScalarField;
    location    "0.3";
    object      phi;
}
// * * * * * * * * * * * * * * * * * * * * * * * * * * * * * * * * * * * * * //

dimensions      [0 3 -1 0 0 0 0];

internalField   nonuniform List<scalar> 
370
(
-9.09704e-08
9.09267e-08
-6.55375e-07
5.64404e-07
-1.46935e-06
8.1397e-07
-2.30885e-06
8.39497e-07
-3.05145e-06
7.42608e-07
-3.65059e-06
5.99133e-07
-4.10348e-06
4.52894e-07
-4.42698e-06
3.23505e-07
-4.64107e-06
2.14085e-07
-4.75886e-06
1.17792e-07
-4.78124e-06
2.23765e-08
-4.69457e-06
-8.66664e-08
-4.4716e-06
-2.22974e-07
-4.0769e-06
-3.94699e-07
-3.47973e-06
-5.97169e-07
-2.67677e-06
-8.02957e-07
-1.72477e-06
-9.51998e-07
-7.78897e-07
-9.45872e-07
-1.14846e-07
-6.64052e-07
-1.14846e-07
-6.04822e-07
6.95749e-07
-2.05387e-06
2.01346e-06
-3.89267e-06
2.65277e-06
-5.7435e-06
2.69033e-06
-7.38168e-06
2.38079e-06
-8.71318e-06
1.93063e-06
-9.72673e-06
1.46645e-06
-1.04505e-05
1.04726e-06
-1.09206e-05
6.8418e-07
-1.11614e-05
3.58577e-07
-1.11745e-05
3.55153e-08
-1.09349e-05
-3.26238e-07
-1.03935e-05
-7.6442e-07
-9.4883e-06
-1.29988e-06
-8.16887e-06
-1.91661e-06
-6.43617e-06
-2.53566e-06
-4.39831e-06
-2.98986e-06
-2.32874e-06
-3.01544e-06
-6.84734e-07
-2.30805e-06
-7.99581e-07
-1.04665e-06
1.7424e-06
-3.19808e-06
4.16489e-06
-5.71787e-06
5.17256e-06
-8.13449e-06
5.10695e-06
-1.02064e-05
4.45268e-06
-1.18526e-05
3.57684e-06
-1.30835e-05
2.69733e-06
-1.39476e-05
1.91133e-06
-1.44965e-05
1.23311e-06
-1.47644e-05
6.26515e-07
-1.47572e-05
2.83287e-08
-1.44485e-05
-6.34971e-07
-1.37817e-05
-1.43126e-06
-1.26803e-05
-2.40125e-06
-1.10709e-05
-3.52598e-06
-8.92494e-06
-4.68163e-06
-6.32463e-06
-5.59016e-06
-3.5497e-06
-5.79037e-06
-1.15737e-06
-4.70038e-06
-1.95695e-06
-1.41118e-06
3.15357e-06
-4.07079e-06
6.8245e-06
-6.94468e-06
8.04645e-06
-9.5127e-06
7.67497e-06
-1.15855e-05
6.52546e-06
-1.31502e-05
5.14159e-06
-1.42706e-05
3.81767e-06
-1.50283e-05
2.66911e-06
-1.54936e-05
1.6984e-06
-1.57109e-05
8.43781e-07
-1.5693e-05
1.0482e-08
-1.5419e-05
-9.09036e-07
-1.48332e-05
-2.017e-06
-1.38492e-05
-3.38528e-06
-1.23612e-05
-5.01397e-06
-1.02763e-05
-6.76655e-06
-7.58323e-06
-8.28322e-06
-4.47798e-06
-8.89563e-06
-1.55341e-06
-7.62495e-06
-3.51036e-06
-1.76996e-06
4.92353e-06
-4.7229e-06
9.77743e-06
-7.54918e-06
1.08727e-05
-9.79129e-06
9.91708e-06
-1.14046e-05
8.13878e-06
-1.24957e-05
6.23271e-06
-1.32004e-05
4.5223e-06
-1.36341e-05
3.10284e-06
-1.3879e-05
1.94336e-06
-1.39843e-05
9.49053e-07
-1.39689e-05
-4.96444e-09
-1.38222e-05
-1.05575e-06
-1.35005e-05
-2.33862e-06
-1.29199e-05
-3.96593e-06
-1.19486e-05
-5.98524e-06
-1.04149e-05
-8.30029e-06
-8.15854e-06
-1.05396e-05
-5.17955e-06
-1.18746e-05
-1.96174e-06
-1.08428e-05
-5.4721e-06
-2.18735e-06
7.11088e-06
-5.12624e-06
1.27163e-05
-7.34468e-06
1.30912e-05
-8.67332e-06
1.12457e-05
-9.33333e-06
8.79879e-06
-9.58291e-06
6.4823e-06
-9.61922e-06
4.5586e-06
-9.56755e-06
3.05117e-06
-9.49931e-06
1.87511e-06
-9.45258e-06
9.0233e-07
-9.44599e-06
-1.15547e-08
-9.48332e-06
-1.01842e-06
-9.54787e-06
-2.27407e-06
-9.58477e-06
-3.92903e-06
-9.4709e-06
-6.09911e-06
-8.98168e-06
-8.7895e-06
-7.78871e-06
-1.17325e-05
-5.56922e-06
-1.40941e-05
-2.43046e-06
-1.39815e-05
-7.90256e-06
-2.65242e-06
9.76331e-06
-4.97609e-06
1.504e-05
-5.75075e-06
1.38658e-05
-5.4701e-06
1.09651e-05
-4.71679e-06
8.04548e-06
-3.86413e-06
5.62964e-06
-3.1044e-06
3.79888e-06
-2.51525e-06
2.46202e-06
-2.11776e-06
1.47762e-06
-1.91543e-06
7.00002e-07
-1.91551e-06
-1.14723e-08
-2.13681e-06
-7.97132e-07
-2.6049e-06
-1.80598e-06
-3.3309e-06
-3.20303e-06
-4.26526e-06
-5.16475e-06
-5.21996e-06
-7.8348e-06
-5.77099e-06
-1.11815e-05
-5.2092e-06
-1.46559e-05
-2.87806e-06
-1.63127e-05
-1.07806e-05
-2.8359e-06
1.25992e-05
-3.19347e-06
1.53976e-05
-1.33659e-06
1.20089e-05
1.18446e-06
8.44403e-06
3.55209e-06
5.67784e-06
5.47451e-06
3.70722e-06
6.90626e-06
2.36713e-06
7.89859e-06
1.46969e-06
8.52143e-06
8.54787e-07
8.82512e-06
3.96309e-07
8.82349e-06
-9.83481e-09
8.4872e-06
-4.60843e-07
7.7442e-06
-1.06299e-06
6.49121e-06
-1.95004e-06
4.63044e-06
-3.30397e-06
2.15947e-06
-5.36384e-06
-6.42993e-07
-8.37903e-06
-2.88754e-06
-1.24113e-05
-2.83957e-06
-1.63606e-05
-1.36202e-05
-9.57313e-07
1.35565e-05
3.51877e-06
1.09215e-05
9.03532e-06
6.4924e-06
1.36396e-05
3.83975e-06
1.7037e-05
2.28045e-06
1.93973e-05
1.34686e-06
2.09726e-05
7.91869e-07
2.19819e-05
4.60424e-07
2.25819e-05
2.54765e-07
2.2865e-05
1.13225e-07
2.28623e-05
-7.12164e-09
2.25443e-05
-1.42932e-07
2.18166e-05
-3.35248e-07
2.05095e-05
-6.42965e-07
1.83705e-05
-1.16492e-06
1.50836e-05
-2.07699e-06
1.03977e-05
-3.69305e-06
4.55722e-06
-6.57091e-06
-4.56281e-07
-1.13471e-05
-1.40765e-05
1.35565e-05
2.4478e-05
3.09704e-05
3.48102e-05
3.70906e-05
3.84375e-05
3.92293e-05
3.96898e-05
3.99445e-05
4.00577e-05
4.00506e-05
3.99077e-05
3.95724e-05
3.89295e-05
3.77646e-05
3.56876e-05
3.19945e-05
2.54236e-05
1.40765e-05
)
;

boundaryField
{
    movingWall
    {
        type            calculated;
        value           uniform 0;
    }
    fixedWalls
    {
        type            calculated;
        value           uniform 0;
    }
    frontAndBack
    {
        type            empty;
        value           nonuniform 0();
    }
}


// ************************************************************************* //
