1.45 	0 	0 	-0.298779
2.35 	0 	0 	-0.132659
