1.45 	0 	0 	-0.290446
2.35 	0 	0 	-0.1263
