1.275 	2.15223e-18 	-2.76991e-20 	0.0511159 	-0.00593665 	-1.69888e-22
1.825 	2.15223e-18 	-1.39322e-20 	0.278534 	-0.00945108 	4.2866e-22
2.375 	2.15223e-18 	-2.66896e-23 	0.568775 	-0.00795102 	-1.20632e-22
