/*--------------------------------*- C++ -*----------------------------------*\
  =========                 |
  \\      /  F ield         | OpenFOAM: The Open Source CFD Toolbox
   \\    /   O peration     | Website:  https://openfoam.org
    \\  /    A nd           | Version:  6.0
     \\/     M anipulation  |
\*---------------------------------------------------------------------------*/
FoamFile
{
    version     2.0;
    format      ascii;
    class       surfaceScalarField;
    location    "0.4";
    object      phi;
}
// * * * * * * * * * * * * * * * * * * * * * * * * * * * * * * * * * * * * * //

dimensions      [0 3 -1 0 0 0 0];

internalField   nonuniform List<scalar> 
1540
(
1.10573e-08
-1.10774e-08
-4.80518e-09
1.58624e-08
-5.37272e-08
4.89219e-08
-1.2893e-07
7.52027e-08
-2.2167e-07
9.27398e-08
-3.23907e-07
1.02238e-07
-4.29139e-07
1.05232e-07
-5.32574e-07
1.03435e-07
-6.30964e-07
9.83904e-08
-7.22325e-07
9.13607e-08
-8.05634e-07
8.33099e-08
-8.80568e-07
7.49337e-08
-9.47269e-07
6.67008e-08
-1.00616e-06
5.88962e-08
-1.05782e-06
5.1659e-08
-1.10284e-06
4.50148e-08
-1.14174e-06
3.89003e-08
-1.17492e-06
3.31819e-08
-1.20259e-06
2.76698e-08
-1.22472e-06
2.21287e-08
-1.24101e-06
1.62878e-08
-1.25086e-06
9.85125e-09
-1.25337e-06
2.51207e-09
-1.24734e-06
-6.02936e-09
-1.2313e-06
-1.60387e-08
-1.20359e-06
-2.77118e-08
-1.16246e-06
-4.11281e-08
-1.10627e-06
-5.61943e-08
-1.03369e-06
-7.25794e-08
-9.44038e-07
-8.96497e-08
-8.37626e-07
-1.06412e-07
-7.16145e-07
-1.21481e-07
-5.83058e-07
-1.33087e-07
-4.43914e-07
-1.39144e-07
-3.0652e-07
-1.37394e-07
-1.80836e-07
-1.25683e-07
-7.83911e-08
-1.02445e-07
-1.09664e-08
-6.74246e-08
1.26736e-08
-2.36399e-08
1.26738e-08
-1.54237e-08
4.34648e-09
-9.41957e-08
9.46342e-08
-2.39466e-07
1.94192e-07
-4.39617e-07
2.75354e-07
-6.78306e-07
3.31429e-07
-9.39095e-07
3.63028e-07
-1.20771e-06
3.73847e-07
-1.47293e-06
3.6866e-07
-1.72669e-06
3.52149e-07
-1.9637e-06
3.28365e-07
-2.18094e-06
3.0055e-07
-2.37713e-06
2.71131e-07
-2.55223e-06
2.418e-07
-2.70696e-06
2.13625e-07
-2.84247e-06
1.87163e-07
-2.96002e-06
1.62565e-07
-3.06077e-06
1.39655e-07
-3.14559e-06
1.18002e-07
-3.21489e-06
9.69739e-08
-3.26855e-06
7.5779e-08
-3.30577e-06
5.35084e-08
-3.32509e-06
2.91789e-08
-3.32437e-06
1.78558e-09
-3.30077e-06
-2.96283e-08
-3.25093e-06
-6.58792e-08
-3.17112e-06
-1.07522e-07
-3.05755e-06
-1.54696e-07
-2.90679e-06
-2.06951e-07
-2.71633e-06
-2.63041e-07
-2.48524e-06
-3.2074e-07
-2.21497e-06
-3.7668e-07
-1.91016e-06
-4.2629e-07
-1.57938e-06
-4.63869e-07
-1.23564e-06
-4.82884e-07
-8.96481e-07
-4.76555e-07
-5.83306e-07
-4.38859e-07
-3.1961e-07
-3.66142e-07
-1.27614e-07
-2.59421e-07
-2.23588e-08
-1.28895e-07
-9.68493e-09
-5.03923e-08
5.47389e-08
-2.01046e-07
2.45288e-07
-4.4188e-07
4.35026e-07
-7.54383e-07
5.87857e-07
-1.1165e-06
6.93545e-07
-1.5065e-06
7.53027e-07
-1.90535e-06
7.72704e-07
-2.29787e-06
7.61174e-07
-2.67288e-06
7.2716e-07
-3.02294e-06
6.78425e-07
-3.34371e-06
6.21318e-07
-3.63325e-06
5.6068e-07
-3.8914e-06
4.99941e-07
-4.11907e-06
4.41299e-07
-4.31784e-06
3.8593e-07
-4.48945e-06
3.34179e-07
-4.63552e-06
2.85728e-07
-4.75726e-06
2.39741e-07
-4.85526e-06
1.94967e-07
-4.92932e-06
1.49847e-07
-4.9784e-06
1.02589e-07
-5.0005e-06
5.12732e-08
-4.99266e-06
-6.04933e-09
-4.95108e-06
-7.12096e-08
-4.87122e-06
-1.45741e-07
-4.7481e-06
-2.30644e-07
-4.5767e-06
-3.26099e-07
-4.35252e-06
-4.31127e-07
-4.07234e-06
-5.43222e-07
-3.73508e-06
-6.57999e-07
-3.34284e-06
-7.68919e-07
-2.90195e-06
-8.67183e-07
-2.4239e-06
-9.41918e-07
-1.926e-06
-9.80782e-07
-1.43141e-06
-9.71151e-07
-9.68202e-07
-9.02062e-07
-5.67227e-07
-7.67117e-07
-2.58339e-07
-5.68308e-07
-6.52079e-08
-3.22026e-07
-7.48928e-08
-8.28332e-08
1.37572e-07
-3.03295e-07
4.6575e-07
-6.34941e-07
7.66672e-07
-1.04954e-06
1.00246e-06
-1.51862e-06
1.16263e-06
-2.01589e-06
1.2503e-06
-2.51899e-06
1.2758e-06
-3.01029e-06
1.25248e-06
-3.477e-06
1.19387e-06
-3.91067e-06
1.11209e-06
-4.30649e-06
1.01714e-06
-4.66248e-06
9.16667e-07
-4.97867e-06
8.16129e-07
-5.2564e-06
7.19031e-07
-5.49772e-06
6.2725e-07
-5.70488e-06
5.41337e-07
-5.87993e-06
4.60784e-07
-6.02444e-06
3.84252e-07
-6.13923e-06
3.09755e-07
-6.2242e-06
2.34815e-07
-6.27822e-06
1.56611e-07
-6.29907e-06
7.2122e-08
-6.28342e-06
-2.16972e-08
-6.22693e-06
-1.27697e-07
-6.12442e-06
-2.48257e-07
-5.97014e-06
-3.84926e-07
-5.75825e-06
-5.37989e-07
-5.48342e-06
-7.05952e-07
-5.14166e-06
-8.84987e-07
-4.73127e-06
-1.06839e-06
-4.25405e-06
-1.24613e-06
-3.71651e-06
-1.40472e-06
-3.13104e-06
-1.52739e-06
-2.51676e-06
-1.59506e-06
-1.89984e-06
-1.58807e-06
-1.31278e-06
-1.48913e-06
-7.92509e-07
-1.28738e-06
-3.7725e-07
-9.83568e-07
-1.02639e-07
-5.96637e-07
-1.77532e-07
-1.1128e-07
2.48853e-07
-3.95739e-07
7.50208e-07
-8.10558e-07
1.18149e-06
-1.31627e-06
1.50818e-06
-1.87706e-06
1.72341e-06
-2.46202e-06
1.83526e-06
-3.04613e-06
1.8599e-06
-3.61038e-06
1.81673e-06
-4.14146e-06
1.72496e-06
-4.63102e-06
1.60165e-06
-5.07465e-06
1.46077e-06
-5.471e-06
1.31302e-06
-5.82081e-06
1.16594e-06
-6.12614e-06
1.02436e-06
-6.38971e-06
8.9082e-07
-6.61438e-06
7.66006e-07
-6.80273e-06
6.49133e-07
-6.95674e-06
5.38266e-07
-7.07757e-06
4.30584e-07
-7.16536e-06
3.22602e-07
-7.21912e-06
2.1037e-07
-7.23667e-06
8.96749e-08
-7.21464e-06
-4.37227e-08
-7.14854e-06
-1.93805e-07
-7.03287e-06
-3.63924e-07
-6.86146e-06
-5.56336e-07
-6.62783e-06
-7.71618e-07
-6.3258e-06
-1.00798e-06
-5.9503e-06
-1.26049e-06
-5.49837e-06
-1.52032e-06
-4.97041e-06
-1.7741e-06
-4.3716e-06
-2.00353e-06
-3.71338e-06
-2.18561e-06
-3.01475e-06
-2.29369e-06
-2.30308e-06
-2.29974e-06
-1.61414e-06
-2.17807e-06
-9.90885e-07
-1.91064e-06
-4.81032e-07
-1.49342e-06
-1.34055e-07
-9.43615e-07
-3.11587e-07
-1.36171e-07
3.85023e-07
-4.78137e-07
1.09217e-06
-9.67373e-07
1.67073e-06
-1.55241e-06
2.09322e-06
-2.18939e-06
2.36038e-06
-2.84271e-06
2.48858e-06
-3.48511e-06
2.50231e-06
-4.09711e-06
2.42872e-06
-4.66592e-06
2.29376e-06
-5.18425e-06
2.11997e-06
-5.64902e-06
1.92555e-06
-6.06019e-06
1.72419e-06
-6.41973e-06
1.52547e-06
-6.73076e-06
1.33539e-06
-6.99692e-06
1.15698e-06
-7.22182e-06
9.909e-07
-7.40864e-06
8.35956e-07
-7.55988e-06
6.89511e-07
-7.67713e-06
5.47832e-07
-7.7609e-06
4.06365e-07
-7.81051e-06
2.59986e-07
-7.82409e-06
1.0325e-07
-7.79847e-06
-6.93371e-08
-7.7293e-06
-2.62976e-07
-7.61109e-06
-4.82135e-07
-7.43744e-06
-7.29991e-07
-7.20134e-06
-1.00772e-06
-6.89569e-06
-1.31362e-06
-6.51398e-06
-1.64219e-06
-6.0513e-06
-1.98301e-06
-5.50558e-06
-2.31981e-06
-4.87926e-06
-2.62985e-06
-4.18109e-06
-2.88378e-06
-3.42812e-06
-3.04666e-06
-2.6474e-06
-3.08046e-06
-1.87703e-06
-2.94844e-06
-1.16601e-06
-2.62167e-06
-5.72552e-07
-2.08688e-06
-1.61167e-07
-1.355e-06
-4.72753e-07
-1.58509e-07
5.43533e-07
-5.52342e-07
1.48601e-06
-1.10735e-06
2.22573e-06
-1.75939e-06
2.74527e-06
-2.45614e-06
3.05713e-06
-3.15741e-06
3.18986e-06
-3.83442e-06
3.17932e-06
-4.46814e-06
3.06244e-06
-5.04742e-06
2.87304e-06
-5.5671e-06
2.63965e-06
-6.02629e-06
2.38474e-06
-6.42696e-06
2.12486e-06
-6.77278e-06
1.8713e-06
-7.06829e-06
1.6309e-06
-7.3182e-06
1.40689e-06
-7.52697e-06
1.19967e-06
-7.69847e-06
1.00745e-06
-7.83574e-06
8.26782e-07
-7.94085e-06
6.52942e-07
-8.01477e-06
4.80286e-07
-8.05731e-06
3.0252e-07
-8.06702e-06
1.12966e-07
-8.04123e-06
-9.51339e-08
-7.97594e-06
-3.28258e-07
-7.86595e-06
-5.92128e-07
-7.70486e-06
-8.91088e-07
-7.48527e-06
-1.2273e-06
-7.19914e-06
-1.59975e-06
-6.8383e-06
-2.00303e-06
-6.39529e-06
-2.42601e-06
-5.86468e-06
-2.85043e-06
-5.24477e-06
-3.24976e-06
-4.53992e-06
-3.58862e-06
-3.76332e-06
-3.82326e-06
-2.93987e-06
-3.90391e-06
-2.1087e-06
-3.77961e-06
-1.32448e-06
-3.40589e-06
-6.56656e-07
-2.7547e-06
-1.86156e-07
-1.8255e-06
-6.58909e-07
-1.79621e-07
7.23154e-07
-6.214e-07
1.92779e-06
-1.23434e-06
2.83868e-06
-1.94061e-06
3.45154e-06
-2.67916e-06
3.79568e-06
-3.40585e-06
3.91655e-06
-4.09146e-06
3.86493e-06
-4.71879e-06
3.68978e-06
-5.27968e-06
3.43393e-06
-5.77223e-06
3.1322e-06
-6.19864e-06
2.81115e-06
-6.56353e-06
2.48975e-06
-6.87269e-06
2.18046e-06
-7.13224e-06
1.89045e-06
-7.34808e-06
1.62274e-06
-7.52554e-06
1.37713e-06
-7.6691e-06
1.15102e-06
-7.78235e-06
9.40023e-07
-7.86779e-06
7.38388e-07
-7.9269e-06
5.39394e-07
-7.96001e-06
3.35624e-07
-7.96627e-06
1.19236e-07
-7.94366e-06
-1.1775e-07
-7.88882e-06
-3.83095e-07
-7.79708e-06
-6.83872e-07
-7.66233e-06
-1.02583e-06
-7.47707e-06
-1.41256e-06
-7.23248e-06
-1.84435e-06
-6.9187e-06
-2.31682e-06
-6.52547e-06
-2.81924e-06
-6.04326e-06
-3.33264e-06
-5.46506e-06
-3.82796e-06
-4.78909e-06
-4.26459e-06
-4.02243e-06
-4.58992e-06
-3.18539e-06
-4.74095e-06
-2.31598e-06
-4.64901e-06
-1.47339e-06
-4.24849e-06
-7.38671e-07
-3.48942e-06
-2.11263e-07
-2.35291e-06
-8.70172e-07
-2.01169e-07
9.24323e-07
-6.8931e-07
2.41593e-06
-1.35343e-06
3.5028e-06
-2.10028e-06
4.19838e-06
-2.86016e-06
4.55556e-06
-3.58626e-06
4.64265e-06
-4.25083e-06
4.5295e-06
-4.84047e-06
4.27941e-06
-5.35164e-06
3.9451e-06
-5.78704e-06
3.56759e-06
-6.15281e-06
3.17693e-06
-6.45674e-06
2.79368e-06
-6.70695e-06
2.43067e-06
-6.91123e-06
2.09473e-06
-7.07658e-06
1.78808e-06
-7.20902e-06
1.50956e-06
-7.31352e-06
1.25552e-06
-7.394e-06
1.02051e-06
-7.45335e-06
7.97741e-07
-7.49345e-06
5.79487e-07
-7.51515e-06
3.57327e-07
-7.5183e-06
1.22388e-07
-7.50165e-06
-1.34403e-07
-7.46273e-06
-4.22015e-07
-7.39771e-06
-7.48891e-07
-7.30119e-06
-1.12236e-06
-7.16596e-06
-1.54779e-06
-6.98286e-06
-2.02745e-06
-6.74068e-06
-2.55899e-06
-6.42649e-06
-3.13343e-06
-6.02637e-06
-3.73276e-06
-5.52709e-06
-4.32724e-06
-4.91902e-06
-4.87265e-06
-4.20055e-06
-5.30839e-06
-3.3841e-06
-5.55741e-06
-2.50316e-06
-5.52995e-06
-1.61892e-06
-5.13273e-06
-8.23832e-07
-4.2845e-06
-2.38746e-07
-2.93799e-06
-1.10892e-06
-2.25403e-07
1.14973e-06
-7.61247e-07
2.95177e-06
-1.47062e-06
4.21217e-06
-2.24237e-06
4.97013e-06
-2.99888e-06
5.31206e-06
-3.69313e-06
5.3369e-06
-4.30185e-06
5.13822e-06
-4.81816e-06
4.79572e-06
-5.24526e-06
4.37219e-06
-5.59175e-06
3.91409e-06
-5.86854e-06
3.45372e-06
-6.08683e-06
3.01197e-06
-6.25709e-06
2.60093e-06
-6.38852e-06
2.22616e-06
-6.4889e-06
1.88847e-06
-6.56464e-06
1.5853e-06
-6.62085e-06
1.31173e-06
-6.66151e-06
1.06117e-06
-6.68963e-06
8.25864e-07
-6.70735e-06
5.97203e-07
-6.71597e-06
3.65955e-07
-6.71603e-06
1.22446e-07
-6.70717e-06
-1.43269e-07
-6.68801e-06
-4.41175e-07
-6.65592e-06
-7.80977e-07
-6.60668e-06
-1.1716e-06
-6.534e-06
-1.62046e-06
-6.42911e-06
-2.13234e-06
-6.28023e-06
-2.70787e-06
-6.07238e-06
-3.34128e-06
-5.78758e-06
-4.01757e-06
-5.40605e-06
-4.70877e-06
-4.90891e-06
-5.36979e-06
-4.28307e-06
-5.93422e-06
-3.52886e-06
-6.31162e-06
-2.67014e-06
-6.38867e-06
-1.76559e-06
-6.03728e-06
-9.17315e-07
-5.13277e-06
-2.71125e-07
-3.58418e-06
-1.38004e-06
-2.55646e-07
1.40537e-06
-8.4404e-07
3.54017e-06
-1.5925e-06
4.96063e-06
-2.36904e-06
5.74667e-06
-3.09033e-06
6.03336e-06
-3.71363e-06
5.9602e-06
-4.22472e-06
5.64931e-06
-4.62681e-06
5.19781e-06
-4.93222e-06
4.67761e-06
-5.15678e-06
4.13865e-06
-5.31653e-06
3.61346e-06
-5.426e-06
3.12144e-06
-5.49757e-06
2.67249e-06
-5.54129e-06
2.26988e-06
-5.56514e-06
1.91232e-06
-5.5753e-06
1.59546e-06
-5.57653e-06
1.31296e-06
-5.57247e-06
1.05711e-06
-5.56589e-06
8.19291e-07
-5.55895e-06
5.90256e-07
-5.55323e-06
3.60242e-07
-5.54988e-06
1.19092e-07
-5.54948e-06
-1.43671e-07
-5.55193e-06
-4.38727e-07
-5.55614e-06
-7.76767e-07
-5.55959e-06
-1.16815e-06
-5.55771e-06
-1.62234e-06
-5.5431e-06
-2.14695e-06
-5.50464e-06
-2.74633e-06
-5.42661e-06
-3.41931e-06
-5.28814e-06
-4.15604e-06
-5.06348e-06
-4.93344e-06
-4.72387e-06
-5.7094e-06
-4.24226e-06
-6.41583e-06
-3.60197e-06
-6.95191e-06
-2.81017e-06
-7.18047e-06
-1.91531e-06
-6.93214e-06
-1.02453e-06
-6.02355e-06
-3.11691e-07
-4.29703e-06
-1.69173e-06
-2.97116e-07
1.70249e-06
-9.46731e-07
4.18978e-06
-1.72509e-06
5.73899e-06
-2.47729e-06
6.49887e-06
-3.11987e-06
6.67593e-06
-3.62191e-06
6.46224e-06
-3.98472e-06
6.01212e-06
-4.22606e-06
5.43915e-06
-4.36966e-06
4.82121e-06
-4.43932e-06
4.20831e-06
-4.45598e-06
3.63012e-06
-4.43674e-06
3.1022e-06
-4.39485e-06
2.63061e-06
-4.34024e-06
2.21527e-06
-4.28012e-06
1.8522e-06
-4.2197e-06
1.53504e-06
-4.16269e-06
1.25595e-06
-4.11183e-06
1.00625e-06
-4.06929e-06
7.76742e-07
-4.03685e-06
5.57823e-07
-4.0162e-06
3.3959e-07
-4.00893e-06
1.11817e-07
-4.01653e-06
-1.36063e-07
-4.04029e-06
-4.14966e-07
-4.08094e-06
-7.36121e-07
-4.13818e-06
-1.11091e-06
-4.20997e-06
-1.55055e-06
-4.29151e-06
-2.06541e-06
-4.37395e-06
-2.66389e-06
-4.44283e-06
-3.35042e-06
-4.47659e-06
-4.12228e-06
-4.4454e-06
-4.96462e-06
-4.31156e-06
-5.84325e-06
-4.03268e-06
-6.6947e-06
-3.57027e-06
-7.41432e-06
-2.90577e-06
-7.84497e-06
-2.06549e-06
-7.77243e-06
-1.15131e-06
-6.93773e-06
-3.65337e-07
-5.083e-06
-2.05707e-06
-3.58278e-07
2.06077e-06
-1.0807e-06
4.9122e-06
-1.87055e-06
6.52884e-06
-2.55228e-06
7.1806e-06
-3.05431e-06
7.17795e-06
-3.36965e-06
6.77759e-06
-3.52369e-06
6.16616e-06
-3.55319e-06
5.46864e-06
-3.49473e-06
4.76276e-06
-3.3796e-06
4.09317e-06
-3.23219e-06
3.48272e-06
-3.07043e-06
2.94043e-06
-2.90676e-06
2.46694e-06
-2.74947e-06
2.05797e-06
-2.60379e-06
1.70652e-06
-2.47293e-06
1.40417e-06
-2.35882e-06
1.14184e-06
-2.26274e-06
9.10173e-07
-2.18573e-06
6.99734e-07
-2.12894e-06
5.0103e-07
-2.09381e-06
3.04459e-07
-2.08221e-06
1.00219e-07
-2.09645e-06
-1.21824e-07
-2.13916e-06
-3.72259e-07
-2.21304e-06
-6.62237e-07
-2.32043e-06
-1.00353e-06
-2.46253e-06
-1.40845e-06
-2.63836e-06
-1.88958e-06
-2.84316e-06
-2.45909e-06
-3.06636e-06
-3.12723e-06
-3.28893e-06
-3.89971e-06
-3.48067e-06
-4.77288e-06
-3.59811e-06
-5.72581e-06
-3.58479e-06
-6.70802e-06
-3.37726e-06
-7.62185e-06
-2.92144e-06
-8.3008e-06
-2.2044e-06
-8.48946e-06
-1.30317e-06
-7.83896e-06
-4.39809e-07
-5.94636e-06
-2.49688e-06
-4.52841e-07
2.51361e-06
-1.25777e-06
5.71713e-06
-2.01832e-06
7.28939e-06
-2.55321e-06
7.71549e-06
-2.82604e-06
7.45078e-06
-2.87133e-06
6.82288e-06
-2.74782e-06
6.04265e-06
-2.5141e-06
5.23493e-06
-2.21861e-06
4.46726e-06
-1.89729e-06
3.77186e-06
-1.57484e-06
3.16027e-06
-1.267e-06
2.63259e-06
-9.82973e-07
2.18291e-06
-7.27468e-07
1.80247e-06
-5.02334e-07
1.48139e-06
-3.0776e-07
1.2096e-06
-1.43159e-07
9.77238e-07
-7.79206e-09
7.74806e-07
9.87811e-08
5.93161e-07
1.76398e-07
4.23413e-07
2.24083e-07
2.56775e-07
2.39919e-07
8.43827e-08
2.21004e-07
-1.02909e-07
1.63488e-07
-3.14742e-07
6.27384e-08
-5.61487e-07
-8.6321e-08
-8.54466e-07
-2.88611e-07
-1.20616e-06
-5.47907e-07
-1.63029e-06
-8.65282e-07
-2.14171e-06
-1.23677e-06
-2.75574e-06
-1.65005e-06
-3.48643e-06
-2.08003e-06
-4.3429e-06
-2.48379e-06
-5.32205e-06
-2.79634e-06
-6.39547e-06
-2.93078e-06
-7.48741e-06
-2.78998e-06
-8.4416e-06
-2.30072e-06
-8.97872e-06
-1.4817e-06
-8.65797e-06
-5.47226e-07
-6.88084e-06
-3.04411e-06
-6.01269e-07
3.11488e-06
-1.48105e-06
6.59692e-06
-2.12324e-06
7.93158e-06
-2.3852e-06
7.97745e-06
-2.3058e-06
7.37138e-06
-1.98203e-06
6.49911e-06
-1.51198e-06
5.5726e-06
-9.73663e-07
4.69661e-06
-4.21516e-07
3.91511e-06
1.1005e-07
3.24029e-06
6.01471e-07
2.66885e-06
1.04332e-06
2.19075e-06
1.43264e-06
1.79359e-06
1.7703e-06
1.4648e-06
2.05919e-06
1.1925e-06
2.30295e-06
9.65841e-07
2.50521e-06
7.74983e-07
2.66901e-06
6.10999e-07
2.79651e-06
4.65659e-07
2.8887e-06
3.31225e-07
2.94525e-06
2.00224e-07
2.96442e-06
6.52167e-08
2.94295e-06
-8.14435e-08
2.87609e-06
-2.47874e-07
2.75756e-06
-4.42957e-07
2.57977e-06
-6.76684e-07
2.33416e-06
-9.60542e-07
2.01182e-06
-1.30795e-06
1.60477e-06
-1.73465e-06
1.108e-06
-2.25898e-06
5.22991e-07
-2.90142e-06
-1.37023e-07
-3.68289e-06
-8.39292e-07
-4.61978e-06
-1.52187e-06
-5.7129e-06
-2.0845e-06
-6.92477e-06
-2.3882e-06
-8.1379e-06
-2.28022e-06
-9.0867e-06
-1.67172e-06
-9.26647e-06
-7.03853e-07
-7.84871e-06
-3.74796e-06
-8.24708e-07
3.93958e-06
-1.71187e-06
7.48409e-06
-2.05328e-06
8.27298e-06
-1.84577e-06
7.76994e-06
-1.25953e-06
6.78515e-06
-4.6842e-07
5.708e-06
3.96494e-07
4.70769e-06
1.25098e-06
3.84212e-06
2.04758e-06
3.11851e-06
2.76372e-06
2.52416e-06
3.39213e-06
2.04044e-06
3.93434e-06
1.64853e-06
4.39642e-06
1.33151e-06
4.78634e-06
1.07488e-06
5.11244e-06
8.66404e-07
5.38247e-06
6.9581e-07
5.6031e-06
5.54354e-07
5.77962e-06
4.34484e-07
5.91576e-06
3.29519e-07
6.01361e-06
2.33369e-07
6.07356e-06
1.40284e-07
6.09415e-06
4.46223e-08
6.07209e-06
-5.9388e-08
6.00212e-06
-1.77903e-07
5.87692e-06
-3.17756e-07
5.68706e-06
-4.86825e-07
5.42102e-06
-6.94496e-07
5.06535e-06
-9.52277e-07
4.60526e-06
-1.27457e-06
4.0259e-06
-1.67961e-06
3.31491e-06
-2.19043e-06
2.46738e-06
-2.83536e-06
1.49447e-06
-3.64687e-06
4.37321e-07
-4.65575e-06
-6.132e-07
-5.87425e-06
-1.49601e-06
-7.25509e-06
-1.97662e-06
-8.60609e-06
-1.80293e-06
-9.44017e-06
-9.19124e-07
-8.73251e-06
-4.66708e-06
-1.10869e-06
5.04827e-06
-1.77218e-06
8.14758e-06
-1.47472e-06
7.97551e-06
-5.31214e-07
6.82644e-06
7.11298e-07
5.54264e-06
2.02061e-06
4.39868e-06
3.26591e-06
3.46239e-06
4.38584e-06
2.7222e-06
5.36029e-06
2.14406e-06
6.19094e-06
1.6935e-06
6.88971e-06
1.34168e-06
7.47231e-06
1.06593e-06
7.95498e-06
8.48843e-07
8.35281e-06
6.77046e-07
8.67903e-06
5.40177e-07
8.94477e-06
4.30071e-07
9.15898e-06
3.40147e-07
9.3285e-06
2.64963e-07
9.45815e-06
1.99871e-07
9.55076e-06
1.40754e-07
9.60724e-06
8.3804e-08
9.62653e-06
2.5337e-08
9.60554e-06
-3.8397e-08
9.53904e-06
-1.11408e-07
9.41949e-06
-1.98198e-07
9.23672e-06
-3.04061e-07
8.97772e-06
-4.35494e-07
8.62622e-06
-6.00776e-07
8.16247e-06
-8.10815e-07
7.56323e-06
-1.08037e-06
6.80259e-06
-1.42979e-06
5.85456e-06
-1.88733e-06
4.69943e-06
-2.49175e-06
3.33747e-06
-3.29378e-06
1.8148e-06
-4.35159e-06
2.65502e-07
-5.70579e-06
-1.03684e-06
-7.30375e-06
-1.65351e-06
-8.8235e-06
-1.15011e-06
-9.23591e-06
-5.81719e-06
-1.2783e-06
6.32657e-06
-1.09193e-06
7.96122e-06
3.78504e-07
6.50508e-06
2.3065e-06
4.89844e-06
4.23205e-06
3.61709e-06
5.96341e-06
2.66732e-06
7.44209e-06
1.98371e-06
8.67122e-06
1.49307e-06
9.67835e-06
1.13694e-06
1.04974e-05
8.7448e-07
1.11608e-05
6.78196e-07
1.16973e-05
5.29484e-07
1.21306e-05
4.15554e-07
1.24802e-05
3.27402e-07
1.27619e-05
2.58509e-07
1.2988e-05
2.0401e-07
1.31679e-05
1.60157e-07
1.3309e-05
1.23958e-07
1.34159e-05
9.29333e-08
1.34917e-05
6.494e-08
1.35375e-05
3.80311e-08
1.35525e-05
1.03435e-08
1.35341e-05
-2.00083e-08
1.34777e-05
-5.50443e-08
1.33766e-05
-9.70519e-08
1.32213e-05
-1.48762e-07
1.29994e-05
-2.13601e-07
1.26947e-05
-2.96073e-07
1.22862e-05
-4.02352e-07
1.17471e-05
-5.41253e-07
1.10431e-05
-7.2581e-07
1.01317e-05
-9.75904e-07
8.96251e-06
-1.32257e-06
7.4834e-06
-1.81468e-06
5.6593e-06
-2.52748e-06
3.51867e-06
-3.56516e-06
1.24931e-06
-5.0344e-06
-6.33996e-07
-6.94019e-06
-1.17264e-06
-8.69727e-06
-6.98983e-06
-4.29266e-07
6.75584e-06
2.01576e-06
5.51619e-06
5.13246e-06
3.38838e-06
7.90696e-06
2.12395e-06
1.01464e-05
1.3776e-06
1.18938e-05
9.19917e-07
1.3243e-05
6.34568e-07
1.42842e-05
4.51838e-07
1.50909e-05
3.30296e-07
1.5719e-05
2.46355e-07
1.62106e-05
1.86534e-07
1.65973e-05
1.42839e-07
1.69025e-05
1.10313e-07
1.71442e-05
8.57346e-08
1.73358e-05
6.69125e-08
1.74875e-05
5.22881e-08
1.7607e-05
4.07043e-08
1.76997e-05
3.12653e-08
1.77693e-05
2.32461e-08
1.78183e-05
1.60311e-08
1.78472e-05
9.0688e-09
1.78557e-05
1.83592e-09
1.78419e-05
-6.19565e-09
1.78025e-05
-1.55927e-08
1.77324e-05
-2.70011e-08
1.76248e-05
-4.12009e-08
1.74704e-05
-5.91864e-08
1.72567e-05
-8.22943e-08
1.69667e-05
-1.12416e-07
1.65778e-05
-1.52369e-07
1.60586e-05
-2.06579e-07
1.53651e-05
-2.8239e-07
1.44352e-05
-3.92677e-07
1.31817e-05
-5.61132e-07
1.14867e-05
-8.32491e-07
9.21192e-06
-1.29041e-06
6.26438e-06
-2.08686e-06
2.81643e-06
-3.49224e-06
-7.20199e-08
-5.80882e-06
-7.06185e-06
6.75584e-06
1.2272e-05
1.56604e-05
1.77843e-05
1.9162e-05
2.00819e-05
2.07164e-05
2.11683e-05
2.14986e-05
2.17449e-05
2.19315e-05
2.20743e-05
2.21846e-05
2.22703e-05
2.23373e-05
2.23895e-05
2.24303e-05
2.24615e-05
2.24848e-05
2.25008e-05
2.25099e-05
2.25117e-05
2.25055e-05
2.24899e-05
2.24629e-05
2.24217e-05
2.23625e-05
2.22802e-05
2.21678e-05
2.20154e-05
2.18089e-05
2.15265e-05
2.11338e-05
2.05727e-05
1.97402e-05
1.84498e-05
1.63629e-05
1.28707e-05
7.06185e-06
)
;

boundaryField
{
    movingWall
    {
        type            calculated;
        value           uniform 0;
    }
    fixedWalls
    {
        type            calculated;
        value           uniform 0;
    }
    frontAndBack
    {
        type            empty;
        value           nonuniform 0();
    }
}


// ************************************************************************* //
