1.45 	0 	0 	-0.301497
2.35 	0 	0 	-0.134084
