1.275 	2.15223e-18 	-2.76991e-20 	0.0201804 	-0.00467631 	-1.82212e-22
1.825 	2.15223e-18 	-1.39322e-20 	0.211305 	-0.00877485 	6.66646e-22
2.375 	2.15223e-18 	-2.66896e-23 	0.499846 	-0.00816451 	-1.942e-22
