/*--------------------------------*- C++ -*----------------------------------*\
  =========                 |
  \\      /  F ield         | OpenFOAM: The Open Source CFD Toolbox
   \\    /   O peration     | Website:  https://openfoam.org
    \\  /    A nd           | Version:  6.0
     \\/     M anipulation  |
\*---------------------------------------------------------------------------*/
FoamFile
{
    version     2.0;
    format      ascii;
    class       volVectorField;
    location    "20";
    object      U;
}
// * * * * * * * * * * * * * * * * * * * * * * * * * * * * * * * * * * * * * //

dimensions      [0 1 -1 0 0 0 0];

internalField   nonuniform List<vector> 
62000
(
(0.999754 0.00302261 -6.08499e-19)
(0.999495 0.00279319 -2.64052e-18)
(0.999345 0.0029073 3.49576e-19)
(0.999166 0.00295691 -2.05787e-20)
(0.999004 0.00299316 2.87189e-18)
(0.998857 0.00301529 -2.92774e-19)
(0.998722 0.00301169 -1.93565e-18)
(0.998604 0.00298493 1.97382e-18)
(0.9985 0.00293176 -2.43096e-18)
(0.998411 0.00285515 -1.6555e-18)
(0.998335 0.00275519 1.01184e-18)
(0.998273 0.00263695 2.74008e-18)
(0.998223 0.00250249 -1.73711e-18)
(0.998185 0.0023575 1.78507e-18)
(0.998157 0.0022044 -1.87901e-18)
(0.998138 0.00204808 2.80836e-18)
(0.998129 0.00189049 -3.6004e-18)
(0.998129 0.00173521 9.00494e-19)
(0.998138 0.00158308 3.2726e-19)
(0.998156 0.00143628 1.98485e-19)
(0.998182 0.00129445 -2.46652e-18)
(0.998218 0.00115868 1.32092e-18)
(0.998262 0.00102787 -8.15966e-20)
(0.998316 0.000902731 3.95417e-19)
(0.998378 0.000781973 -4.63637e-19)
(0.998451 0.000666371 -1.84908e-18)
(0.998532 0.000555048 1.95941e-18)
(0.998623 0.000448509 1.81059e-19)
(0.998721 0.000345124 2.2004e-19)
(0.998826 0.000245263 -1.70124e-18)
(0.998938 0.000148367 1.10015e-18)
(0.999055 6.06231e-05 -2.63017e-18)
(0.999178 -1.32534e-05 -6.04351e-19)
(0.999305 -7.00901e-05 2.12533e-19)
(0.999433 -0.000106478 4.0955e-19)
(0.999559 -0.000117693 -2.01328e-18)
(0.99968 -9.90775e-05 4.4453e-19)
(0.999791 -4.60605e-05 3.50248e-19)
(0.999888 4.44782e-05 4.39342e-19)
(0.999965 0.000174726 -6.32147e-19)
(1.00002 0.000343984 -4.82097e-19)
(1.00003 0.000548579 1.28016e-20)
(0.99999 0.000785239 -4.22211e-19)
(0.999878 0.00105242 8.45843e-19)
(0.999657 0.00131755 1.46036e-18)
(0.999272 0.0015122 -2.74402e-18)
(0.998662 0.00150817 5.65984e-18)
(0.997773 0.00112706 8.51916e-18)
(0.996587 0.000185871 -3.72339e-18)
(0.995158 -0.00139427 1.21768e-17)
(0.993578 -0.00350431 2.02139e-17)
(0.991927 -0.00596417 2.95038e-17)
(0.990213 -0.0087429 5.74596e-18)
(0.988416 -0.0121623 8.8217e-18)
(0.986647 -0.0167206 1.4973e-17)
(0.985045 -0.0229727 3.47396e-17)
(0.983973 -0.032239 5.21099e-18)
(0.983029 -0.0450655 5.62144e-17)
(1.02148 -0.0319238 -2.99902e-17)
(0.336215 -0.682071 3.34601e-17)
(1.0001 0.00293031 -1.51329e-19)
(0.999805 0.00281404 1.05733e-18)
(0.999611 0.00310335 -4.58657e-19)
(0.999337 0.00338259 5.45084e-19)
(0.999045 0.00367718 1.31306e-18)
(0.99875 0.00400267 -1.84171e-19)
(0.998453 0.0043302 -1.49027e-18)
(0.99817 0.00465511 -7.63885e-20)
(0.997908 0.00496345 1.23878e-18)
(0.997674 0.00524753 -2.10894e-18)
(0.997472 0.0054966 -7.73505e-19)
(0.997305 0.00570762 2.69015e-18)
(0.997172 0.00587334 -1.96954e-18)
(0.997074 0.0059946 1.33521e-18)
(0.997005 0.00606843 -1.84555e-18)
(0.996964 0.00609842 9.96818e-19)
(0.996945 0.00608528 -4.15194e-19)
(0.996945 0.00603393 -3.02862e-19)
(0.99696 0.00594698 3.06089e-19)
(0.996988 0.00582931 -2.52401e-20)
(0.997026 0.00568396 6.49042e-19)
(0.997074 0.00551478 -6.70815e-19)
(0.997131 0.00532419 -5.03584e-19)
(0.997197 0.00511533 6.12908e-19)
(0.997272 0.00488899 -1.62585e-18)
(0.99736 0.00464729 -2.71155e-19)
(0.997457 0.00439014 3.03338e-18)
(0.997569 0.00411733 -1.27966e-18)
(0.997694 0.00382908 2.61113e-18)
(0.997836 0.00352391 -2.43415e-19)
(0.997993 0.00320943 -1.53588e-18)
(0.998175 0.00289898 5.08211e-19)
(0.998379 0.00260115 9.97699e-20)
(0.998604 0.00232447 7.58738e-19)
(0.998848 0.00207907 -1.56844e-18)
(0.999103 0.00188128 4.61109e-19)
(0.999363 0.0017493 5.5689e-19)
(0.999616 0.0017031 -2.6921e-19)
(0.999847 0.00175913 1.7034e-19)
(1.00004 0.00192974 7.90892e-20)
(1.00016 0.00221539 6.29005e-19)
(1.00017 0.00260313 -8.85013e-20)
(1.00003 0.0030711 3.62139e-19)
(0.999688 0.00354578 3.90035e-19)
(0.999044 0.00387917 -2.65618e-18)
(0.998008 0.00383913 2.02997e-18)
(0.996499 0.0031187 -7.86055e-18)
(0.994496 0.00141459 -4.88505e-18)
(0.992085 -0.00139406 -2.38205e-18)
(0.98945 -0.00508421 -1.41088e-18)
(0.986732 -0.00915546 -2.25382e-17)
(0.983927 -0.0132904 -2.90639e-17)
(0.980874 -0.017815 2.30797e-18)
(0.977539 -0.0237765 -4.15033e-18)
(0.974353 -0.0322005 -1.67267e-17)
(0.971663 -0.0437462 5.91958e-18)
(0.970717 -0.0605214 6.27918e-18)
(0.969274 -0.0802297 -1.07612e-17)
(1.00671 -0.0988793 4.61689e-17)
(1.06985 0.0157892 -1.37927e-17)
(0.999953 0.00371837 1.47897e-18)
(0.999876 0.00341298 -4.40618e-19)
(0.999823 0.0034792 -2.36451e-19)
(0.99969 0.00353885 -1.09404e-19)
(0.999498 0.00366351 3.34982e-18)
(0.999262 0.00387226 -2.77371e-18)
(0.998982 0.00414707 -1.0463e-18)
(0.998676 0.00449075 7.0544e-19)
(0.998358 0.00488986 1.85742e-18)
(0.998043 0.00533523 7.71543e-19)
(0.997744 0.0058091 -3.16443e-18)
(0.997474 0.00629964 -1.50476e-18)
(0.997241 0.0067881 1.43977e-18)
(0.997051 0.00726277 -5.45278e-19)
(0.996907 0.00770722 1.44753e-19)
(0.996808 0.00811243 2.44329e-18)
(0.996752 0.00846704 -2.40472e-18)
(0.996734 0.00876621 2.34974e-18)
(0.996748 0.00900385 -3.01754e-19)
(0.99679 0.00917925 1.55834e-18)
(0.996853 0.00929064 -7.50657e-19)
(0.996933 0.00934004 -1.21311e-18)
(0.997025 0.00932845 4.15512e-19)
(0.997127 0.00925987 1.54232e-18)
(0.997235 0.00913511 -1.03123e-18)
(0.997351 0.00895779 1.48832e-18)
(0.997472 0.00872807 -1.70133e-19)
(0.997602 0.00844718 -7.93755e-19)
(0.99774 0.00811596 -1.69072e-18)
(0.997891 0.00773689 1.70065e-18)
(0.998055 0.00732121 2.48389e-19)
(0.998242 0.00688377 3.41363e-19)
(0.998454 0.00643722 -1.10708e-18)
(0.998689 0.00599086 1.29029e-18)
(0.998944 0.00555949 -6.75947e-20)
(0.999215 0.00516589 8.88596e-19)
(0.999493 0.00483684 -8.0122e-20)
(0.999766 0.00460217 2.38902e-19)
(1.00001 0.00448786 -5.47239e-19)
(1.00021 0.00451363 1.20048e-19)
(1.00032 0.00468206 -4.66367e-19)
(1.0003 0.00497632 2.32832e-20)
(1.00009 0.005372 -6.0001e-19)
(0.999603 0.00570982 -1.73003e-18)
(0.998751 0.00576027 1.26767e-18)
(0.997441 0.00520566 -3.03301e-19)
(0.995621 0.00369304 7.82318e-19)
(0.993332 0.000956576 -4.51901e-18)
(0.990745 -0.00291817 6.42629e-20)
(0.98811 -0.00737476 -5.04763e-20)
(0.98556 -0.0116473 -2.55802e-17)
(0.983018 -0.0154312 -1.01379e-17)
(0.980229 -0.0193362 1.57055e-17)
(0.977149 -0.0248125 1.54967e-17)
(0.974383 -0.033011 1.50375e-17)
(0.972184 -0.044298 -6.40723e-17)
(0.972552 -0.060457 1.92417e-17)
(0.970849 -0.0782222 -2.81829e-17)
(1.00898 -0.0859754 -6.69401e-17)
(0.935126 -0.163105 9.35898e-19)
(1.00007 0.00521341 9.52329e-19)
(1.00015 0.00488751 -6.52794e-19)
(1.00022 0.00486568 4.27116e-19)
(1.00025 0.00475609 6.25353e-19)
(1.00023 0.00467909 -1.30369e-18)
(1.00015 0.00465759 -1.29114e-18)
(1 0.00469633 1.01015e-18)
(0.999789 0.00481605 1.73731e-19)
(0.999521 0.0050228 3.45023e-19)
(0.99921 0.00532111 -1.35977e-18)
(0.998869 0.00570695 -3.87703e-19)
(0.998518 0.00617534 3.02401e-19)
(0.998171 0.00671101 8.71843e-19)
(0.997845 0.00730116 1.02756e-19)
(0.997553 0.00792409 1.31725e-18)
(0.997304 0.00856349 -2.47596e-18)
(0.997106 0.00919675 9.9009e-19)
(0.996959 0.0098082 1.07421e-18)
(0.996865 0.0103785 -2.59903e-18)
(0.99682 0.0108961 2.64336e-18)
(0.996819 0.0113471 -3.3996e-19)
(0.996856 0.0117246 -2.45515e-18)
(0.996926 0.0120216 -5.95818e-19)
(0.997022 0.0122364 9.27398e-19)
(0.997139 0.0123652 4.56863e-20)
(0.997273 0.0124088 -1.31133e-18)
(0.997419 0.0123643 1.84402e-18)
(0.997577 0.0122319 -9.19174e-19)
(0.997744 0.012012 1.8075e-19)
(0.997922 0.0117068 2.87264e-19)
(0.998112 0.0113296 1.69981e-19)
(0.998322 0.0108964 3.36929e-19)
(0.998553 0.0104192 1.20084e-19)
(0.998803 0.00990747 -7.30615e-19)
(0.999069 0.00937705 -2.3373e-19)
(0.999346 0.00885246 2.24666e-19)
(0.999627 0.00836372 -1.60339e-18)
(0.999896 0.00794476 -3.61666e-20)
(1.00013 0.00762579 2.90404e-19)
(1.00031 0.0074301 -8.99422e-19)
(1.00039 0.00736169 -1.60076e-19)
(1.00033 0.00740508 -6.32329e-20)
(1.00004 0.0075417 1.11686e-18)
(0.999435 0.00754088 3.0333e-19)
(0.998423 0.00713195 2.36411e-18)
(0.99692 0.0059757 -8.45339e-19)
(0.994888 0.00373974 3.81828e-18)
(0.992395 0.000232705 4.20801e-19)
(0.989651 -0.0042941 1.95163e-17)
(0.986943 -0.00908898 -4.12053e-18)
(0.984413 -0.0132949 4.66223e-17)
(0.981986 -0.0167059 3.97272e-17)
(0.979396 -0.0201648 -2.27271e-17)
(0.976583 -0.0253616 1.76397e-17)
(0.974146 -0.0335867 2.71161e-17)
(0.97224 -0.045006 2.75746e-17)
(0.97349 -0.0610407 5.36356e-18)
(0.971927 -0.0795179 8.28158e-18)
(1.00163 -0.0817181 4.71941e-17)
(0.988561 -0.132108 -1.98395e-18)
(1.00161 0.00604129 -7.84291e-19)
(1.00169 0.00603693 -1.48827e-18)
(1.00176 0.00619207 3.00145e-20)
(1.00185 0.00622275 2.513e-19)
(1.00192 0.00620522 -1.15822e-18)
(1.00197 0.00617396 2.03018e-18)
(1.00196 0.00613341 -2.13374e-19)
(1.00188 0.00611833 1.11639e-18)
(1.00172 0.00614713 4.79054e-19)
(1.00149 0.00624318 -2.65316e-18)
(1.00118 0.00642036 1.22367e-18)
(1.00081 0.00669197 -9.67494e-20)
(1.00039 0.00705948 -1.39878e-20)
(0.99995 0.00752321 1.57836e-18)
(0.999495 0.00807174 -1.50944e-18)
(0.999052 0.00869422 3.01939e-19)
(0.998635 0.0093701 -3.56219e-19)
(0.99826 0.0100816 4.72764e-19)
(0.997937 0.0108044 -7.17805e-19)
(0.997674 0.0115195 1.18171e-18)
(0.997472 0.0122032 -1.25774e-18)
(0.997332 0.0128394 1.08251e-18)
(0.99725 0.0134106 1.5967e-18)
(0.997224 0.0139061 -1.63668e-18)
(0.997246 0.0143137 -4.483e-19)
(0.997311 0.0146273 2.12259e-18)
(0.997411 0.014837 -1.9917e-18)
(0.997542 0.0149379 6.65987e-19)
(0.997695 0.0149253 -1.62783e-18)
(0.997869 0.0147999 2.20685e-18)
(0.998064 0.0145719 -8.87882e-19)
(0.998283 0.0142546 -1.16122e-18)
(0.998524 0.0138589 -2.31877e-18)
(0.998784 0.0133909 6.90224e-19)
(0.999058 0.0128641 1.99019e-19)
(0.999339 0.0123009 -2.20719e-19)
(0.999619 0.0117301 1.47587e-18)
(0.999881 0.0111851 1.31001e-18)
(1.0001 0.0106961 -3.05811e-19)
(1.00026 0.0102868 5.28483e-19)
(1.0003 0.00996188 -1.57673e-19)
(1.00019 0.00971146 -1.05949e-19)
(0.999833 0.00952286 -9.79769e-19)
(0.999104 0.00912734 -1.9968e-18)
(0.997927 0.00824521 -1.2804e-18)
(0.996219 0.00655516 -2.05978e-18)
(0.993937 0.00376732 -1.00074e-18)
(0.991149 -0.000252082 2.77048e-18)
(0.988068 -0.00517266 1.5987e-18)
(0.985005 -0.0101906 -6.13397e-18)
(0.982144 -0.0144797 -4.12144e-18)
(0.979476 -0.0179464 -1.97019e-17)
(0.976801 -0.0215779 -6.88549e-19)
(0.974068 -0.0271374 -1.85246e-17)
(0.971793 -0.0360352 1.30334e-17)
(0.970025 -0.0483503 -6.21491e-18)
(0.971886 -0.0653203 -6.41768e-18)
(0.971145 -0.0859848 -3.54513e-18)
(0.99476 -0.0891279 2.11179e-17)
(0.968539 -0.126776 1.10111e-18)
(1.00432 0.00641676 -4.20311e-19)
(1.00431 0.00674345 5.10814e-19)
(1.00432 0.00710412 8.26036e-19)
(1.00439 0.00740808 -9.18338e-20)
(1.00448 0.00763637 -5.28679e-19)
(1.00459 0.00781692 -5.8719e-19)
(1.00467 0.0079371 -2.08519e-19)
(1.00472 0.00801764 -1.02033e-18)
(1.00471 0.00807355 1.37535e-18)
(1.00461 0.00812721 1.25638e-18)
(1.00443 0.00820099 -1.55028e-18)
(1.00414 0.00831896 8.94622e-19)
(1.00376 0.00849838 -2.94009e-19)
(1.00329 0.00875631 7.47857e-19)
(1.00275 0.00909894 -1.2977e-19)
(1.00217 0.00953181 -3.71864e-19)
(1.00156 0.0100481 -1.9483e-18)
(1.00095 0.010641 2.99505e-18)
(1.00036 0.011293 -1.45913e-18)
(0.999808 0.0119888 9.50666e-19)
(0.999313 0.0127034 -1.46082e-18)
(0.998886 0.0134184 1.05993e-18)
(0.998533 0.0141106 -9.56395e-19)
(0.998257 0.0147618 -6.10738e-19)
(0.998059 0.0153533 3.3342e-20)
(0.997936 0.0158704 2.75972e-20)
(0.99788 0.016295 8.75991e-19)
(0.997883 0.0166152 1.58867e-18)
(0.997936 0.0168197 -4.98211e-19)
(0.998032 0.0169024 6.37583e-19)
(0.998167 0.0168686 -4.54658e-19)
(0.998342 0.0167274 6.53787e-20)
(0.998549 0.0164837 2.70882e-18)
(0.998781 0.0161389 -1.67599e-19)
(0.99903 0.0157008 1.67784e-18)
(0.999287 0.0151862 -1.00904e-18)
(0.999539 0.014619 -2.3269e-18)
(0.99977 0.0140282 -1.27823e-18)
(0.999957 0.0134398 -2.26819e-19)
(1.00007 0.0128751 4.63468e-20)
(1.00007 0.0123376 1.60592e-19)
(0.999905 0.0118255 4.67779e-21)
(0.999468 0.0113278 -1.25766e-19)
(0.998624 0.0105779 1.75185e-18)
(0.997309 0.00931082 -1.79565e-18)
(0.995434 0.00724442 2.57289e-18)
(0.992943 0.00413408 -6.22162e-19)
(0.989883 -0.000126339 -4.91261e-18)
(0.986449 -0.00520381 -1.0385e-17)
(0.982974 -0.0103437 1.43643e-17)
(0.979704 -0.0148143 -1.46579e-17)
(0.976754 -0.0185883 1.40907e-17)
(0.974061 -0.0226472 4.97256e-18)
(0.971631 -0.0286147 -5.09448e-18)
(0.969873 -0.0378514 -8.14081e-17)
(0.968606 -0.0503991 2.15806e-17)
(0.971202 -0.0674791 -2.09065e-17)
(0.97181 -0.089071 9.28808e-18)
(0.990741 -0.0927181 3.34442e-18)
(0.973385 -0.120463 4.26602e-19)
(1.00724 0.00814275 -2.19631e-18)
(1.00718 0.00851774 1.24824e-18)
(1.00716 0.00884916 4.89967e-19)
(1.00718 0.00923044 3.87562e-19)
(1.00723 0.00956886 -9.51611e-19)
(1.00733 0.00989057 -1.03351e-18)
(1.00744 0.0101619 2.19657e-18)
(1.00757 0.0103856 -3.18493e-19)
(1.00767 0.0105577 2.47286e-19)
(1.00773 0.0106868 -1.79008e-18)
(1.00773 0.0107838 1.2098e-18)
(1.00762 0.0108673 -6.66457e-19)
(1.00741 0.0109546 -9.08953e-19)
(1.00708 0.0110678 1.86786e-18)
(1.00663 0.0112232 -3.40394e-19)
(1.00607 0.011439 -7.11732e-19)
(1.00542 0.0117238 -8.65613e-19)
(1.0047 0.012086 2.82771e-18)
(1.00394 0.0125228 -1.33459e-18)
(1.00316 0.0130309 -1.37666e-18)
(1.00239 0.0135946 1.54333e-18)
(1.00166 0.0142021 -1.45428e-19)
(1.00098 0.0148329 -3.21208e-20)
(1.00039 0.0154685 -6.07544e-19)
(0.999874 0.0160886 2.8045e-19)
(0.999455 0.0166738 -1.20763e-18)
(0.999129 0.0172001 -1.05717e-18)
(0.998892 0.0176498 3.52911e-19)
(0.998734 0.0180038 1.16987e-18)
(0.99865 0.0182512 7.7354e-19)
(0.998634 0.0183891 7.23728e-19)
(0.998682 0.0184201 -7.12239e-19)
(0.998783 0.0183434 2.2246e-19)
(0.998925 0.0181526 6.71465e-19)
(0.999095 0.0178485 -1.21533e-18)
(0.99928 0.0174399 -4.51508e-20)
(0.999464 0.0169428 -9.76304e-20)
(0.999628 0.0163786 8.83769e-19)
(0.999747 0.0157662 -1.0762e-19)
(0.999788 0.0151209 4.21144e-19)
(0.999716 0.0144428 3.06006e-20)
(0.999487 0.0137382 -7.55475e-20)
(0.998973 0.0129932 7.13758e-19)
(0.998035 0.0119766 -4.1115e-19)
(0.996619 0.0104538 2.19014e-18)
(0.994635 0.00818845 -5.31109e-20)
(0.992002 0.00497222 8.52166e-18)
(0.988733 0.000694378 5.83464e-18)
(0.984988 -0.0043736 -2.50733e-19)
(0.981104 -0.00960005 -1.77331e-17)
(0.977394 -0.014387 2.41625e-18)
(0.974128 -0.0187318 -1.49525e-17)
(0.97144 -0.0234847 1.87966e-17)
(0.969446 -0.0299572 -2.95545e-18)
(0.968482 -0.0392735 2.87202e-17)
(0.968026 -0.0514519 -1.61486e-17)
(0.971434 -0.0678305 -5.26785e-18)
(0.973533 -0.0893665 -2.35251e-17)
(0.98937 -0.0928202 -3.17966e-17)
(0.973571 -0.111925 -5.18755e-19)
(1.00929 0.0114938 7.31627e-19)
(1.00928 0.0116389 1.36956e-18)
(1.00931 0.0117321 -7.64255e-19)
(1.00933 0.0119579 -9.50583e-19)
(1.00936 0.0122016 -2.65617e-19)
(1.00942 0.0124866 1.07472e-18)
(1.00951 0.0127737 4.06776e-19)
(1.00965 0.0130511 3.47403e-19)
(1.00982 0.0133019 -5.16638e-19)
(1.01 0.0135168 3.26526e-19)
(1.01016 0.0136911 -6.04095e-19)
(1.01027 0.0138273 -1.03886e-18)
(1.01031 0.0139303 1.33184e-18)
(1.01024 0.0140131 -4.86892e-19)
(1.01005 0.0140877 -2.92086e-20)
(1.00972 0.0141732 -1.2141e-18)
(1.00925 0.0142835 7.9144e-19)
(1.00865 0.0144367 3.2836e-19)
(1.00793 0.0146418 -6.63631e-19)
(1.00712 0.0149089 2.06543e-18)
(1.00624 0.015236 -8.06114e-19)
(1.00533 0.0156239 -1.79907e-18)
(1.00442 0.0160621 1.83723e-18)
(1.00354 0.0165398 -2.13752e-18)
(1.00272 0.0170426 5.00751e-19)
(1.00197 0.0175525 1.29796e-18)
(1.00132 0.0180453 1.27306e-19)
(1.00076 0.0185017 -8.3989e-19)
(1.0003 0.0188988 4.75948e-19)
(0.999931 0.0192208 -5.72684e-20)
(0.999661 0.0194584 -1.24205e-18)
(0.999482 0.0196093 -3.55031e-19)
(0.999384 0.019665 -6.89796e-19)
(0.99935 0.0196121 -9.43171e-19)
(0.999365 0.0194435 -5.82243e-19)
(0.999411 0.0191588 1.4506e-18)
(0.99947 0.0187653 -1.52382e-20)
(0.999517 0.0182749 -7.02733e-19)
(0.999527 0.0176967 1.13089e-18)
(0.999467 0.0170379 -5.01891e-19)
(0.999299 0.0162933 2.91602e-20)
(0.998983 0.0154752 -1.19736e-19)
(0.998388 0.0145628 -1.54428e-18)
(0.997371 0.0133814 4.54117e-19)
(0.995889 0.0117339 9.04376e-19)
(0.993842 0.00942663 1.26989e-18)
(0.991126 0.00627418 -3.96476e-18)
(0.987703 0.0021326 4.27199e-18)
(0.983676 -0.00283643 -1.55732e-17)
(0.979359 -0.00817919 4.52977e-18)
(0.975113 -0.0134693 7.34761e-18)
(0.97136 -0.018722 -6.70948e-18)
(0.968455 -0.0246053 -2.40549e-17)
(0.966686 -0.03204 1.06125e-17)
(0.966382 -0.041788 9.11271e-18)
(0.966704 -0.0538038 -3.11447e-17)
(0.970852 -0.0695589 -8.02035e-18)
(0.974478 -0.0909623 2.24811e-17)
(0.988379 -0.0945113 2.77582e-17)
(0.977053 -0.105418 2.14708e-18)
(1.01042 0.016422 -1.34822e-18)
(1.01054 0.0162504 1.58591e-18)
(1.0107 0.0160183 -8.78437e-19)
(1.01079 0.0159423 -1.01117e-19)
(1.01082 0.0159206 4.8972e-19)
(1.01085 0.0159837 -2.46121e-19)
(1.01089 0.0160981 8.94784e-19)
(1.01097 0.0162535 3.99882e-19)
(1.0111 0.0164301 -6.6016e-19)
(1.01127 0.0166129 -1.19764e-18)
(1.01148 0.016787 1.32979e-18)
(1.0117 0.0169428 6.92183e-20)
(1.01192 0.0170711 -8.60611e-20)
(1.0121 0.0171709 -1.59802e-19)
(1.01219 0.0172413 7.01593e-19)
(1.01219 0.0172906 -9.26012e-19)
(1.01204 0.0173261 9.75841e-19)
(1.01175 0.0173631 -1.59126e-18)
(1.01131 0.0174122 6.45915e-19)
(1.01071 0.017489 -3.10688e-19)
(1.00997 0.0176008 1.83289e-20)
(1.00912 0.0177592 -7.13321e-19)
(1.00819 0.0179651 1.8994e-18)
(1.00721 0.0182197 -5.06145e-19)
(1.00622 0.0185192 5.56982e-19)
(1.00524 0.018853 -8.5006e-19)
(1.00431 0.0192035 -1.004e-18)
(1.00344 0.0195556 1.04765e-18)
(1.00265 0.0198864 -2.94456e-19)
(1.00196 0.0201811 -2.26337e-19)
(1.00137 0.0204266 2.86167e-19)
(1.00089 0.0206172 7.52062e-19)
(1.0005 0.0207397 -9.5293e-21)
(1.0002 0.0207744 1.58286e-18)
(0.999972 0.0207072 -1.21693e-18)
(0.999796 0.0205289 7.67878e-19)
(0.999654 0.020238 3.6602e-19)
(0.99952 0.0198366 4.34856e-19)
(0.999367 0.0193234 -3.30447e-19)
(0.999159 0.0186961 6.67833e-20)
(0.998863 0.0179426 2.71678e-19)
(0.998434 0.0170794 5.92376e-20)
(0.997751 0.0160774 7.2178e-19)
(0.996675 0.0148236 -4.0995e-20)
(0.995168 0.0131619 -1.16325e-18)
(0.993124 0.0109355 -5.44448e-20)
(0.990413 0.00797323 -4.15938e-18)
(0.986942 0.00408219 -4.16907e-18)
(0.98274 -0.000709262 1.54413e-17)
(0.978065 -0.00615297 -1.37503e-18)
(0.973285 -0.0120177 3.17268e-19)
(0.968931 -0.0183547 -2.50207e-18)
(0.96557 -0.0256597 7.79655e-18)
(0.963692 -0.0344688 -1.94263e-17)
(0.963705 -0.0451304 -6.17987e-18)
(0.964581 -0.0574422 3.60201e-17)
(0.969367 -0.0728596 3.04338e-18)
(0.974611 -0.0939234 1.07904e-17)
(0.98745 -0.0974107 -3.86726e-18)
(0.981535 -0.0982727 -6.94306e-18)
(1.01064 0.0220633 -5.95192e-20)
(1.01095 0.0216148 -1.09668e-18)
(1.01128 0.0211071 5.04454e-19)
(1.0115 0.0207373 -6.1225e-19)
(1.01163 0.0204318 6.53801e-19)
(1.0117 0.0202232 -3.04494e-19)
(1.01172 0.0200899 1.21293e-18)
(1.01175 0.0200268 -7.49231e-19)
(1.01179 0.0200206 9.23741e-19)
(1.01187 0.0200587 -4.48736e-19)
(1.01201 0.0201268 -1.14591e-19)
(1.0122 0.0202127 3.3371e-19)
(1.01244 0.0203016 -1.00694e-18)
(1.01271 0.0203843 1.72385e-18)
(1.01297 0.0204493 3.56805e-20)
(1.0132 0.0204934 -6.46061e-20)
(1.01336 0.0205124 -1.09624e-18)
(1.01341 0.0205116 7.30521e-19)
(1.01333 0.0204935 -9.1563e-19)
(1.01309 0.0204696 6.06522e-19)
(1.01268 0.0204467 9.44222e-20)
(1.01212 0.0204396 4.38228e-19)
(1.0114 0.0204546 -4.50776e-19)
(1.01056 0.0205031 -7.91845e-19)
(1.00962 0.0205903 6.01422e-19)
(1.00861 0.0207159 6.00239e-19)
(1.00756 0.0208721 -6.59712e-19)
(1.00652 0.0210519 1.24361e-19)
(1.0055 0.021239 3.98793e-19)
(1.00454 0.0214225 -1.28884e-18)
(1.00364 0.0215904 2.51535e-19)
(1.00284 0.0217389 3.77601e-20)
(1.00213 0.0218521 -1.60503e-19)
(1.00152 0.0219073 -3.1439e-19)
(1.00098 0.0218855 -3.64205e-19)
(1.00051 0.0217699 -1.38725e-19)
(1.00009 0.0215522 1.26465e-20)
(0.999703 0.0212249 -2.58572e-19)
(0.999321 0.0207771 8.66565e-19)
(0.998912 0.0201968 -2.08062e-19)
(0.998444 0.0194657 -1.0128e-19)
(0.997873 0.0186014 1.69759e-19)
(0.997096 0.0175676 8.70874e-19)
(0.99599 0.0163074 7.14771e-19)
(0.99452 0.0147064 -1.29295e-18)
(0.992578 0.0126412 1.56229e-18)
(0.990023 0.00995476 -1.18948e-18)
(0.986703 0.0064089 -5.28973e-18)
(0.982575 0.00190494 -8.22592e-18)
(0.977807 -0.00350719 1.25534e-17)
(0.97273 -0.00978914 -1.13629e-17)
(0.967919 -0.0170453 6.80794e-18)
(0.964094 -0.025642 -2.20506e-17)
(0.961934 -0.035793 -6.98187e-19)
(0.961977 -0.0474482 -7.16455e-18)
(0.96314 -0.0601719 1.93713e-18)
(0.968377 -0.0752348 1.0988e-17)
(0.975129 -0.095472 -1.54251e-17)
(0.987172 -0.0982936 -2.86573e-18)
(0.985256 -0.0909369 1.39939e-17)
(1.01035 0.0280292 -2.00341e-19)
(1.01083 0.0274092 1.99843e-19)
(1.01132 0.0267203 4.23426e-19)
(1.01171 0.0261232 3.9515e-19)
(1.01197 0.0255743 -7.22605e-19)
(1.01214 0.0251099 -3.01822e-19)
(1.01222 0.0247186 7.42023e-19)
(1.01224 0.024404 4.66606e-19)
(1.01223 0.0241602 -9.62923e-19)
(1.01222 0.0239816 1.12639e-18)
(1.01224 0.0238594 -6.60418e-19)
(1.01231 0.0237853 -9.93509e-19)
(1.01244 0.0237467 7.61712e-19)
(1.01263 0.0237341 6.75557e-20)
(1.01288 0.0237328 -1.12827e-18)
(1.01316 0.0237342 7.72265e-19)
(1.01344 0.0237262 2.4641e-19)
(1.0137 0.0237046 -1.07045e-19)
(1.01389 0.0236614 1.44962e-19)
(1.01398 0.0235989 4.66767e-19)
(1.01393 0.0235166 -9.98706e-19)
(1.01373 0.0234235 5.3715e-19)
(1.01337 0.023324 -1.59592e-19)
(1.01283 0.0232322 1.11347e-18)
(1.01214 0.0231563 -9.19837e-19)
(1.01131 0.0231033 3.01021e-19)
(1.01037 0.0230743 -8.02589e-19)
(1.00934 0.0230703 5.76306e-19)
(1.00827 0.0230834 -2.7248e-19)
(1.00717 0.0231108 8.62884e-19)
(1.00609 0.0231455 4.00029e-19)
(1.00505 0.0231886 -1.1415e-18)
(1.00406 0.0232263 6.57584e-19)
(1.00314 0.0232363 -1.84527e-20)
(1.00228 0.0231975 -4.80567e-19)
(1.00149 0.0230884 7.6308e-19)
(1.00076 0.0228962 1.07444e-19)
(1.00007 0.0226055 2.59069e-19)
(0.999405 0.0221972 -7.75642e-19)
(0.998747 0.0216511 2.99258e-19)
(0.998065 0.0209435 -1.87823e-19)
(0.997324 0.0200914 -9.68054e-21)
(0.99645 0.0190533 -5.75174e-19)
(0.995345 0.0178162 -1.24679e-19)
(0.993982 0.0163061 -2.92979e-19)
(0.992261 0.0144323 -1.81538e-18)
(0.990036 0.0120588 -8.35921e-19)
(0.987119 0.00892052 5.40309e-18)
(0.983394 0.00482125 9.61087e-18)
(0.978932 -0.000348133 -5.30072e-18)
(0.973984 -0.00671288 7.9312e-18)
(0.969094 -0.0144351 6.35442e-18)
(0.965048 -0.0238034 1.30842e-17)
(0.962656 -0.034804 2.87569e-17)
(0.962584 -0.0470669 1.77629e-17)
(0.963781 -0.0599194 -1.74378e-18)
(0.969147 -0.0743669 -2.41326e-17)
(0.976995 -0.0933551 -5.44684e-18)
(0.987943 -0.0952012 4.03632e-18)
(0.986944 -0.083182 -1.49949e-17)
(1.0097 0.0337112 5.21967e-19)
(1.01028 0.0330131 -5.47266e-19)
(1.01089 0.0322534 -2.06558e-19)
(1.01142 0.0315345 1.20601e-18)
(1.01184 0.0308403 -9.2473e-19)
(1.01215 0.0302046 -4.73623e-19)
(1.01235 0.0296249 9.63774e-19)
(1.01246 0.0291093 -1.06526e-18)
(1.01248 0.0286587 1.02749e-18)
(1.01246 0.028273 3.77474e-19)
(1.01241 0.0279497 -4.20033e-19)
(1.01236 0.0276862 -6.78549e-19)
(1.01235 0.0274753 5.37806e-19)
(1.01239 0.0273122 -4.04413e-19)
(1.01249 0.0271854 1.15971e-19)
(1.01266 0.0270877 -1.80064e-19)
(1.01289 0.0270059 4.65842e-19)
(1.01316 0.0269326 5.73194e-19)
(1.01344 0.0268537 -1.57165e-18)
(1.01369 0.0267641 9.89123e-19)
(1.01388 0.026655 -5.76224e-19)
(1.01397 0.0265264 -4.79004e-19)
(1.01393 0.0263755 5.8683e-19)
(1.01374 0.0262127 -1.78788e-20)
(1.01338 0.0260416 -3.14893e-19)
(1.01285 0.0258715 6.87431e-20)
(1.01216 0.0257062 7.06407e-19)
(1.01133 0.0255514 1.26053e-19)
(1.01037 0.0254072 -5.65528e-19)
(1.00931 0.0252766 3.95071e-19)
(1.0082 0.0251603 -6.72416e-19)
(1.00705 0.0250671 7.45098e-19)
(1.0059 0.0249875 5.14074e-19)
(1.00476 0.024903 2.84635e-19)
(1.00365 0.0247936 2.66684e-20)
(1.00257 0.0246362 2.63483e-19)
(1.00153 0.0244163 -6.24237e-19)
(1.00054 0.0241134 -7.47004e-19)
(0.99958 0.0237021 2.32073e-19)
(0.998647 0.023156 2.56114e-19)
(0.997728 0.0224478 1.20893e-19)
(0.996799 0.0215923 1.5502e-20)
(0.995825 0.020546 -1.2361e-18)
(0.994744 0.0193239 -4.01399e-19)
(0.993538 0.0178893 6.37372e-19)
(0.992122 0.0161834 8.17523e-19)
(0.990363 0.0141006 4.83944e-18)
(0.988049 0.0113726 -5.92119e-19)
(0.985014 0.00774645 1.81188e-18)
(0.981232 0.00300841 9.84691e-18)
(0.97685 -0.00308466 -1.09953e-18)
(0.972316 -0.0107434 -3.4854e-18)
(0.968394 -0.0202293 7.47656e-18)
(0.965944 -0.0314094 -9.18119e-20)
(0.965701 -0.0437135 3.78821e-18)
(0.966676 -0.0563142 1.34293e-17)
(0.971723 -0.0700077 1.89133e-17)
(0.980003 -0.0878754 2.86287e-19)
(0.989297 -0.089162 4.23409e-19)
(0.986182 -0.0772702 -5.59934e-18)
(1.00905 0.039065 -6.57212e-19)
(1.00964 0.038377 4.74466e-19)
(1.01029 0.0376299 5.58009e-19)
(1.0109 0.0368697 -2.06104e-19)
(1.01143 0.0361028 -6.77094e-19)
(1.01187 0.0353633 1.37157e-18)
(1.0122 0.0346546 -1.69189e-18)
(1.01243 0.0339902 5.90586e-19)
(1.01255 0.0333758 3.2169e-19)
(1.01258 0.0328163 6.42478e-19)
(1.01253 0.0323133 -9.12167e-19)
(1.01245 0.0318687 -3.31639e-20)
(1.01234 0.0314801 -2.7525e-19)
(1.01225 0.0311474 1.53462e-18)
(1.01219 0.0308639 -8.34928e-19)
(1.01219 0.0306268 4.88981e-19)
(1.01226 0.0304267 -6.46656e-19)
(1.01239 0.0302579 8.31475e-20)
(1.01259 0.0301063 7.42475e-19)
(1.01282 0.0299647 -4.54836e-19)
(1.01305 0.0298196 -3.00971e-19)
(1.01327 0.0296641 -1.92121e-19)
(1.01341 0.0294885 5.92055e-19)
(1.01346 0.0292962 -3.33047e-19)
(1.01339 0.0290826 1.907e-19)
(1.01315 0.0288538 -3.23873e-19)
(1.01276 0.0286106 2.8251e-19)
(1.01219 0.0283582 -3.81546e-19)
(1.01146 0.0280996 3.41359e-21)
(1.01058 0.0278413 -3.73694e-19)
(1.00957 0.0275908 3.62246e-20)
(1.00847 0.0273624 1.19526e-20)
(1.00729 0.0271532 -2.69907e-20)
(1.00606 0.0269498 1.64096e-19)
(1.0048 0.0267352 -1.22258e-19)
(1.00352 0.0264881 5.43612e-19)
(1.00225 0.0261941 -3.02851e-19)
(1.00099 0.025831 1.58936e-19)
(0.999763 0.0253693 1.76534e-19)
(0.99857 0.024779 -2.21592e-19)
(0.997416 0.0240308 2.63892e-20)
(0.996298 0.0231366 -1.46001e-20)
(0.995221 0.0220532 1.47323e-18)
(0.994166 0.0208089 8.34727e-19)
(0.993126 0.0193981 5.07884e-19)
(0.992035 0.0177917 1.3652e-18)
(0.990778 0.0159202 -1.78789e-18)
(0.989143 0.0135326 -4.28463e-18)
(0.986936 0.0103586 -3.39888e-18)
(0.98405 0.00613523 -4.94685e-18)
(0.980522 0.000551611 -1.70989e-18)
(0.976666 -0.00663608 -4.69582e-18)
(0.97315 -0.0157021 9.19166e-18)
(0.970804 -0.0264963 -1.80577e-17)
(0.970368 -0.0383818 -6.55081e-18)
(0.970901 -0.0505013 -1.07606e-17)
(0.975209 -0.0635521 -2.51798e-18)
(0.98331 -0.0808148 2.79565e-19)
(0.990569 -0.0822566 1.62329e-18)
(0.983413 -0.0734685 -5.9679e-18)
(1.00845 0.0437944 6.60754e-19)
(1.00897 0.0431705 6.63886e-19)
(1.00957 0.042508 -9.26089e-19)
(1.0102 0.0417869 2.72972e-19)
(1.01078 0.0410316 9.5138e-20)
(1.01131 0.0402716 6.48112e-19)
(1.01175 0.0395148 7.1407e-20)
(1.01211 0.0387767 -9.29863e-19)
(1.01235 0.0380674 3.60912e-19)
(1.0125 0.0373949 3.18857e-19)
(1.01254 0.0367648 -2.46415e-20)
(1.01249 0.036182 3.5375e-19)
(1.01238 0.0356476 1.46932e-19)
(1.01224 0.035165 -9.88109e-19)
(1.01208 0.0347315 2.63564e-19)
(1.01193 0.034349 5.09215e-19)
(1.01183 0.0340125 -1.87554e-19)
(1.01178 0.0337213 -1.10983e-18)
(1.01179 0.0334648 1.13117e-18)
(1.01188 0.0332387 -2.40897e-19)
(1.01201 0.0330293 -4.59354e-19)
(1.01217 0.0328281 1.769e-19)
(1.01234 0.0326215 -1.00236e-19)
(1.01247 0.0324074 1.08842e-19)
(1.01254 0.0321735 -5.28775e-19)
(1.0125 0.0319207 1.02878e-19)
(1.01233 0.0316428 -4.60983e-19)
(1.01201 0.0313402 3.20173e-19)
(1.01152 0.0310153 3.98254e-19)
(1.01087 0.0306722 5.97047e-20)
(1.01005 0.0303225 -4.75725e-19)
(1.00909 0.0299831 -3.81982e-19)
(1.008 0.0296568 3.60845e-19)
(1.0068 0.0293339 6.72277e-19)
(1.0055 0.0290018 -8.36308e-19)
(1.00414 0.0286423 2.86603e-19)
(1.00273 0.0282432 5.04565e-19)
(1.00129 0.0277824 4.2688e-19)
(0.999863 0.027229 2.33136e-19)
(0.998457 0.0265516 2.4759e-19)
(0.997098 0.0257204 1.3859e-19)
(0.995805 0.024744 -5.93199e-20)
(0.994622 0.0235811 2.65337e-19)
(0.993575 0.0222614 -1.02363e-18)
(0.992662 0.0208019 -3.04553e-19)
(0.991838 0.0191988 -3.78168e-18)
(0.991011 0.0174181 3.52414e-18)
(0.989985 0.0152391 6.97452e-18)
(0.988561 0.0124045 -3.52677e-18)
(0.986577 0.00864698 -6.54443e-18)
(0.983968 0.00363115 -5.45434e-18)
(0.98091 -0.00290221 9.49493e-18)
(0.977929 -0.0112684 -7.26011e-18)
(0.97577 -0.0213824 4.46131e-18)
(0.975116 -0.0326526 1.26415e-18)
(0.975051 -0.0443128 -1.19034e-18)
(0.978336 -0.0570753 2.91358e-18)
(0.985869 -0.0744624 2.30734e-18)
(0.991036 -0.076755 -7.57899e-18)
(0.979573 -0.0731191 4.18319e-17)
(1.00811 0.0480591 -6.31766e-19)
(1.00851 0.0475469 9.42109e-19)
(1.009 0.04701 -1.23054e-19)
(1.00956 0.0463734 -5.76107e-19)
(1.01012 0.0456746 9.06472e-19)
(1.01066 0.0449409 -7.29139e-19)
(1.01117 0.044182 3.37922e-19)
(1.01161 0.0434166 -2.15291e-19)
(1.01196 0.0426574 -2.04825e-19)
(1.01222 0.0419161 6.75943e-19)
(1.01237 0.0412009 3.7292e-19)
(1.01242 0.0405196 -9.58489e-19)
(1.01237 0.0398755 5.53904e-20)
(1.01225 0.0392741 -3.52025e-19)
(1.01207 0.0387149 3.54589e-19)
(1.01185 0.0382027 2.09364e-19)
(1.01163 0.0377359 3.11371e-19)
(1.01143 0.037318 -6.38777e-19)
(1.01127 0.036943 5.54633e-19)
(1.01117 0.0366109 -4.04961e-19)
(1.01112 0.0363115 3.26399e-20)
(1.01113 0.0360385 7.72484e-19)
(1.01118 0.0357789 -6.96107e-19)
(1.01125 0.0355281 8.63016e-19)
(1.01131 0.0352696 -3.40691e-19)
(1.01133 0.0349999 4.84511e-19)
(1.01127 0.0347056 2.19383e-19)
(1.0111 0.0343812 -1.51741e-19)
(1.0108 0.0340243 -1.03539e-19)
(1.01034 0.0336344 -3.68398e-19)
(1.00972 0.0332229 7.89214e-19)
(1.00894 0.0328055 -2.36173e-19)
(1.008 0.0323878 2.32105e-19)
(1.00691 0.0319622 -4.38785e-19)
(1.00568 0.0315189 -3.06004e-19)
(1.00432 0.0310431 -5.54228e-19)
(1.00287 0.0305252 2.11187e-19)
(1.00136 0.0299448 2.95757e-19)
(0.999806 0.0292714 2.34341e-19)
(0.998254 0.0284737 -1.57791e-19)