1.275 	2.15223e-18 	-2.76991e-20 	-0.0337032 	-0.000450454 	-2.00224e-22
1.825 	2.15223e-18 	-1.39322e-20 	-0.00811399 	-0.00281706 	1.80083e-21
2.375 	2.15223e-18 	-2.66896e-23 	0.11909 	-0.00335476 	-7.51391e-22
