/*--------------------------------*- C++ -*----------------------------------*\
  =========                 |
  \\      /  F ield         | OpenFOAM: The Open Source CFD Toolbox
   \\    /   O peration     | Website:  https://openfoam.org
    \\  /    A nd           | Version:  6.0
     \\/     M anipulation  |
\*---------------------------------------------------------------------------*/
FoamFile
{
    version     2.0;
    format      ascii;
    class       volScalarField;
    location    "130";
    object      p;
}
// * * * * * * * * * * * * * * * * * * * * * * * * * * * * * * * * * * * * * //

dimensions      [0 2 -2 0 0 0 0];

internalField   nonuniform List<scalar> 
34500
(
1.00688
1.00723
1.00737
1.00733
1.00713
1.00682
1.0064
1.0059
1.00534
1.00477
1.00414
1.00361
1.00283
1.0026
1.00254
1.00689
1.00727
1.00748
1.00754
1.00747
1.00728
1.007
1.00663
1.00617
1.00567
1.00507
1.00456
1.00369
1.00369
1.00344
1.00689
1.00726
1.00743
1.00744
1.0073
1.00704
1.00667
1.00623
1.00571
1.00517
1.00455
1.00406
1.00328
1.00356
1.00337
1.00689
1.00725
1.0074
1.00737
1.00718
1.00687
1.00645
1.00597
1.00542
1.00487
1.00426
1.0038
1.00314
1.00361
1.00375
1.0069
1.00726
1.00742
1.0074
1.00723
1.00693
1.00653
1.00606
1.00553
1.00499
1.0044
1.00398
1.00336
1.00393
1.00423
1.00691
1.00727
1.00744
1.00745
1.0073
1.00702
1.00664
1.00619
1.00568
1.00516
1.00458
1.00417
1.00357
1.00418
1.00455
1.00691
1.00728
1.00746
1.00747
1.00733
1.00706
1.00669
1.00624
1.00573
1.00522
1.00465
1.00424
1.00368
1.00433
1.00479
1.00692
1.00729
1.00747
1.00748
1.00734
1.00707
1.0067
1.00626
1.00575
1.00524
1.00468
1.00429
1.00378
1.00446
1.005
1.00693
1.0073
1.00748
1.0075
1.00736
1.0071
1.00672
1.00628
1.00578
1.00527
1.00473
1.00436
1.00388
1.00457
1.00519
1.00695
1.00732
1.0075
1.00752
1.00739
1.00713
1.00676
1.00632
1.00582
1.00532
1.00478
1.00443
1.00399
1.00468
1.00534
1.00696
1.00733
1.00751
1.00754
1.00741
1.00716
1.00679
1.00636
1.00586
1.00537
1.00484
1.0045
1.00409
1.00477
1.00546
1.00698
1.00735
1.00753
1.00756
1.00744
1.00719
1.00683
1.0064
1.0059
1.00542
1.0049
1.00457
1.00418
1.00484
1.00555
1.00699
1.00737
1.00755
1.00758
1.00746
1.00721
1.00686
1.00643
1.00594
1.00546
1.00495
1.00463
1.00426
1.00491
1.00563
1.00701
1.00739
1.00757
1.00761
1.00749
1.00724
1.00689
1.00647
1.00598
1.0055
1.005
1.00469
1.00435
1.00497
1.00569
1.00703
1.00741
1.0076
1.00763
1.00751
1.00727
1.00692
1.0065
1.00602
1.00555
1.00505
1.00475
1.00442
1.00502
1.00573
1.00705
1.00743
1.00762
1.00766
1.00754
1.0073
1.00695
1.00654
1.00606
1.00559
1.0051
1.0048
1.0045
1.00506
1.00577
1.00707
1.00746
1.00765
1.00769
1.00757
1.00733
1.00699
1.00657
1.00609
1.00563
1.00514
1.00485
1.00457
1.0051
1.00579
1.00709
1.00748
1.00768
1.00772
1.0076
1.00737
1.00702
1.00661
1.00613
1.00567
1.00519
1.00491
1.00464
1.00513
1.0058
1.00712
1.00751
1.00771
1.00775
1.00764
1.0074
1.00706
1.00665
1.00617
1.00571
1.00524
1.00496
1.0047
1.00517
1.00581
1.00715
1.00754
1.00775
1.00779
1.00768
1.00745
1.0071
1.00669
1.00622
1.00576
1.00529
1.00501
1.00476
1.00519
1.00581
1.00717
1.00757
1.00778
1.00783
1.00772
1.00749
1.00715
1.00673
1.00626
1.0058
1.00534
1.00506
1.00481
1.00522
1.00581
1.0072
1.0076
1.00781
1.00787
1.00777
1.00753
1.00719
1.00678
1.00631
1.00585
1.00539
1.0051
1.00487
1.00524
1.0058
1.00723
1.00764
1.00785
1.00791
1.00781
1.00758
1.00724
1.00683
1.00635
1.00589
1.00543
1.00515
1.00491
1.00525
1.00578
1.00726
1.00767
1.00789
1.00795
1.00785
1.00762
1.00728
1.00687
1.0064
1.00594
1.00548
1.00519
1.00496
1.00526
1.00576
1.00729
1.00771
1.00792
1.00799
1.00789
1.00767
1.00733
1.00691
1.00644
1.00598
1.00552
1.00523
1.005
1.00527
1.00574
1.00733
1.00774
1.00796
1.00803
1.00793
1.00771
1.00737
1.00696
1.00648
1.00602
1.00556
1.00526
1.00503
1.00528
1.00572
1.00736
1.00778
1.008
1.00807
1.00797
1.00775
1.00741
1.007
1.00652
1.00605
1.00559
1.00529
1.00507
1.00528
1.00569
1.0074
1.00782
1.00804
1.00811
1.00801
1.00779
1.00745
1.00703
1.00656
1.00609
1.00563
1.00532
1.0051
1.00529
1.00566
1.00744
1.00786
1.00808
1.00815
1.00806
1.00783
1.00749
1.00707
1.0066
1.00613
1.00566
1.00535
1.00512
1.00529
1.00563
1.00748
1.00791
1.00813
1.0082
1.0081
1.00788
1.00753
1.00711
1.00663
1.00616
1.0057
1.00538
1.00515
1.00529
1.0056
1.00752
1.00795
1.00817
1.00824
1.00815
1.00792
1.00758
1.00716
1.00667
1.0062
1.00573
1.00541
1.00517
1.00528
1.00557
1.00756
1.008
1.00822
1.00829
1.0082
1.00797
1.00762
1.0072
1.00671
1.00623
1.00576
1.00544
1.00519
1.00528
1.00554
1.00761
1.00804
1.00827
1.00834
1.00825
1.00802
1.00767
1.00724
1.00675
1.00627
1.0058
1.00546
1.00521
1.00528
1.00551
1.00765
1.00809
1.00832
1.0084
1.0083
1.00807
1.00772
1.00729
1.0068
1.00631
1.00583
1.00549
1.00523
1.00527
1.00547
1.0077
1.00814
1.00838
1.00845
1.00836
1.00812
1.00777
1.00734
1.00684
1.00635
1.00586
1.00551
1.00525
1.00526
1.00544
1.00775
1.0082
1.00843
1.00851
1.00841
1.00818
1.00782
1.00738
1.00688
1.00638
1.00589
1.00553
1.00526
1.00526
1.00541
1.0078
1.00825
1.00849
1.00857
1.00847
1.00824
1.00788
1.00743
1.00693
1.00642
1.00593
1.00555
1.00527
1.00524
1.00537
1.00785
1.00831
1.00855
1.00862
1.00853
1.00829
1.00793
1.00748
1.00697
1.00646
1.00596
1.00557
1.00528
1.00523
1.00533
1.0079
1.00836
1.0086
1.00868
1.00859
1.00835
1.00798
1.00753
1.00701
1.00649
1.00599
1.00559
1.00529
1.00522
1.00529
1.00796
1.00842
1.00866
1.00875
1.00865
1.00841
1.00804
1.00758
1.00706
1.00653
1.00601
1.00561
1.00529
1.0052
1.00525
1.00801
1.00848
1.00872
1.00881
1.00871
1.00847
1.00809
1.00763
1.0071
1.00656
1.00604
1.00562
1.0053
1.00519
1.00522
1.00807
1.00854
1.00879
1.00887
1.00877
1.00853
1.00815
1.00768
1.00714
1.0066
1.00606
1.00564
1.0053
1.00517
1.00518
1.00813
1.0086
1.00885
1.00893
1.00884
1.00859
1.0082
1.00772
1.00718
1.00663
1.00609
1.00565
1.0053
1.00515
1.00513
1.00819
1.00867
1.00892
1.009
1.0089
1.00865
1.00826
1.00777
1.00722
1.00666
1.00611
1.00566
1.0053
1.00513
1.00509
1.00825
1.00873
1.00898
1.00907
1.00896
1.00871
1.00831
1.00782
1.00726
1.00669
1.00613
1.00566
1.00529
1.00511
1.00505
1.00831
1.0088
1.00905
1.00914
1.00903
1.00877
1.00837
1.00787
1.0073
1.00672
1.00615
1.00567
1.00529
1.00509
1.00501
1.00838
1.00887
1.00912
1.00921
1.0091
1.00883
1.00842
1.00792
1.00734
1.00675
1.00617
1.00568
1.00528
1.00506
1.00497
1.00845
1.00894
1.00919
1.00928
1.00917
1.0089
1.00848
1.00797
1.00738
1.00678
1.00619
1.00569
1.00528
1.00504
1.00493
1.00852
1.00901
1.00927
1.00935
1.00924
1.00896
1.00854
1.00802
1.00742
1.00681
1.00621
1.00569
1.00527
1.00501
1.00488
1.00859
1.00909
1.00934
1.00943
1.00931
1.00903
1.0086
1.00807
1.00747
1.00684
1.00623
1.0057
1.00526
1.00499
1.00484
1.00866
1.00916
1.00942
1.0095
1.00939
1.0091
1.00867
1.00813
1.00751
1.00688
1.00625
1.00571
1.00525
1.00496
1.00479
1.00873
1.00924
1.0095
1.00958
1.00946
1.00917
1.00873
1.00818
1.00756
1.00691
1.00627
1.00571
1.00524
1.00493
1.00475
1.00881
1.00932
1.00958
1.00967
1.00954
1.00925
1.0088
1.00824
1.0076
1.00694
1.00629
1.00571
1.00523
1.0049
1.0047
1.00888
1.0094
1.00967
1.00975
1.00962
1.00932
1.00887
1.0083
1.00765
1.00697
1.0063
1.00571
1.00521
1.00487
1.00465
1.00896
1.00949
1.00975
1.00983
1.0097
1.0094
1.00893
1.00835
1.00769
1.007
1.00632
1.00571
1.0052
1.00484
1.0046
1.00904
1.00957
1.00984
1.00992
1.00979
1.00947
1.009
1.00841
1.00774
1.00703
1.00634
1.00571
1.00518
1.0048
1.00455
1.00912
1.00966
1.00993
1.01001
1.00987
1.00955
1.00907
1.00847
1.00778
1.00706
1.00635
1.00571
1.00516
1.00477
1.0045
1.00921
1.00975
1.01002
1.0101
1.00996
1.00963
1.00914
1.00853
1.00782
1.00709
1.00636
1.00571
1.00514
1.00473
1.00445
1.0093
1.00984
1.01011
1.01019
1.01004
1.00971
1.00921
1.00858
1.00787
1.00712
1.00637
1.0057
1.00512
1.00469
1.00439
1.00938
1.00993
1.0102
1.01028
1.01013
1.00979
1.00928
1.00864
1.00791
1.00714
1.00638
1.00569
1.0051
1.00465
1.00434
1.00947
1.01003
1.0103
1.01037
1.01022
1.00987
1.00935
1.0087
1.00795
1.00717
1.00639
1.00569
1.00507
1.00461
1.00428
1.00957
1.01013
1.0104
1.01047
1.01031
1.00996
1.00942
1.00876
1.008
1.0072
1.00641
1.00568
1.00505
1.00457
1.00423
1.00966
1.01022
1.0105
1.01057
1.01041
1.01004
1.0095
1.00882
1.00804
1.00723
1.00642
1.00567
1.00502
1.00453
1.00417
1.00976
1.01033
1.0106
1.01067
1.0105
1.01013
1.00957
1.00888
1.00809
1.00726
1.00643
1.00567
1.005
1.00449
1.00411
1.00985
1.01043
1.0107
1.01077
1.0106
1.01022
1.00965
1.00894
1.00814
1.00729
1.00644
1.00566
1.00497
1.00444
1.00405
1.00995
1.01053
1.01081
1.01088
1.0107
1.01031
1.00973
1.00901
1.00818
1.00732
1.00645
1.00565
1.00494
1.00439
1.00398
1.01006
1.01064
1.01092
1.01099
1.0108
1.0104
1.00981
1.00908
1.00823
1.00734
1.00646
1.00563
1.00491
1.00434
1.00392
1.01016
1.01075
1.01103
1.0111
1.01091
1.0105
1.0099
1.00914
1.00828
1.00737
1.00646
1.00562
1.00487
1.00429
1.00385
1.01027
1.01086
1.01114
1.01121
1.01101
1.0106
1.00998
1.00921
1.00833
1.0074
1.00647
1.0056
1.00484
1.00424
1.00379
1.01038
1.01098
1.01126
1.01132
1.01112
1.01069
1.01007
1.00928
1.00838
1.00743
1.00647
1.00559
1.0048
1.00419
1.00372
1.01049
1.0111
1.01138
1.01144
1.01123
1.01079
1.01015
1.00934
1.00843
1.00745
1.00648
1.00557
1.00476
1.00413
1.00365
1.0106
1.01121
1.0115
1.01156
1.01134
1.01089
1.01024
1.00941
1.00847
1.00748
1.00648
1.00555
1.00472
1.00407
1.00357
1.01072
1.01134
1.01162
1.01168
1.01145
1.01099
1.01032
1.00948
1.00852
1.0075
1.00648
1.00553
1.00468
1.00401
1.0035
1.01084
1.01146
1.01174
1.0118
1.01157
1.0111
1.01041
1.00955
1.00857
1.00753
1.00649
1.00551
1.00464
1.00395
1.00342
1.01096
1.01159
1.01187
1.01192
1.01169
1.0112
1.0105
1.00962
1.00862
1.00755
1.00649
1.00549
1.0046
1.00389
1.00334
1.01108
1.01172
1.012
1.01205
1.01181
1.01131
1.01059
1.00969
1.00867
1.00758
1.00649
1.00547
1.00455
1.00382
1.00326
1.01121
1.01185
1.01213
1.01218
1.01193
1.01142
1.01069
1.00977
1.00872
1.00761
1.00649
1.00544
1.0045
1.00376
1.00318
1.01134
1.01198
1.01227
1.01231
1.01205
1.01153
1.01078
1.00984
1.00877
1.00763
1.00649
1.00542
1.00446
1.00369
1.0031
1.01147
1.01212
1.01241
1.01245
1.01218
1.01165
1.01088
1.00992
1.00882
1.00766
1.00649
1.00539
1.00441
1.00362
1.00301
1.0116
1.01226
1.01255
1.01259
1.01231
1.01177
1.01098
1.01
1.00888
1.00769
1.00649
1.00537
1.00436
1.00355
1.00292
1.01174
1.0124
1.01269
1.01273
1.01244
1.01189
1.01108
1.01008
1.00893
1.00771
1.00649
1.00534
1.0043
1.00347
1.00283
1.01187
1.01254
1.01284
1.01287
1.01258
1.01201
1.01119
1.01016
1.00899
1.00774
1.00649
1.00531
1.00425
1.0034
1.00274
1.01202
1.01269
1.01299
1.01302
1.01272
1.01213
1.01129
1.01024
1.00904
1.00777
1.00648
1.00527
1.00419
1.00331
1.00264
1.01216
1.01284
1.01314
1.01317
1.01286
1.01226
1.0114
1.01032
1.0091
1.00779
1.00648
1.00524
1.00413
1.00323
1.00254
1.01231
1.013
1.0133
1.01332
1.013
1.01239
1.01151
1.01041
1.00915
1.00781
1.00647
1.0052
1.00406
1.00315
1.00244
1.01246
1.01315
1.01345
1.01347
1.01315
1.01252
1.01161
1.01049
1.0092
1.00784
1.00646
1.00516
1.004
1.00306
1.00233
1.01261
1.01331
1.01361
1.01363
1.01329
1.01265
1.01172
1.01057
1.00925
1.00786
1.00645
1.00512
1.00393
1.00297
1.00223
1.01277
1.01347
1.01378
1.01379
1.01344
1.01278
1.01183
1.01065
1.00931
1.00788
1.00644
1.00508
1.00386
1.00288
1.00212
1.01293
1.01364
1.01394
1.01395
1.01359
1.01291
1.01194
1.01074
1.00936
1.0079
1.00643
1.00504
1.00379
1.00278
1.002
1.01309
1.01381
1.01411
1.01411
1.01375
1.01305
1.01206
1.01082
1.00942
1.00792
1.00642
1.005
1.00372
1.00269
1.00189
1.01325
1.01398
1.01429
1.01428
1.0139
1.01319
1.01217
1.01091
1.00947
1.00794
1.0064
1.00495
1.00364
1.00259
1.00177
1.01342
1.01416
1.01446
1.01446
1.01406
1.01333
1.01229
1.011
1.00953
1.00797
1.00639
1.0049
1.00357
1.00249
1.00165
1.01359
1.01434
1.01464
1.01463
1.01423
1.01348
1.01242
1.0111
1.00959
1.00799
1.00638
1.00486
1.00349
1.00238
1.00152
1.01377
1.01452
1.01483
1.01481
1.0144
1.01363
1.01254
1.01119
1.00965
1.00801
1.00636
1.00481
1.00341
1.00227
1.0014
1.01395
1.0147
1.01502
1.015
1.01457
1.01379
1.01267
1.01129
1.00971
1.00803
1.00635
1.00476
1.00332
1.00216
1.00126
1.01413
1.01489
1.01521
1.01518
1.01475
1.01394
1.0128
1.01139
1.00977
1.00806
1.00633
1.0047
1.00323
1.00205
1.00113
1.01432
1.01509
1.0154
1.01537
1.01493
1.0141
1.01294
1.01149
1.00983
1.00808
1.00631
1.00464
1.00314
1.00193
1.00099
1.01451
1.01528
1.0156
1.01557
1.01511
1.01427
1.01307
1.01159
1.00989
1.0081
1.00629
1.00458
1.00305
1.00181
1.00085
1.0147
1.01549
1.0158
1.01577
1.01529
1.01443
1.01321
1.01169
1.00995
1.00812
1.00627
1.00452
1.00295
1.00168
1.0007
1.01489
1.01569
1.01601
1.01597
1.01548
1.0146
1.01334
1.01179
1.01001
1.00813
1.00624
1.00446
1.00285
1.00155
1.00055
1.01509
1.0159
1.01622
1.01617
1.01567
1.01477
1.01348
1.01189
1.01007
1.00815
1.00622
1.00439
1.00275
1.00142
1.0004
1.0153
1.01611
1.01643
1.01638
1.01587
1.01494
1.01362
1.01199
1.01014
1.00817
1.00619
1.00432
1.00265
1.00129
1.00024
1.0155
1.01633
1.01665
1.01659
1.01607
1.01511
1.01377
1.0121
1.0102
1.00818
1.00616
1.00425
1.00254
1.00115
1.00008
1.01572
1.01655
1.01687
1.01681
1.01627
1.01529
1.01391
1.0122
1.01026
1.0082
1.00613
1.00418
1.00243
1.001
0.999909
1.01593
1.01677
1.0171
1.01703
1.01647
1.01547
1.01406
1.01231
1.01032
1.00821
1.0061
1.0041
1.00231
1.00086
0.999738
1.01615
1.017
1.01733
1.01726
1.01668
1.01566
1.01421
1.01242
1.01039
1.00823
1.00606
1.00402
1.00219
1.0007
0.999563
1.01637
1.01723
1.01756
1.01749
1.0169
1.01585
1.01437
1.01253
1.01045
1.00824
1.00602
1.00394
1.00207
1.00055
0.999382
1.0166
1.01747
1.0178
1.01772
1.01711
1.01604
1.01452
1.01265
1.01051
1.00825
1.00598
1.00385
1.00194
1.00039
0.999198
1.01683
1.01772
1.01805
1.01796
1.01734
1.01623
1.01468
1.01276
1.01057
1.00826
1.00594
1.00376
1.00181
1.00022
0.999008
1.01707
1.01796
1.0183
1.0182
1.01756
1.01643
1.01484
1.01287
1.01064
1.00827
1.0059
1.00367
1.00167
1.00005
0.998815
1.01731
1.01822
1.01855
1.01845
1.01779
1.01663
1.015
1.01299
1.0107
1.00827
1.00585
1.00357
1.00153
0.999881
0.998617
1.01756
1.01847
1.01881
1.0187
1.01803
1.01684
1.01517
1.0131
1.01076
1.00828
1.0058
1.00347
1.00139
0.999704
0.998414
1.01781
1.01874
1.01907
1.01896
1.01826
1.01705
1.01534
1.01322
1.01082
1.00829
1.00575
1.00337
1.00125
0.999523
0.998206
1.01806
1.019
1.01934
1.01922
1.01851
1.01726
1.01551
1.01334
1.01089
1.00829
1.0057
1.00327
1.0011
0.999338
0.997994
1.01832
1.01928
1.01962
1.01949
1.01876
1.01748
1.01568
1.01347
1.01095
1.0083
1.00565
1.00316
1.00095
0.999148
0.997776
1.01859
1.01955
1.0199
1.01976
1.01901
1.0177
1.01586
1.01359
1.01102
1.0083
1.00559
1.00305
1.00079
0.998954
0.997553
1.01886
1.01984
1.02019
1.02004
1.01927
1.01793
1.01605
1.01372
1.01109
1.00831
1.00554
1.00294
1.00063
0.998753
0.997323
1.01913
1.02013
1.02048
1.02033
1.01954
1.01816
1.01623
1.01385
1.01116
1.00831
1.00548
1.00283
1.00046
0.998547
0.997087
1.01941
1.02042
1.02078
1.02062
1.01981
1.0184
1.01642
1.01399
1.01123
1.00832
1.00542
1.0027
1.00029
0.998335
0.996845
1.0197
1.02073
1.02108
1.02092
1.02009
1.01864
1.01662
1.01412
1.0113
1.00832
1.00535
1.00258
1.00012
0.998116
0.996596
1.01999
1.02103
1.02139
1.02122
1.02037
1.01889
1.01682
1.01426
1.01136
1.00831
1.00528
1.00245
0.999932
0.997891
0.996341
1.02029
1.02135
1.0217
1.02153
1.02066
1.01914
1.01702
1.0144
1.01143
1.00831
1.00521
1.00231
0.999742
0.997659
0.996079
1.02059
1.02166
1.02203
1.02185
1.02095
1.0194
1.01722
1.01453
1.0115
1.0083
1.00513
1.00217
0.999545
0.997421
0.99581
1.0209
1.02199
1.02235
1.02217
1.02125
1.01965
1.01742
1.01467
1.01156
1.00829
1.00505
1.00202
0.999343
0.997176
0.995535
1.02122
1.02232
1.02269
1.02249
1.02155
1.01992
1.01763
1.01481
1.01162
1.00827
1.00496
1.00186
0.999134
0.996924
0.995253
1.02154
1.02266
1.02303
1.02283
1.02186
1.02018
1.01783
1.01494
1.01168
1.00825
1.00486
1.0017
0.99892
0.996667
0.994965
1.02187
1.023
1.02338
1.02316
1.02217
1.02045
1.01805
1.01508
1.01174
1.00823
1.00477
1.00154
0.9987
0.996403
0.99467
1.0222
1.02336
1.02373
1.02351
1.02249
1.02073
1.01826
1.01522
1.0118
1.00821
1.00466
1.00137
0.998474
0.996134
0.994368
1.02254
1.02372
1.02409
1.02386
1.02282
1.02101
1.01848
1.01536
1.01186
1.00818
1.00456
1.0012
0.998243
0.995857
0.99406
1.02289
1.02408
1.02446
1.02423
1.02315
1.02129
1.0187
1.01551
1.01191
1.00815
1.00445
1.00102
0.998006
0.995575
0.993744
1.02324
1.02446
1.02484
1.02459
1.02349
1.02158
1.01892
1.01565
1.01197
1.00812
1.00434
1.00084
0.997763
0.995286
0.993421
1.0236
1.02484
1.02523
1.02497
1.02384
1.02188
1.01915
1.0158
1.01203
1.00809
1.00423
1.00065
0.997515
0.994989
0.993091
1.02397
1.02523
1.02562
1.02536
1.02419
1.02219
1.01939
1.01595
1.01209
1.00806
1.00411
1.00045
0.997259
0.994685
0.992753
1.02435
1.02563
1.02602
1.02575
1.02455
1.0225
1.01963
1.0161
1.01215
1.00802
1.00398
1.00025
0.996996
0.994374
0.992406
1.02473
1.02604
1.02644
1.02615
1.02493
1.02282
1.01987
1.01626
1.01221
1.00798
1.00385
1.00005
0.996725
0.994054
0.992051
1.02513
1.02645
1.02686
1.02656
1.02531
1.02314
1.02012
1.01641
1.01226
1.00794
1.00372
0.999834
0.996447
0.993726
0.991688
1.02553
1.02687
1.02729
1.02698
1.02569
1.02347
1.02037
1.01657
1.01232
1.0079
1.00358
0.999612
0.99616
0.993389
0.991315
1.02593
1.02731
1.02772
1.02741
1.02609
1.02381
1.02063
1.01673
1.01237
1.00785
1.00343
0.999384
0.995865
0.993043
0.990934
1.02635
1.02775
1.02817
1.02785
1.02649
1.02415
1.02089
1.01689
1.01242
1.00779
1.00328
0.999146
0.995561
0.992687
0.990543
1.02678
1.0282
1.02863
1.0283
1.0269
1.0245
1.02115
1.01705
1.01247
1.00773
1.00312
0.998901
0.995247
0.992323
0.990143
1.02721
1.02866
1.02909
1.02875
1.02732
1.02486
1.02142
1.01721
1.01252
1.00766
1.00295
0.998647
0.994925
0.991949
0.989734
1.02765
1.02913
1.02957
1.02922
1.02775
1.02522
1.02169
1.01737
1.01256
1.00759
1.00277
0.998383
0.994593
0.991566
0.989315
1.0281
1.02961
1.03006
1.02969
1.02819
1.02559
1.02196
1.01753
1.0126
1.00751
1.00259
0.998111
0.994251
0.991173
0.988887
1.02857
1.0301
1.03055
1.03018
1.02863
1.02596
1.02224
1.01769
1.01263
1.00743
1.0024
0.99783
0.9939
0.99077
0.988449
1.02904
1.0306
1.03106
1.03068
1.02909
1.02634
1.02252
1.01785
1.01266
1.00733
1.0022
0.997539
0.993539
0.990357
0.988001
1.02952
1.03111
1.03158
1.03119
1.02955
1.02673
1.0228
1.01801
1.01269
1.00724
1.00199
0.997239
0.993168
0.989934
0.987543
1.03001
1.03164
1.03211
1.0317
1.03002
1.02713
1.02309
1.01817
1.01272
1.00713
1.00177
0.996929
0.992786
0.989501
0.987074
1.03051
1.03217
1.03266
1.03224
1.03051
1.02753
1.02338
1.01833
1.01274
1.00702
1.00155
0.99661
0.992395
0.989057
0.986596
1.03102
1.03272
1.03321
1.03278
1.031
1.02794
1.02368
1.01848
1.01275
1.0069
1.00131
0.99628
0.991992
0.988602
0.986106
1.03155
1.03327
1.03378
1.03333
1.03151
1.02836
1.02398
1.01864
1.01277
1.00678
1.00107
0.995939
0.991578
0.988137
0.985607
1.03208
1.03384
1.03436
1.0339
1.03203
1.02879
1.02428
1.0188
1.01277
1.00665
1.00081
0.995587
0.991153
0.98766
0.985095
1.03263
1.03443
1.03495
1.03448
1.03255
1.02922
1.02458
1.01896
1.01278
1.00651
1.00055
0.995224
0.990716
0.987171
0.984573
1.03319
1.03502
1.03556
1.03508
1.03309
1.02967
1.02489
1.01911
1.01277
1.00636
1.00027
0.994849
0.990267
0.98667
0.984039
1.03376
1.03563
1.03618
1.03568
1.03364
1.03012
1.02521
1.01927
1.01276
1.0062
0.999988
0.994462
0.989806
0.986157
0.983494
1.03434
1.03626
1.03682
1.03631
1.03421
1.03058
1.02552
1.01942
1.01275
1.00603
0.999689
0.994062
0.989331
0.985632
0.982937
1.03494
1.0369
1.03747
1.03694
1.03478
1.03105
1.02584
1.01957
1.01272
1.00585
0.999378
0.993648
0.988843
0.985094
0.982367
1.03555
1.03755
1.03814
1.03759
1.03537
1.03152
1.02617
1.01971
1.01269
1.00566
0.999054
0.993221
0.988342
0.984542
0.981786
1.03617
1.03822
1.03882
1.03826
1.03597
1.032
1.02649
1.01986
1.01265
1.00545
0.998716
0.99278
0.987826
0.983977
0.981192
1.03681
1.0389
1.03952
1.03894
1.03658
1.0325
1.02682
1.01999
1.01261
1.00524
0.998365
0.992323
0.987296
0.983399
0.980585
1.03746
1.0396
1.04023
1.03964
1.03721
1.033
1.02715
1.02013
1.01255
1.00501
0.997998
0.991852
0.986751
0.982806
0.979966
1.03813
1.04031
1.04097
1.04035
1.03785
1.03351
1.02748
1.02026
1.01248
1.00477
0.997616
0.991365
0.986191
0.9822
0.979333
1.03881
1.04104
1.04172
1.04108
1.03851
1.03402
1.02781
1.02038
1.0124
1.00451
0.997219
0.990862
0.985616
0.981579
0.978688
1.03951
1.04179
1.04248
1.04183
1.03917
1.03455
1.02814
1.0205
1.01231
1.00424
0.996805
0.990342
0.985024
0.980942
0.978028
1.04022
1.04256
1.04327
1.0426
1.03986
1.03508
1.02847
1.02061
1.01221
1.00396
0.996373
0.989805
0.984416
0.980292
0.977356
1.04095
1.04335
1.04408
1.04338
1.04055
1.03562
1.02881
1.02072
1.0121
1.00366
0.995925
0.989251
0.983792
0.979625
0.976669
1.0417
1.04415
1.04491
1.04419
1.04127
1.03617
1.02914
1.02081
1.01197
1.00334
0.995457
0.988678
0.98315
0.978943
0.975969
1.04246
1.04498
1.04575
1.04501
1.04199
1.03673
1.02947
1.0209
1.01183
1.003
0.994971
0.988087
0.982491
0.978245
0.975254
1.04324
1.04582
1.04662
1.04586
1.04274
1.03729
1.0298
1.02098
1.01167
1.00264
0.994465
0.987476
0.981814
0.977531
0.974525
1.04405
1.04669
1.04751
1.04672
1.0435
1.03787
1.03013
1.02104
1.01149
1.00227
0.993938
0.986845
0.981118
0.9768
0.973781
1.04487
1.04757
1.04843
1.04761
1.04427
1.03845
1.03046
1.0211
1.0113
1.00187
0.99339
0.986194
0.980404
0.976053
0.973022
1.04571
1.04848
1.04936
1.04852
1.04506
1.03903
1.03078
1.02114
1.01108
1.00145
0.99282
0.985522
0.97967
0.975288
0.972249
1.04657
1.04942
1.05032
1.04945
1.04587
1.03963
1.03109
1.02117
1.01085
1.00101
0.992226
0.984828
0.978917
0.974506
0.97146
1.04745
1.05037
1.05131
1.0504
1.0467
1.04023
1.03141
1.02118
1.0106
1.00054
0.991609
0.984111
0.978143
0.973707
0.970656
1.04835
1.05135
1.05232
1.05138
1.04754
1.04083
1.03171
1.02117
1.01032
1.00005
0.990967
0.983372
0.977349
0.972889
0.969836
1.04928
1.05236
1.05336
1.05239
1.0484
1.04144
1.03201
1.02115
1.01002
0.999537
0.990299
0.982609
0.976535
0.972053
0.969
1.05023
1.05339
1.05443
1.05342
1.04928
1.04206
1.0323
1.02111
1.00969
0.998993
0.989605
0.981821
0.975698
0.971199
0.968148
1.0512
1.05445
1.05553
1.05447
1.05017
1.04268
1.03257
1.02105
1.00934
0.998421
0.988883
0.981009
0.97484
0.970326
0.96728
1.0522
1.05554
1.05665
1.05555
1.05108
1.0433
1.03284
1.02096
1.00896
0.997819
0.988133
0.980171
0.97396
0.969434
0.966396
1.05323
1.05666
1.05781
1.05666
1.05201
1.04392
1.03309
1.02086
1.00855
0.997186
0.987353
0.979308
0.973057
0.968522
0.965495
1.05428
1.0578
1.059
1.0578
1.05296
1.04455
1.03333
1.02072
1.00811
0.99652
0.986543
0.978417
0.972131
0.967591
0.964578
1.05535
1.05898
1.06022
1.05897
1.05392
1.04517
1.03355
1.02056
1.00763
0.995821
0.985702
0.977498
0.971182
0.966641
0.963643
1.05646
1.06019
1.06148
1.06017
1.0549
1.04579
1.03375
1.02036
1.00712
0.995086
0.984829
0.976552
0.970209
0.96567
0.962692
1.0576
1.06144
1.06277
1.0614
1.0559
1.04641
1.03393
1.02013
1.00657
0.994314
0.983922
0.975577
0.969211
0.964678
0.961723
1.05876
1.06272
1.0641
1.06266
1.05691
1.04703
1.03409
1.01987
1.00598
0.993504
0.982981
0.974572
0.968189
0.963667
0.960737
1.05996
1.06403
1.06547
1.06396
1.05794
1.04764
1.03422
1.01957
1.00535
0.992655
0.982005
0.973538
0.967143
0.962634
0.959734
1.06119
1.06538
1.06688
1.06528
1.05899
1.04823
1.03432
1.01923
1.00468
0.991764
0.980992
0.972473
0.96607
0.961581
0.958713
1.06245
1.06678
1.06833
1.06665
1.06005
1.04882
1.03439
1.01884
1.00396
0.990831
0.979943
0.971377
0.964973
0.960506
0.957675
1.06375
1.06821
1.06983
1.06804
1.06112
1.0494
1.03443
1.01841
1.00319
0.989854
0.978855
0.97025
0.963849
0.959411
0.956618
1.06508
1.06969
1.07137
1.06947
1.0622
1.04996
1.03442
1.01794
1.00238
0.98883
0.977728
0.96909
0.962699
0.958293
0.955544
1.06645
1.07121
1.07295
1.07094
1.0633
1.05049
1.03437
1.0174
1.00151
0.98776
0.976561
0.967897
0.961522
0.957154
0.954452
1.06786
1.07277
1.07459
1.07245
1.0644
1.05101
1.03428
1.01682
1.00058
0.986641
0.975354
0.966671
0.960319
0.955994
0.953342
1.06931
1.07439
1.07628
1.07399
1.06551
1.0515
1.03414
1.01617
0.9996
0.98547
0.974104
0.965412
0.959089
0.954811
0.952214
1.07081
1.07605
1.07801
1.07557
1.06662
1.05195
1.03394
1.01546
0.998558
0.984249
0.972812
0.964118
0.957831
0.953606
0.951068
1.07235
1.07777
1.07981
1.07719
1.06774
1.05238
1.03368
1.01468
0.997453
0.982974
0.971477
0.96279
0.956546
0.95238
0.949904
1.07393
1.07955
1.08166
1.07884
1.06886
1.05276
1.03336
1.01383
0.996284
0.981644
0.970097
0.961427
0.955234
0.951131
0.948722
1.07556
1.08138
1.08357
1.08053
1.06997
1.05309
1.03297
1.01291
0.995046
0.980257
0.968672
0.960028
0.953893
0.94986
0.947522
1.07724
1.08327
1.08555
1.08226
1.07107
1.05337
1.0325
1.01191
0.99374
0.978814
0.967202
0.958594
0.952526
0.948568
0.946304
1.07897
1.08522
1.08758
1.08403
1.07216
1.0536
1.03195
1.01083
0.99236
0.977311
0.965685
0.957124
0.95113
0.947253
0.945068
1.08075
1.08725
1.08969
1.08583
1.07323
1.05376
1.03132
1.00966
0.990906
0.975748
0.964122
0.955619
0.949706
0.945916
0.943814
1.08259
1.08934
1.09186
1.08766
1.07427
1.05384
1.03059
1.0084
0.989374
0.974123
0.96251
0.954077
0.948254
0.944557
0.942542
1.08449
1.09151
1.09411
1.08952
1.07528
1.05385
1.02975
1.00704
0.987764
0.972436
0.960852
0.952499
0.946775
0.943176
0.941252
1.08645
1.09375
1.09643
1.09142
1.07626
1.05376
1.02881
1.00559
0.986071
0.970685
0.959146
0.950885
0.945268
0.941773
0.939945
1.08847
1.09608
1.09882
1.09334
1.07719
1.05357
1.02776
1.00403
0.984295
0.968871
0.957391
0.949235
0.943734
0.940349
0.93862
1.09056
1.09849
1.1013
1.09528
1.07806
1.05328
1.02658
1.00236
0.982432
0.966991
0.955588
0.947549
0.942173
0.938904
0.937277
1.09272
1.101
1.10385
1.09723
1.07886
1.05286
1.02528
1.00058
0.980483
0.965045
0.953737
0.945828
0.940584
0.937437
0.935918
1.09495
1.1036
1.10649
1.0992
1.07959
1.05231
1.02384
0.998689
0.978444
0.963034
0.951837
0.944071
0.938969
0.93595
0.934542
1.09726
1.10631
1.10922
1.10117
1.08022
1.05162
1.02225
0.996675
0.976315
0.960956
0.94989
0.942279
0.937328
0.934442
0.933149
1.09965
1.10912
1.11203
1.10313
1.08075
1.05077
1.02051
0.994539
0.974094
0.958812
0.947896
0.940453
0.935661
0.932914
0.931739
1.10213
1.11205
1.11492
1.10508
1.08116
1.04975
1.01861
0.992276
0.971782
0.956602
0.945854
0.938594
0.933969
0.931366
0.930313
1.1047
1.11511
1.1179
1.10701
1.08143
1.04855
1.01654
0.989885
0.969376
0.954326
0.943767
0.936701
0.932252
0.929798
0.928871
1.10736
1.11829
1.12096
1.10889
1.08155
1.04715
1.0143
0.987363
0.966877
0.951985
0.941634
0.934776
0.930511
0.928212
0.927414
1.11013
1.12161
1.12411
1.11072
1.08149
1.04554
1.01187
0.984709
0.964285
0.949579
0.939456
0.93282
0.928746
0.926607
0.925942
1.113
1.12507
1.12733
1.11247
1.08123
1.0437
1.00926
0.98192
0.961601
0.947111
0.937236
0.930833
0.926959
0.924984
0.924455
1.11598
1.12869
1.13063
1.11413
1.08075
1.04162
1.00646
0.978997
0.958825
0.94458
0.934974
0.928817
0.92515
0.923344
0.922952
1.11909
1.13247
1.134
1.11568
1.08003
1.03929
1.00346
0.975939
0.955959
0.941989
0.932671
0.926774
0.92332
0.921686
0.921436
1.12233
1.13642
1.13742
1.11708
1.07904
1.03668
1.00025
0.972746
0.953004
0.93934
0.93033
0.924703
0.921469
0.920012
0.919906
1.12571
1.14055
1.14088
1.11832
1.07776
1.03379
0.996848
0.969421
0.949963
0.936634
0.927953
0.922607
0.9196
0.918323
0.918363
1.12924
1.14487
1.14437
1.11935
1.07615
1.03061
0.993235
0.965966
0.946838
0.933875
0.92554
0.920486
0.917712
0.916619
0.916807
1.13294
1.14938
1.14788
1.12014
1.07418
1.02711
0.989416
0.962383
0.943632
0.931064
0.923096
0.918344
0.915807
0.9149
0.915238
1.13681
1.1541
1.15137
1.12065
1.07183
1.0233
0.985393
0.958677
0.940349
0.928206
0.920621
0.916181
0.913885
0.913168
0.913657
1.14087
1.15902
1.15482
1.12085
1.06906
1.01915
0.981168
0.954851
0.936993
0.925303
0.918118
0.913998
0.911949
0.911423
0.912065
1.14514
1.16416
1.1582
1.12067
1.06585
1.01468
0.976747
0.950913
0.933569
0.922358
0.915591
0.911799
0.909998
0.909665
0.910462
1.14964
1.16951
1.16146
1.12008
1.06217
1.00986
0.972135
0.946867
0.93008
0.919377
0.913042
0.909584
0.908035
0.907897
0.908849
1.15439
1.17507
1.16457
1.11901
1.05798
1.00471
0.967342
0.942722
0.926532
0.916362
0.910473
0.907355
0.906061
0.906117
0.907225
1.15941
1.18084
1.16747
1.11742
1.05327
0.999225
0.962379
0.938485
0.922932
0.913319
0.907889
0.905115
0.904076
0.904329
0.905592
1.16472
1.18681
1.1701
1.11523
1.04801
0.99341
0.957257
0.934166
0.919285
0.910252
0.905292
0.902865
0.902082
0.902531
0.90395
1.17036
1.19296
1.1724
1.11239
1.04218
0.987279
0.951992
0.929772
0.915597
0.907166
0.902685
0.900607
0.900081
0.900726
0.902301
1.17637
1.19926
1.17427
1.10884
1.03576
0.980848
0.946599
0.925313
0.911876
0.904065
0.900071
0.898344
0.898073
0.898914
0.900643
1.18276
1.2057
1.17564
1.1045
1.02875
0.974138
0.941096
0.920801
0.908128
0.900956
0.897455
0.896077
0.89606
0.897096
0.898979
1.18959
1.21222
1.17642
1.09932
1.02116
0.967176
0.935501
0.916245
0.904361
0.897844
0.894838
0.893809
0.894043
0.895272
0.897307
1.19689
1.21877
1.17648
1.09324
1.01298
0.959992
0.929835
0.911655
0.900583
0.894734
0.892226
0.89154
0.892025
0.893445
0.895631
1.20472
1.22528
1.17573
1.0862
1.00424
0.952622
0.924118
0.907043
0.896802
0.891632
0.889619
0.889274
0.890005
0.891615
0.893949
1.2131
1.23166
1.17402
1.07815
0.994969
0.945108
0.918371
0.902419
0.893026
0.888543
0.887023
0.887012
0.887986
0.889783
0.892264
1.2221
1.23782
1.17124
1.06905
0.985211
0.937492
0.912612
0.897795
0.889265
0.885474
0.88444
0.884757
0.885968
0.88795
0.890574
1.23176
1.24362
1.16723
1.05887
0.975021
0.929821
0.906862
0.893182
0.885525
0.882429
0.881873
0.882509
0.883955
0.886118
0.888882
1.24212
1.24891
1.16186
1.04762
0.964471
0.922144
0.901138
0.88859
0.881818
0.879414
0.879324
0.880271
0.881947
0.884286
0.887187
1.25323
1.2535
1.15497
1.03529
0.953646
0.914507
0.895458
0.884032
0.878152
0.876433
0.876797
0.878046
0.879946
0.882458
0.885491
1.26512
1.2572
1.14641
1.02193
0.942643
0.906957
0.889837
0.879519
0.874536
0.873493
0.874293
0.875835
0.877953
0.880633
0.883794
1.2778
1.25975
1.13605
1.00761
0.93157
0.899536
0.884288
0.875064
0.870978
0.870597
0.871816
0.87364
0.875971
0.878813
0.882097
1.29128
1.26086
1.12375
0.992426
0.920544
0.89228
0.878824
0.870679
0.86749
0.867749
0.869369
0.871464
0.874001
0.877
0.8804
1.30552
1.2602
1.10938
0.976532
0.909681
0.885218
0.873457
0.866378
0.864076
0.864953
0.866954
0.869309
0.872045
0.875195
0.878706
1.32045
1.25739
1.09288