/*--------------------------------*- C++ -*----------------------------------*\
  =========                 |
  \\      /  F ield         | OpenFOAM: The Open Source CFD Toolbox
   \\    /   O peration     | Website:  https://openfoam.org
    \\  /    A nd           | Version:  6.0
     \\/     M anipulation  |
\*---------------------------------------------------------------------------*/
FoamFile
{
    version     2.0;
    format      ascii;
    class       volScalarField;
    location    "9.6";
    object      p;
}
// * * * * * * * * * * * * * * * * * * * * * * * * * * * * * * * * * * * * * //

dimensions      [0 2 -2 0 0 0 0];

internalField   nonuniform List<scalar> 
34500
(
1.00593
1.00594
1.0058
1.00549
1.00506
1.00453
1.00393
1.00331
1.00268
1.0021
1.00157
1.00111
1.00071
1.00043
1.00027
1.00593
1.00598
1.00588
1.00566
1.00531
1.00486
1.00433
1.00374
1.00312
1.00251
1.00193
1.0014
1.00091
1.00058
1.00033
1.00593
1.00597
1.00585
1.00559
1.0052
1.00471
1.00415
1.00354
1.00292
1.00231
1.00174
1.00123
1.00078
1.00049
1.00024
1.00594
1.00596
1.00582
1.00553
1.00511
1.00459
1.00401
1.00338
1.00276
1.00215
1.0016
1.00111
1.00068
1.00043
1.00021
1.00594
1.00596
1.00582
1.00553
1.00511
1.00459
1.00401
1.00339
1.00276
1.00216
1.0016
1.00111
1.00068
1.00042
1.00021
1.00595
1.00597
1.00584
1.00555
1.00514
1.00462
1.00404
1.00342
1.00279
1.00218
1.00162
1.00112
1.00068
1.00042
1.0002
1.00595
1.00598
1.00584
1.00556
1.00514
1.00463
1.00405
1.00342
1.00279
1.00218
1.00161
1.00111
1.00067
1.0004
1.00018
1.00596
1.00599
1.00585
1.00557
1.00515
1.00464
1.00405
1.00342
1.00279
1.00217
1.0016
1.0011
1.00066
1.00039
1.00017
1.00597
1.006
1.00586
1.00558
1.00516
1.00465
1.00406
1.00343
1.0028
1.00218
1.0016
1.0011
1.00065
1.00037
1.00015
1.00598
1.00601
1.00588
1.0056
1.00518
1.00467
1.00408
1.00345
1.00281
1.00219
1.00161
1.0011
1.00065
1.00036
1.00013
1.006
1.00602
1.00589
1.00561
1.0052
1.00469
1.0041
1.00347
1.00283
1.0022
1.00161
1.0011
1.00064
1.00034
1.0001
1.00601
1.00603
1.00591
1.00563
1.00522
1.00471
1.00412
1.00348
1.00284
1.00221
1.00161
1.00108
1.00062
1.00031
1.00007
1.00603
1.00605
1.00592
1.00564
1.00523
1.00472
1.00413
1.00349
1.00284
1.0022
1.0016
1.00107
1.0006
1.00028
1.00003
1.00604
1.00607
1.00593
1.00565
1.00524
1.00472
1.00413
1.00349
1.00284
1.00219
1.00159
1.00105
1.00058
1.00025
0.999999
1.00606
1.00608
1.00595
1.00567
1.00525
1.00473
1.00414
1.00349
1.00283
1.00219
1.00158
1.00103
1.00055
1.00022
0.999965
1.00608
1.0061
1.00597
1.00568
1.00527
1.00474
1.00414
1.0035
1.00283
1.00218
1.00156
1.00102
1.00054
1.00019
0.999932
1.0061
1.00612
1.00599
1.0057
1.00528
1.00476
1.00416
1.0035
1.00284
1.00218
1.00156
1.001
1.00052
1.00017
0.999897
1.00612
1.00614
1.00601
1.00572
1.0053
1.00478
1.00417
1.00352
1.00284
1.00218
1.00155
1.00099
1.0005
1.00014
0.99986
1.00614
1.00617
1.00604
1.00575
1.00533
1.0048
1.00419
1.00353
1.00285
1.00219
1.00155
1.00098
1.00048
1.00011
0.999822
1.00617
1.00619
1.00606
1.00577
1.00535
1.00482
1.00421
1.00355
1.00287
1.00219
1.00155
1.00097
1.00046
1.00008
0.999781
1.00619
1.00622
1.00609
1.0058
1.00538
1.00485
1.00423
1.00356
1.00287
1.00219
1.00154
1.00095
1.00043
1.00004
0.999738
1.00622
1.00624
1.00611
1.00582
1.0054
1.00487
1.00425
1.00358
1.00288
1.00219
1.00153
1.00093
1.00041
1.00001
0.999695
1.00625
1.00627
1.00614
1.00585
1.00542
1.00489
1.00426
1.00358
1.00288
1.00218
1.00151
1.00091
1.00038
0.999968
0.99965
1.00628
1.0063
1.00617
1.00588
1.00545
1.0049
1.00428
1.00359
1.00288
1.00217
1.0015
1.00089
1.00035
0.99993
0.999606
1.00631
1.00633
1.0062
1.0059
1.00547
1.00492
1.00429
1.0036
1.00288
1.00217
1.00148
1.00086
1.00032
0.999892
0.999561
1.00634
1.00636
1.00623
1.00593
1.00549
1.00494
1.0043
1.00361
1.00288
1.00216
1.00147
1.00084
1.00029
0.999854
0.999515
1.00637
1.0064
1.00626
1.00596
1.00552
1.00497
1.00432
1.00362
1.00288
1.00215
1.00146
1.00082
1.00026
0.999815
0.999468
1.00641
1.00643
1.00629
1.00599
1.00555
1.00499
1.00434
1.00363
1.00289
1.00215
1.00144
1.0008
1.00023
0.999775
0.999419
1.00644
1.00647
1.00633
1.00603
1.00558
1.00502
1.00436
1.00364
1.00289
1.00215
1.00143
1.00078
1.0002
0.999734
0.999369
1.00648
1.00651
1.00637
1.00606
1.00561
1.00504
1.00438
1.00366
1.0029
1.00214
1.00142
1.00075
1.00016
0.99969
0.999318
1.00652
1.00655
1.00641
1.0061
1.00565
1.00507
1.0044
1.00367
1.00291
1.00214
1.0014
1.00073
1.00013
0.999646
0.999265
1.00656
1.00659
1.00645
1.00614
1.00568
1.0051
1.00443
1.00368
1.00291
1.00213
1.00138
1.0007
1.00009
0.9996
0.999212
1.0066
1.00663
1.00649
1.00617
1.00571
1.00513
1.00445
1.0037
1.00291
1.00212
1.00137
1.00067
1.00005
0.999553
0.999157
1.00665
1.00667
1.00653
1.00621
1.00575
1.00516
1.00447
1.00371
1.00291
1.00212
1.00135
1.00064
1.00002
0.999505
0.999102
1.00669
1.00672
1.00657
1.00625
1.00578
1.00519
1.00449
1.00372
1.00292
1.00211
1.00133
1.00061
0.999977
0.999457
0.999045
1.00674
1.00676
1.00661
1.00629
1.00582
1.00522
1.00451
1.00373
1.00292
1.0021
1.00131
1.00058
0.999937
0.999407
0.998988
1.00678
1.00681
1.00666
1.00634
1.00585
1.00525
1.00453
1.00375
1.00292
1.00209
1.00129
1.00055
0.999896
0.999356
0.998929
1.00683
1.00686
1.00671
1.00638
1.00589
1.00528
1.00456
1.00376
1.00293
1.00208
1.00127
1.00052
0.999854
0.999304
0.998868
1.00688
1.00691
1.00676
1.00642
1.00593
1.00531
1.00458
1.00378
1.00293
1.00208
1.00125
1.00049
0.99981
0.99925
0.998806
1.00693
1.00696
1.00681
1.00647
1.00597
1.00535
1.00461
1.00379
1.00293
1.00207
1.00123
1.00045
0.999765
0.999195
0.998743
1.00699
1.00702
1.00686
1.00652
1.00602
1.00538
1.00463
1.00381
1.00294
1.00206
1.00121
1.00042
0.999719
0.999139
0.998678
1.00704
1.00707
1.00691
1.00657
1.00606
1.00542
1.00466
1.00382
1.00294
1.00205
1.00118
1.00038
0.999672
0.999082
0.998613
1.0071
1.00713
1.00697
1.00662
1.0061
1.00545
1.00469
1.00384
1.00294
1.00204
1.00116
1.00035
0.999624
0.999023
0.998545
1.00716
1.00719
1.00702
1.00667
1.00615
1.00549
1.00471
1.00385
1.00295
1.00203
1.00114
1.00031
0.999575
0.998963
0.998477
1.00722
1.00725
1.00708
1.00672
1.0062
1.00553
1.00474
1.00387
1.00295
1.00202
1.00111
1.00027
0.999525
0.998902
0.998407
1.00728
1.00731
1.00714
1.00678
1.00625
1.00557
1.00477
1.00389
1.00295
1.00201
1.00109
1.00023
0.999473
0.99884
0.998335
1.00734
1.00737
1.0072
1.00684
1.0063
1.00561
1.0048
1.00391
1.00296
1.002
1.00106
1.00019
0.99942
0.998776
0.998262
1.0074
1.00743
1.00726
1.00689
1.00635
1.00566
1.00483
1.00393
1.00296
1.00199
1.00104
1.00015
0.999366
0.99871
0.998187
1.00747
1.0075
1.00733
1.00695
1.0064
1.0057
1.00487
1.00394
1.00297
1.00198
1.00101
1.00011
0.99931
0.998642
0.99811
1.00754
1.00757
1.00739
1.00702
1.00646
1.00574
1.0049
1.00396
1.00297
1.00196
1.00098
1.00007
0.999253
0.998573
0.998032
1.00761
1.00764
1.00746
1.00708
1.00651
1.00579
1.00493
1.00398
1.00297
1.00195
1.00095
1.00002
0.999195
0.998503
0.997952
1.00768
1.00771
1.00753
1.00714
1.00657
1.00583
1.00497
1.004
1.00298
1.00194
1.00092
0.999978
0.999135
0.998431
0.99787
1.00775
1.00778
1.0076
1.00721
1.00662
1.00588
1.005
1.00402
1.00298
1.00192
1.00089
0.999932
0.999073
0.998357
0.997787
1.00783
1.00786
1.00767
1.00727
1.00668
1.00593
1.00504
1.00404
1.00298
1.00191
1.00086
0.999884
0.999011
0.998282
0.997702
1.0079
1.00793
1.00774
1.00734
1.00674
1.00598
1.00507
1.00406
1.00299
1.0019
1.00083
0.999836
0.998947
0.998206
0.997615
1.00798
1.00801
1.00782
1.00741
1.0068
1.00603
1.00511
1.00408
1.00299
1.00188
1.0008
0.999786
0.998882
0.998127
0.997526
1.00806
1.00809
1.0079
1.00748
1.00687
1.00608
1.00515
1.0041
1.003
1.00187
1.00077
0.999736
0.998815
0.998047
0.997435
1.00814
1.00817
1.00797
1.00756
1.00693
1.00613
1.00519
1.00413
1.003
1.00185
1.00073
0.999684
0.998747
0.997965
0.997342
1.00823
1.00826
1.00806
1.00763
1.007
1.00619
1.00523
1.00415
1.00301
1.00184
1.0007
0.999631
0.998678
0.997882
0.997247
1.00831
1.00834
1.00814
1.00771
1.00707
1.00625
1.00527
1.00417
1.00301
1.00182
1.00066
0.999577
0.998606
0.997796
0.997151
1.0084
1.00843
1.00822
1.00779
1.00714
1.0063
1.00531
1.0042
1.00301
1.00181
1.00063
0.999522
0.998533
0.997708
0.997052
1.00849
1.00852
1.00831
1.00787
1.00721
1.00636
1.00535
1.00422
1.00302
1.00179
1.00059
0.999465
0.998459
0.997619
0.996951
1.00858
1.00861
1.0084
1.00795
1.00728
1.00642
1.0054
1.00425
1.00302
1.00178
1.00055
0.999408
0.998383
0.997528
0.996847
1.00868
1.00871
1.00849
1.00804
1.00735
1.00648
1.00544
1.00427
1.00303
1.00176
1.00051
0.999348
0.998305
0.997434
0.996742
1.00877
1.00881
1.00858
1.00812
1.00743
1.00655
1.00549
1.0043
1.00304
1.00174
1.00048
0.999288
0.998226
0.997339
0.996634
1.00887
1.0089
1.00868
1.00821
1.00751
1.00661
1.00553
1.00433
1.00304
1.00172
1.00044
0.999226
0.998144
0.997242
0.996524
1.00897
1.009
1.00878
1.0083
1.00759
1.00668
1.00558
1.00436
1.00305
1.00171
1.00039
0.999163
0.998061
0.997142
0.996412
1.00907
1.00911
1.00887
1.00839
1.00767
1.00674
1.00563
1.00438
1.00305
1.00169
1.00035
0.999098
0.997976
0.99704
0.996297
1.00918
1.00921
1.00898
1.00849
1.00775
1.00681
1.00568
1.00441
1.00306
1.00167
1.00031
0.999032
0.997889
0.996936
0.996179
1.00928
1.00932
1.00908
1.00858
1.00784
1.00688
1.00573
1.00444
1.00306
1.00165
1.00026
0.998964
0.9978
0.99683
0.996059
1.00939
1.00943
1.00918
1.00868
1.00793
1.00695
1.00579
1.00447
1.00307
1.00163
1.00022
0.998895
0.99771
0.996721
0.995937
1.0095
1.00954
1.00929
1.00878
1.00802
1.00703
1.00584
1.0045
1.00307
1.00161
1.00017
0.998825
0.997617
0.99661
0.995812
1.00962
1.00965
1.0094
1.00889
1.00811
1.0071
1.00589
1.00454
1.00308
1.00159
1.00013
0.998753
0.997523
0.996497
0.995684
1.00973
1.00977
1.00952
1.00899
1.0082
1.00718
1.00595
1.00457
1.00309
1.00157
1.00008
0.998679
0.997426
0.996381
0.995553
1.00985
1.00989
1.00963
1.0091
1.00829
1.00726
1.00601
1.0046
1.00309
1.00155
1.00003
0.998604
0.997327
0.996263
0.99542
1.00997
1.01001
1.00975
1.00921
1.00839
1.00734
1.00607
1.00463
1.0031
1.00153
0.999979
0.998527
0.997226
0.996142
0.995284
1.01009
1.01013
1.00987
1.00932
1.00849
1.00742
1.00613
1.00467
1.00311
1.0015
0.999927
0.998448
0.997123
0.996019
0.995145
1.01022
1.01026
1.00999
1.00943
1.00859
1.0075
1.00619
1.0047
1.00311
1.00148
0.999875
0.998368
0.997018
0.995893
0.995003
1.01035
1.01039
1.01012
1.00955
1.00869
1.00759
1.00625
1.00474
1.00312
1.00146
0.999821
0.998286
0.99691
0.995764
0.994858
1.01048
1.01052
1.01024
1.00967
1.0088
1.00767
1.00631
1.00478
1.00313
1.00143
0.999766
0.998202
0.9968
0.995633
0.994709
1.01061
1.01065
1.01037
1.00979
1.00891
1.00776
1.00638
1.00481
1.00313
1.00141
0.99971
0.998116
0.996688
0.995499
0.994558
1.01075
1.01079
1.01051
1.00992
1.00902
1.00785
1.00645
1.00485
1.00314
1.00138
0.999653
0.998028
0.996573
0.995361
0.994403
1.01089
1.01093
1.01064
1.01004
1.00913
1.00795
1.00651
1.00489
1.00315
1.00136
0.999595
0.997939
0.996456
0.995221
0.994246
1.01103
1.01107
1.01078
1.01017
1.00925
1.00804
1.00658
1.00493
1.00316
1.00133
0.999535
0.997847
0.996337
0.995078
0.994084
1.01117
1.01122
1.01092
1.0103
1.00936
1.00814
1.00665
1.00497
1.00316
1.0013
0.999473
0.997754
0.996215
0.994932
0.99392
1.01132
1.01137
1.01107
1.01044
1.00948
1.00824
1.00673
1.00501
1.00317
1.00128
0.999411
0.997659
0.99609
0.994783
0.993752
1.01147
1.01152
1.01121
1.01058
1.00961
1.00834
1.0068
1.00506
1.00318
1.00125
0.999347
0.997561
0.995962
0.994631
0.99358
1.01162
1.01168
1.01136
1.01072
1.00973
1.00844
1.00688
1.0051
1.00319
1.00122
0.999281
0.997461
0.995832
0.994475
0.993405
1.01178
1.01183
1.01152
1.01086
1.00986
1.00855
1.00695
1.00514
1.0032
1.00119
0.999214
0.997359
0.995699
0.994316
0.993226
1.01194
1.01199
1.01167
1.01101
1.00999
1.00866
1.00703
1.00519
1.0032
1.00116
0.999146
0.997255
0.995563
0.994154
0.993043
1.0121
1.01216
1.01183
1.01116
1.01012
1.00877
1.00711
1.00524
1.00321
1.00113
0.999076
0.997149
0.995424
0.993988
0.992857
1.01227
1.01233
1.012
1.01131
1.01026
1.00888
1.0072
1.00528
1.00322
1.0011
0.999004
0.99704
0.995282
0.993819
0.992666
1.01244
1.0125
1.01216
1.01147
1.0104
1.00899
1.00728
1.00533
1.00323
1.00106
0.998931
0.996929
0.995137
0.993646
0.992472
1.01261
1.01267
1.01233
1.01163
1.01054
1.00911
1.00737
1.00538
1.00324
1.00103
0.998856
0.996815
0.994989
0.993469
0.992273
1.01278
1.01285
1.01251
1.01179
1.01068
1.00923
1.00745
1.00543
1.00325
1.00099
0.998779
0.996699
0.994838
0.993289
0.992071
1.01296
1.01303
1.01268
1.01196
1.01083
1.00935
1.00754
1.00548
1.00325
1.00096
0.998701
0.99658
0.994683
0.993105
0.991864
1.01315
1.01322
1.01286
1.01213
1.01098
1.00948
1.00763
1.00553
1.00326
1.00092
0.998621
0.996459
0.994526
0.992917
0.991653
1.01333
1.0134
1.01305
1.0123
1.01114
1.0096
1.00773
1.00559
1.00327
1.00089
0.998539
0.996335
0.994364
0.992725
0.991437
1.01352
1.0136
1.01324
1.01247
1.01129
1.00973
1.00782
1.00564
1.00328
1.00085
0.998455
0.996208
0.9942
0.992529
0.991217
1.01372
1.01379
1.01343
1.01266
1.01145
1.00987
1.00792
1.00569
1.00329
1.00081
0.998369
0.996078
0.994031
0.992329
0.990992
1.01391
1.01399
1.01362
1.01284
1.01162
1.01
1.00802
1.00575
1.0033
1.00077
0.998281
0.995946
0.99386
0.992125
0.990763
1.01411
1.0142
1.01382
1.01303
1.01179
1.01014
1.00812
1.00581
1.00331
1.00073
0.99819
0.99581
0.993684
0.991916
0.990529
1.01432
1.01441
1.01403
1.01322
1.01196
1.01028
1.00822
1.00587
1.00332
1.00069
0.998098
0.995672
0.993505
0.991703
0.99029
1.01453
1.01462
1.01423
1.01341
1.01213
1.01043
1.00833
1.00593
1.00332
1.00064
0.998004
0.99553
0.993321
0.991485
0.990046
1.01474
1.01484
1.01445
1.01361
1.01231
1.01057
1.00843
1.00599
1.00333
1.0006
0.997907
0.995385
0.993134
0.991263
0.989797
1.01496
1.01506
1.01466
1.01382
1.01249
1.01072
1.00854
1.00605
1.00334
1.00055
0.997808
0.995236
0.992942
0.991036
0.989543
1.01518
1.01528
1.01488
1.01403
1.01268
1.01088
1.00866
1.00611
1.00335
1.0005
0.997706
0.995085
0.992747
0.990805
0.989284
1.01541
1.01551
1.01511
1.01424
1.01287
1.01103
1.00877
1.00617
1.00336
1.00046
0.997602
0.99493
0.992547
0.990568
0.989019
1.01564
1.01575
1.01534
1.01446
1.01306
1.01119
1.00889
1.00624
1.00337
1.00041
0.997496
0.994771
0.992343
0.990327
0.988749
1.01587
1.01599
1.01557
1.01468
1.01326
1.01136
1.009
1.0063
1.00337
1.00035
0.997386
0.994608
0.992134
0.99008
0.988473
1.01611
1.01623
1.01581
1.0149
1.01346
1.01152
1.00913
1.00637
1.00338
1.0003
0.997274
0.994442
0.991921
0.989828
0.988192
1.01636
1.01648
1.01606
1.01514
1.01367
1.01169
1.00925
1.00644
1.00339
1.00025
0.997159
0.994272
0.991703
0.989571
0.987905
1.0166
1.01673
1.01631
1.01537
1.01388
1.01187
1.00937
1.00651
1.0034
1.00019
0.997042
0.994099
0.991481
0.989309
0.987613
1.01686
1.01699
1.01656
1.01561
1.01409
1.01204
1.0095
1.00658
1.0034
1.00013
0.996921
0.99392
0.991253
0.989041
0.987314
1.01712
1.01726
1.01682
1.01586
1.01431
1.01223
1.00963
1.00665
1.00341
1.00007
0.996797
0.993738
0.99102
0.988767
0.987009
1.01738
1.01753
1.01709
1.01611
1.01454
1.01241
1.00977
1.00672
1.00342
1.00001
0.99667
0.993552
0.990782
0.988488
0.986698
1.01765
1.0178
1.01736
1.01637
1.01476
1.0126
1.0099
1.00679
1.00342
0.999946
0.99654
0.993361
0.99054
0.988202
0.986381
1.01793
1.01808
1.01763
1.01663
1.015
1.01279
1.01004
1.00687
1.00343
0.99988
0.996406
0.993165
0.990291
0.987911
0.986057
1.01821
1.01837
1.01791
1.01689
1.01524
1.01299
1.01018
1.00695
1.00343
0.999813
0.996268
0.992965
0.990037
0.987614
0.985726
1.01849
1.01866
1.0182
1.01717
1.01548
1.01319
1.01033
1.00702
1.00344
0.999742
0.996127
0.99276
0.989777
0.98731
0.985389
1.01878
1.01896
1.0185
1.01745
1.01573
1.01339
1.01047
1.0071
1.00344
0.99967
0.995983
0.992551
0.989512
0.987
0.985046
1.01908
1.01927
1.0188
1.01773
1.01598
1.0136
1.01062
1.00718
1.00344
0.999595
0.995834
0.992336
0.989241
0.986683
0.984695
1.01938
1.01958
1.0191
1.01802
1.01624
1.01381
1.01077
1.00726
1.00344
0.999517
0.995681
0.992116
0.988963
0.986359
0.984337
1.01969
1.0199
1.01942
1.01832
1.01651
1.01403
1.01093
1.00734
1.00344
0.999437
0.995524
0.99189
0.98868
0.986029
0.983972
1.02001
1.02022
1.01973
1.01862
1.01678
1.01425
1.01109
1.00742
1.00344
0.999354
0.995363
0.991659
0.98839
0.985692
0.9836
1.02033
1.02055
1.02006
1.01893
1.01706
1.01448
1.01125
1.0075
1.00344
0.999268
0.995197
0.991422
0.988093
0.985348
0.98322
1.02066
1.02089
1.02039
1.01925
1.01734
1.01471
1.01141
1.00759
1.00344
0.99918
0.995027
0.99118
0.98779
0.984996
0.982833
1.02099
1.02123
1.02073
1.01957
1.01763
1.01495
1.01158
1.00767
1.00344
0.999087
0.994852
0.990931
0.987479
0.984637
0.982437
1.02133
1.02158
1.02108
1.0199
1.01792
1.01519
1.01175
1.00776
1.00343
0.998992
0.994672
0.990676
0.987162
0.984271
0.982034
1.02168
1.02194
1.02143
1.02024
1.01822
1.01543
1.01192
1.00784
1.00342
0.998893
0.994486
0.990415
0.986838
0.983896
0.981623
1.02203
1.02231
1.0218
1.02058
1.01853
1.01568
1.01209
1.00793
1.00342
0.998791
0.994296
0.990148
0.986506
0.983514
0.981204
1.0224
1.02268
1.02217
1.02093
1.01884
1.01594
1.01227
1.00802
1.00341
0.998684
0.9941
0.989873
0.986166
0.983123
0.980776
1.02277
1.02306
1.02254
1.02129
1.01916
1.0162
1.01245
1.00811
1.0034
0.998574
0.993898
0.989591
0.985819
0.982725
0.980341
1.02314
1.02345
1.02293
1.02166
1.01949
1.01647
1.01264
1.0082
1.00338
0.998459
0.99369
0.989303
0.985464
0.982318
0.979896
1.02353
1.02385
1.02332
1.02204
1.01982
1.01674
1.01283
1.00829
1.00337
0.998341
0.993476
0.989007
0.985101
0.981902
0.979442
1.02392
1.02426
1.02373
1.02242
1.02017
1.01701
1.01302
1.00838
1.00335
0.998217
0.993256
0.988703
0.984728
0.981477
0.97898
1.02432
1.02467
1.02414
1.02281
1.02051
1.0173
1.01321
1.00847
1.00333
0.998089
0.993029
0.988391
0.984348
0.981044
0.978508
1.02473
1.02509
1.02456
1.02321
1.02087
1.01758
1.01341
1.00856
1.0033
0.997955
0.992795
0.988071
0.983958
0.980601
0.978027
1.02515
1.02553
1.02499
1.02362
1.02124
1.01788
1.01361
1.00865
1.00328
0.997817
0.992554
0.987743
0.98356
0.980149
0.977537
1.02558
1.02597
1.02543
1.02404
1.02161
1.01818
1.01381
1.00874
1.00325
0.997672
0.992305
0.987406
0.983152
0.979687
0.977037
1.02601
1.02642
1.02588
1.02447
1.02199
1.01848
1.01402
1.00883
1.00322
0.997523
0.99205
0.987061
0.982735
0.979216
0.976528
1.02646
1.02688
1.02634
1.02491
1.02238
1.01879
1.01422
1.00891
1.00318
0.997366
0.991785
0.986706
0.982308
0.978734
0.976008
1.02691
1.02735
1.0268
1.02535
1.02277
1.01911
1.01444
1.009
1.00314
0.997204
0.991513
0.986341
0.981871
0.978243
0.975479
1.02737
1.02783
1.02728
1.02581
1.02318
1.01943
1.01465
1.00909
1.0031
0.997035
0.991232
0.985967
0.981423
0.977741
0.974938
1.02785
1.02832
1.02777
1.02628
1.02359
1.01976
1.01487
1.00918
1.00305
0.996859
0.990942
0.985583
0.980965
0.977228
0.974388
1.02833
1.02883
1.02828
1.02676
1.02401
1.0201
1.01509
1.00927
1.003
0.996675
0.990643
0.985188
0.980496
0.976704
0.973826
1.02882
1.02934
1.02879
1.02724
1.02445
1.02044
1.01531
1.00935
1.00294
0.996484
0.990334
0.984783
0.980016
0.976169
0.973254
1.02933
1.02987
1.02931
1.02774
1.02489
1.02079
1.01554
1.00944
1.00288
0.996285
0.990015
0.984367
0.979525
0.975623
0.972671
1.02984
1.0304
1.02985
1.02826
1.02534
1.02114
1.01576
1.00952
1.00281
0.996077
0.989686
0.983939
0.979022
0.975065
0.972077
1.03037
1.03095
1.0304
1.02878
1.0258
1.02151
1.01599
1.0096
1.00274
0.99586
0.989346
0.983499
0.978506
0.974495
0.97147
1.0309
1.03151
1.03096
1.02931
1.02627
1.02187
1.01623
1.00968
1.00266
0.995635
0.988995
0.983048
0.977979
0.973914
0.970853
1.03145
1.03208
1.03153
1.02986
1.02675
1.02225
1.01646
1.00975
1.00257
0.995399
0.988632
0.982583
0.977438
0.973319
0.970223
1.03201
1.03267
1.03212
1.03042
1.02724
1.02263
1.0167
1.00982
1.00248
0.995153
0.988257
0.982107
0.976885
0.972713
0.969582
1.03259
1.03327
1.03272
1.03099
1.02775
1.02302
1.01694
1.00989
1.00238
0.994896
0.98787
0.981616
0.976318
0.972093
0.968928
1.03317
1.03388
1.03333
1.03158
1.02826
1.02342
1.01718
1.00996
1.00227
0.994628
0.987469
0.981112
0.975738
0.97146
0.968262
1.03377
1.03451
1.03396
1.03218
1.02878
1.02382
1.01742
1.01002
1.00215
0.994349
0.987055
0.980593
0.975144
0.970813
0.967582
1.03438
1.03515
1.0346
1.03279
1.02932
1.02423
1.01766
1.01007
1.00202
0.994057
0.986627
0.980061
0.974535
0.970154
0.966891
1.03501
1.03581
1.03526
1.03342
1.02987
1.02464
1.01791
1.01013
1.00189
0.993751
0.986184
0.979512
0.973912
0.969479
0.966185
1.03565
1.03648
1.03594
1.03406
1.03042
1.02506
1.01815
1.01017
1.00174
0.993433
0.985726
0.978949
0.973274
0.968791
0.965467
1.0363
1.03717
1.03663
1.03472
1.03099
1.02549
1.01839
1.01021
1.00158
0.9931
0.985252
0.978369
0.97262
0.968088
0.964735
1.03697
1.03787
1.03734
1.03539
1.03158
1.02593
1.01864
1.01025
1.00141
0.992752
0.984762
0.977773
0.97195
0.967371
0.96399
1.03766
1.03859
1.03806
1.03608
1.03217
1.02637
1.01888
1.01027
1.00123
0.992389
0.984255
0.97716
0.971264
0.966638
0.96323
1.03836
1.03933
1.0388
1.03679
1.03278
1.02682
1.01912
1.01029
1.00103
0.992009
0.983731
0.976529
0.970561
0.96589
0.962456
1.03907
1.04009
1.03956
1.03751
1.0334
1.02728
1.01936
1.0103
1.00082
0.991612
0.983188
0.97588
0.969841
0.965126
0.961668
1.0398
1.04086
1.04034
1.03825
1.03404
1.02774
1.0196
1.0103
1.0006
0.991197
0.982626
0.975213
0.969104
0.964346
0.960865
1.04055
1.04165
1.04114
1.03901
1.03469
1.0282
1.01984
1.01029
1.00036
0.990764
0.982044
0.974527
0.968349
0.963549
0.960047
1.04132
1.04246
1.04196
1.03979
1.03535
1.02868
1.02007
1.01027
1.0001
0.99031
0.981442
0.973821
0.967576
0.962736
0.959215
1.04211
1.04329
1.0428
1.04058
1.03602
1.02916
1.0203
1.01023
0.999823
0.989836
0.980819
0.973094
0.966783
0.961906
0.958367
1.04291
1.04415
1.04366
1.0414
1.03671
1.02964
1.02053
1.01019
0.999529
0.989341
0.980174
0.972347
0.965972
0.961059
0.957504
1.04374
1.04502
1.04454
1.04223
1.03741
1.03013
1.02075
1.01012
0.999215
0.988823
0.979506
0.971577
0.965141
0.960193
0.956625
1.04458
1.04591
1.04545
1.04309
1.03813
1.03062
1.02096
1.01005
0.99888
0.988282
0.978815
0.970786
0.96429
0.959311
0.955731
1.04544
1.04683
1.04638
1.04397
1.03886
1.03112
1.02116
1.00995
0.998522
0.987716
0.978099
0.969972
0.963418
0.958409
0.95482
1.04633
1.04777
1.04733
1.04486
1.03961
1.03162
1.02136
1.00984
0.998141
0.987124
0.977358
0.969135
0.962525
0.95749
0.953894
1.04724
1.04874
1.0483
1.04578
1.04037
1.03212
1.02155
1.00971
0.997735
0.986506
0.976591
0.968273
0.96161
0.956551
0.952951
1.04817
1.04973
1.04931
1.04673
1.04114
1.03262
1.02172
1.00956
0.997303
0.985859
0.975797
0.967387
0.960674
0.955594
0.951992
1.04912
1.05074
1.05034
1.04769
1.04193
1.03313
1.02189
1.00939
0.996843
0.985183
0.974974
0.966475
0.959715
0.954616
0.951015
1.0501
1.05179
1.0514
1.04869
1.04274
1.03363
1.02203
1.00919
0.996353
0.984478
0.974123
0.965538
0.958734
0.95362
0.950023
1.0511
1.05286
1.05248
1.0497
1.04355
1.03414
1.02217
1.00896
0.995833
0.98374
0.973242
0.964573
0.957729
0.952603
0.949012
1.05212
1.05396
1.0536
1.05074
1.04439
1.03464
1.02229
1.00871
0.99528
0.982969
0.972331
0.963582
0.956701
0.951567
0.947986
1.05318
1.05508
1.05474
1.05181
1.04523
1.03514
1.02238
1.00843
0.994692
0.982163
0.971387
0.962561
0.955648
0.950509
0.946941
1.05426
1.05624
1.05592
1.0529
1.04609
1.03564
1.02246
1.00812
0.994068
0.981322
0.97041
0.961513
0.954571
0.949432
0.94588
1.05537
1.05743
1.05713
1.05402
1.04697
1.03613
1.02251
1.00777
0.993406
0.980443
0.9694
0.960434
0.953469
0.948333
0.9448
1.05651
1.05866
1.05838
1.05517
1.04785
1.03661
1.02254
1.00739
0.992704
0.979526
0.968355
0.959327
0.952342
0.947213
0.943704
1.05768
1.05991
1.05966
1.05635
1.04875
1.03709
1.02254
1.00696
0.99196
0.978568
0.967273
0.958187
0.951188
0.946072
0.942589
1.05888
1.06121
1.06097
1.05756
1.04966
1.03755
1.02251
1.0065
0.991172
0.977569
0.966156
0.957017
0.950009
0.944909
0.941457
1.06011
1.06254
1.06233
1.0588
1.05058
1.03799
1.02245
1.00599
0.990337
0.976526
0.965
0.955815
0.948804
0.943725
0.940307
1.06138
1.0639
1.06372
1.06006
1.05151
1.03843
1.02235
1.00543
0.989454
0.975439
0.963805
0.954581
0.947572
0.942519
0.939139
1.06268
1.06531
1.06516
1.06136
1.05244
1.03884
1.0222
1.00483
0.988519
0.974304
0.96257
0.953312
0.946312
0.94129
0.937953
1.06402
1.06676
1.06663
1.06269
1.05338
1.03923
1.02202
1.00417
0.987531
0.973123
0.961295
0.952011
0.945025
0.94004
0.936749
1.0654
1.06825
1.06816
1.06405
1.05433
1.03959
1.02179
1.00345
0.986487
0.971891
0.959977
0.950675
0.943711
0.938767
0.935526
1.06681
1.06979
1.06972
1.06544
1.05528
1.03992
1.0215
1.00267
0.985386
0.970608
0.958617
0.949305
0.942369
0.937472
0.934285
1.06827
1.07138
1.07134
1.06687
1.05623
1.04022
1.02116
1.00183
0.984223
0.969272
0.957213
0.9479
0.940998
0.936154
0.933026
1.06976
1.07301
1.073
1.06832
1.05718
1.04049
1.02076
1.00093
0.982998
0.967882
0.955766
0.946459
0.9396
0.934814
0.93175
1.07131
1.07469
1.07472
1.06981
1.05812
1.0407
1.02029
0.999946
0.981706
0.966436
0.954272
0.944982
0.938173
0.933451
0.930454
1.07289
1.07643
1.07649
1.07133
1.05906
1.04088
1.01975
0.998892
0.980347
0.964934
0.952733
0.943469
0.936718
0.932065
0.929141
1.07453
1.07823
1.07831
1.07288
1.05998
1.04099
1.01913
0.997759
0.978917
0.963372
0.951147
0.94192
0.935233
0.930657
0.927809
1.07622
1.08008
1.0802
1.07446
1.06088
1.04105
1.01844
0.996542
0.977414
0.961751
0.949514
0.940333
0.933721
0.929226
0.926459
1.07795
1.08199
1.08214
1.07607
1.06176
1.04104
1.01765
0.995238
0.975834
0.960069
0.947833
0.93871
0.932179
0.927773
0.925091
1.07974
1.08397
1.08414
1.0777
1.06261
1.04095
1.01677
0.993842
0.974178
0.958324
0.946104
0.93705
0.930609
0.926297
0.923706
1.08159
1.08602
1.08621
1.07936
1.06343
1.04078
1.01579
0.99235
0.97244
0.956516
0.944326
0.935352
0.92901
0.924799
0.922302
1.0835
1.08813
1.08834
1.08105
1.06421
1.04052
1.0147
0.990758
0.970621
0.954644
0.942499
0.933617
0.927383
0.923279
0.920881
1.08546
1.09033
1.09054
1.08275
1.06494
1.04016
1.01349
0.989062
0.968716
0.952706
0.940623
0.931845
0.925727
0.921736
0.919442
1.08749
1.0926
1.09281
1.08446
1.0656
1.0397
1.01216
0.987258
0.966726
0.950702
0.938697
0.930036
0.924044
0.920172
0.917986
1.08959
1.09495
1.09515
1.08619
1.0662
1.03911
1.01071
0.985341
0.964646
0.948632
0.936722
0.92819
0.922332
0.918586
0.916512
1.09176
1.0974
1.09756
1.08792
1.06672
1.03838
1.00911
0.983308
0.962478
0.946495
0.934698
0.926308
0.920592
0.916979
0.915022
1.09401
1.09993
1.10005
1.08964
1.06715
1.03752
1.00737
0.981154
0.960217
0.94429
0.932624
0.92439
0.918826
0.91535
0.913514
1.09633
1.10256
1.10261
1.09136
1.06747
1.0365
1.00548
0.978878
0.957865
0.942019
0.930502
0.922436
0.917032
0.913701
0.911991
1.09873
1.1053
1.10524
1.09306
1.06767
1.03531
1.00343
0.976475
0.955419
0.939679
0.928331
0.920446
0.915212
0.912032
0.910451
1.10122
1.10815
1.10795
1.09472
1.06773
1.03394
1.00121
0.973943
0.95288
0.937273
0.926113
0.918423
0.913367
0.910342
0.908895
1.1038
1.11111
1.11073
1.09635
1.06764
1.03237
0.998817
0.971279
0.950246
0.934801
0.923848
0.916365
0.911496
0.908633
0.907324
1.10648
1.1142
1.11358
1.09791
1.06738
1.0306
0.996243
0.968482
0.947519
0.932263
0.921538
0.914275
0.9096
0.906905
0.905738
1.10926
1.11741
1.1165
1.0994
1.06692
1.0286
0.993481
0.96555
0.944698
0.92966
0.919181
0.912152
0.907681
0.905158
0.904137
1.11215
1.12076
1.11948
1.1008
1.06625
1.02636
0.990527
0.962483
0.941785
0.926995
0.916782
0.909999
0.905738
0.903394
0.902523
1.11515
1.12426
1.12252
1.10208
1.06534
1.02387
0.987374
0.959279
0.938779
0.924267
0.91434
0.907815
0.903773
0.901612
0.900894
1.11828
1.1279
1.1256
1.10322
1.06417
1.02111
0.984019
0.955941
0.935685
0.92148
0.911858
0.905603
0.901787
0.899813
0.899253
1.12154
1.13171
1.12872
1.1042
1.06271
1.01806
0.980459
0.952468
0.932502
0.918634
0.909337
0.903364
0.89978
0.897999
0.897598
1.12494
1.13568
1.13186
1.10498
1.06092
1.01473
0.976693
0.948864
0.929235
0.915733
0.906779
0.901098
0.897753
0.896169
0.895932
1.12849
1.13982
1.135
1.10553
1.0588
1.01108
0.972718
0.94513
0.925885
0.912778
0.904186
0.898808
0.895708
0.894324
0.894254
1.13221
1.14414
1.13813
1.10582
1.0563
1.00712
0.968537
0.941272
0.922457
0.909774
0.90156
0.896495
0.893646
0.892466
0.892565
1.1361
1.14864
1.14121
1.10579
1.05339
1.00283
0.964152
0.937293
0.918954
0.906722
0.898904
0.894161
0.891567
0.890594
0.890865
1.14019
1.15333
1.14423
1.10542
1.05005
0.99821
0.959567
0.933199
0.915381
0.903627
0.89622
0.891807
0.889473
0.88871
0.889156
1.14448
1.15821
1.14714
1.10464
1.04624
0.993248
0.954789
0.928996
0.911741
0.900491
0.89351
0.889435
0.887365
0.886815
0.887437
1.149
1.16327
1.1499
1.10342
1.04194
0.987945
0.949825
0.924691
0.908041
0.897319
0.890778
0.887047
0.885244
0.88491
0.88571
1.15376
1.16852
1.15246
1.10169
1.03712
0.982303
0.944686
0.920293
0.904285
0.894115
0.888027
0.884645
0.883112
0.882995
0.883974
1.15878
1.17395
1.15478
1.09939
1.03176
0.976327
0.939384
0.915809
0.90048
0.890884
0.885259
0.882231
0.880971
0.881071
0.882232
1.1641
1.17953
1.15678
1.09647
1.02584
0.970027
0.933933
0.911249
0.896631
0.887629
0.882477
0.879807
0.87882
0.87914
0.880483
1.16974
1.18526
1.1584
1.09286
1.01933
0.963417
0.928348
0.906622
0.892746
0.884355
0.879685
0.877375
0.876662
0.877203
0.878729
1.17572
1.19111
1.15955
1.0885
1.01223
0.956517
0.922648
0.901939
0.88883
0.881068
0.876886
0.874936
0.874499
0.87526
0.876969
1.18209
1.19703
1.16015
1.08332
1.00453
0.94935
0.916852
0.897209
0.884891
0.877772
0.874083
0.872494
0.872331
0.873313
0.875205
1.18886
1.20299
1.16009
1.07727
0.996241
0.941946
0.910978
0.892444
0.880935
0.874473
0.871279
0.87005
0.870161
0.871363
0.873439
1.19609
1.20892
1.15927
1.07028
0.987375
0.93434
0.905049
0.887652
0.876971
0.871175
0.868478
0.867606
0.86799
0.869412
0.871669
1.2038
1.21475
1.15757
1.06231
0.977954
0.92657
0.899084
0.882845
0.873005
0.867884
0.865683
0.865165
0.865819
0.86746
0.869899
1.21203
1.22039
1.15485
1.05329
0.968016
0.91868
0.893105
0.878034
0.869046
0.864605
0.862896
0.862728
0.863651
0.865509
0.868127
1.22083
1.22572
1.151
1.04321
0.957612
0.910717
0.88713
0.873227
0.865101
0.861344
0.860123
0.860299
0.861488
0.863561
0.866357
1.23024
1.23062
1.14586
1.03204
0.946804
0.90273
0.881179
0.868435
0.861179
0.858106
0.857364
0.85788
0.859331
0.861616
0.864587
1.24027
1.23492
1.13928
1.01978
0.935673
0.894767
0.875269
0.863668
0.857286
0.854895
0.854625
0.855472
0.857183
0.859677
0.86282
1.25097
1.23844
1.13112
1.00646
0.924309
0.886877
0.869413
0.858935
0.853433
0.851718
0.851908
0.85308
0.855045