/*--------------------------------*- C++ -*----------------------------------*\
  =========                 |
  \\      /  F ield         | OpenFOAM: The Open Source CFD Toolbox
   \\    /   O peration     | Website:  https://openfoam.org
    \\  /    A nd           | Version:  6.0
     \\/     M anipulation  |
\*---------------------------------------------------------------------------*/
FoamFile
{
    version     2.0;
    format      ascii;
    class       surfaceScalarField;
    location    "9.6";
    object      phi;
}
// * * * * * * * * * * * * * * * * * * * * * * * * * * * * * * * * * * * * * //

dimensions      [0 3 -1 0 0 0 0];

internalField   nonuniform List<scalar> 
68636
(
3.02282e-05
0.00310561
1.28222e-09
6.08419e-05
0.00307075
9.109e-05
0.00300254
0.000120479
0.00290148
0.000148621
0.00276862
0.000175171
0.0026054
0.000199814
0.00241364
0.000222267
0.00219544
0.00024227
0.00195325
0.000259597
0.00168971
0.000274052
0.00140774
0.000285472
0.00111038
0.000293735
0.000800971
0.000298724
0.00048265
0.000157471
0.000299662
2.99494e-05
0.00307565
6.0843e-09
6.02852e-05
0.00304041
9.02585e-05
0.00297256
0.00011938
0.00287236
0.000147266
0.00274073
0.000173574
0.00257909
0.000197992
0.00238921
0.000220239
0.00217319
0.00024006
0.00193342
0.000257229
0.00167254
0.000271553
0.00139341
0.000282868
0.00109906
0.000291074
0.000792755
0.000295931
0.000477778
0.000156432
0.000296946
2.96728e-05
0.00304597
1.11449e-08
5.97333e-05
0.00301035
8.94344e-05
0.00294286
0.000118292
0.0028435
0.000145925
0.0027131
0.000171993
0.00255302
0.000196189
0.00236501
0.000218234
0.00215115
0.000237874
0.00191378
0.000254887
0.00165553
0.00026908
0.00137921
0.000280289
0.00108785
0.000288422
0.000784624
0.000293284
0.000472919
0.000155225
0.0002945
2.93986e-05
0.00301656
1.62627e-08
5.91864e-05
0.00298056
8.86181e-05
0.00291343
0.000117214
0.0028149
0.000144596
0.00268571
0.000170427
0.00252719
0.000194404
0.00234103
0.000216247
0.0021293
0.000235708
0.00189432
0.000252565
0.00163866
0.000266629
0.00136515
0.000277733
0.00107674
0.000285785
0.000776565
0.000290636
0.000468057
0.000153875
0.000291969
2.91269e-05
0.00298741
2.16022e-08
5.86444e-05
0.00295105
8.7809e-05
0.00288426
0.000116145
0.00278657
0.000143278
0.00265858
0.000168875
0.00250159
0.000192633
0.00231728
0.000214278
0.00210766
0.000233561
0.00187503
0.000250264
0.00162196
0.000264198
0.00135121
0.000275201
0.00106574
0.00028317
0.000768598
0.000287985
0.000463246
0.000152482
0.000289388
2.88575e-05
0.00295852
2.69356e-08
5.81072e-05
0.0029218
8.70071e-05
0.00285536
0.000115086
0.00275849
0.000141973
0.00263169
0.000167337
0.00247623
0.000190879
0.00229373
0.000212326
0.00208621
0.000231433
0.00185592
0.000247983
0.00160541
0.00026179
0.0013374
0.000272693
0.00105483
0.000280581
0.000760704
0.000285351
0.000458466
0.000151023
0.000286797
2.85904e-05
0.0029299
3.2183e-08
5.75747e-05
0.00289281
8.62122e-05
0.00282672
0.000114036
0.00273067
0.000140679
0.00260505
0.000165812
0.00245109
0.00018914
0.00227041
0.000210391
0.00206495
0.000229324
0.00183699
0.000245723
0.00158901
0.000259405
0.00132372
0.000270208
0.00104403
0.000278018
0.000752896
0.000282742
0.000453746
0.000149569
0.000284207
2.83258e-05
0.00290154
3.73228e-08
5.70469e-05
0.00286409
8.54245e-05
0.00279835
0.000112996
0.00270309
0.000139396
0.00257865
0.000164301
0.00242619
0.000187416
0.00224729
0.000208474
0.00204389
0.000227234
0.00181823
0.000243484
0.00157276
0.00025704
0.00131016
0.000267746
0.00103332
0.000275481
0.000745156
0.000280159
0.000449061
0.000148084
0.000281632
2.80635e-05
0.00287343
4.22452e-08
5.65239e-05
0.00283563
8.46438e-05
0.00277023
0.000111965
0.00267577
0.000138126
0.00255248
0.000162804
0.00240151
0.000185708
0.00222438
0.000206575
0.00202303
0.000225164
0.00179964
0.000241265
0.00155666
0.000254697
0.00129673
0.000265306
0.00102271
0.000272969
0.000737495
0.000277603
0.000444431
0.000146618
0.00027908
2.78036e-05
0.00284558
4.69337e-08
5.60056e-05
0.00280743
8.38702e-05
0.00274236
0.000110943
0.0026487
0.000136866
0.00252656
0.00016132
0.00237705
0.000184016
0.00220169
0.000204692
0.00200235
0.000223111
0.00178122
0.000239065
0.0015407
0.000252376
0.00128342
0.000262888
0.0010122
0.000270481
0.000729898
0.000275072
0.000439833
0.000145127
0.000276552
2.75461e-05
0.00281798
5.13708e-08
5.5492e-05
0.00277948
8.31035e-05
0.00271475
0.00010993
0.00262187
0.000135618
0.00250087
0.000159849
0.00235282
0.000182339
0.0021792
0.000202826
0.00198186
0.000221078
0.00176297
0.000236886
0.0015249
0.000250075
0.00127023
0.000260492
0.00100178
0.000268015
0.000722378
0.000272566
0.000435288
0.000143655
0.000274049
2.7291e-05
0.00279064
5.55332e-08
5.4983e-05
0.00275179
8.23437e-05
0.00268739
0.000108927
0.00259529
0.000134381
0.00247542
0.000158392
0.00232881
0.000180676
0.00215691
0.000200977
0.00196156
0.000219063
0.00174488
0.000234727
0.00150923
0.000247795
0.00125716
0.000258118
0.000991456
0.000265573
0.000714919
0.000270083
0.000430771
0.000142161
0.000271567
2.70383e-05
0.00276354
5.94337e-08
5.44787e-05
0.00272435
8.15907e-05
0.00266028
0.000107932
0.00256895
0.000133155
0.0024502
0.000156947
0.00230502
0.000179029
0.00213483
0.000199145
0.00194145
0.000217066
0.00172696
0.000232588
0.00149371
0.000245537
0.00124421
0.000255766
0.000981229
0.000263153
0.000707535
0.000267623
0.000426305
0.000140691
0.000269105
2.6788e-05
0.00273669
6.30756e-08
5.39789e-05
0.00269716
8.08446e-05
0.00263341
0.000106946
0.00254285
0.00013194
0.0024252
0.000155516
0.00228144
0.000177397
0.00211295
0.00019733
0.00192151
0.000215087
0.0017092
0.000230468
0.00147832
0.000243298
0.00123138
0.000253435
0.000971089
0.000260755
0.00070021
0.000265186
0.000421869
0.000139206
0.000266662
2.654e-05
0.00271008
6.64794e-08
5.34836e-05
0.00267022
8.01051e-05
0.00260679
0.00010597
0.00251698
0.000130736
0.00240044
0.000154097
0.00225808
0.000175779
0.00209127
0.00019553
0.00190176
0.000213126
0.00169161
0.000228367
0.00146309
0.000241081
0.00121867
0.000251125
0.000961047
0.00025838
0.000692959
0.000262771
0.000417483
0.000137749
0.000264238
2.62943e-05
0.00268372
6.96829e-08
5.29929e-05
0.00264352
7.93723e-05
0.00258041
0.000105002
0.00249135
0.000129542
0.00237589
0.000152691
0.00223493
0.000174176
0.00206978
0.000193748
0.00188219
0.000211183
0.00167417
0.000226285
0.00144798
0.000238884
0.00120607
0.000248837
0.000951091
0.000256026
0.000685766
0.000260378
0.000413125
0.000136283
0.000261835
2.60509e-05
0.0026576
7.27323e-08
5.25066e-05
0.00261706
7.86461e-05
0.00255427
0.000104042
0.00246596
0.00012836
0.00235158
0.000151298
0.00221199
0.000172587
0.00204849
0.000191981
0.0018628
0.000209258
0.0016569
0.000224223
0.00143302
0.000236706
0.00119358
0.000246569
0.000941231
0.000253694
0.000678644
0.000258007
0.000408817
0.000134846
0.000259454
2.58098e-05
0.00263171
7.56858e-08
5.20248e-05
0.00259085
7.79265e-05
0.00252837
0.000103092
0.00244079
0.000127188
0.00232748
0.000149917
0.00218926
0.000171013
0.0020274
0.00019023
0.00184358
0.00020735
0.00163977
0.000222179
0.00141819
0.000234549
0.00118121
0.000244322
0.000931455
0.000251383
0.00067158
0.000255658
0.000404537
0.000133401
0.000257095
2.55709e-05
0.00260606
7.86071e-08
5.15473e-05
0.00256487
7.72134e-05
0.0025027
0.000102149
0.00241586
0.000126026
0.0023036
0.000148549
0.00216674
0.000169453
0.00200649
0.000188495
0.00182454
0.00020546
0.00162281
0.000220154
0.0014035
0.000232412
0.00116896
0.000242096
0.000921773
0.000249094
0.000664586
0.00025333
0.000400305
0.000131984
0.000254758
2.53342e-05
0.00258065
8.15542e-08
5.10742e-05
0.00253913
7.65067e-05
0.00247727
0.000101216
0.00239115
0.000124875
0.00227994
0.000147193
0.00214442
0.000167907
0.00198578
0.000186776
0.00180567
0.000203586
0.001606
0.000218147
0.00138893
0.000230294
0.00115681
0.00023989
0.000912173
0.000246825
0.000657648
0.000251024
0.0003961
0.000130558
0.000252442
2.50997e-05
0.00255546
8.45763e-08
5.06053e-05
0.00251362
7.58063e-05
0.00245207
0.000100291
0.00236666
0.000123735
0.0022565
0.00014585
0.00212231
0.000166375
0.00196526
0.000185073
0.00178697
0.00020173
0.00158934
0.000216159
0.00137451
0.000228195
0.00114477
0.000237705
0.000902666
0.000244577
0.000650779
0.000248739
0.000391943
0.00012916
0.000250148
2.48673e-05
0.00253051
8.77084e-08
5.01407e-05
0.00248835
7.51123e-05
0.0024271
9.93737e-05
0.0023424
0.000122605
0.00223327
0.000144518
0.00210039
0.000164857
0.00194492
0.000183385
0.00176844
0.000199891
0.00157284
0.000214188
0.00136021
0.000226116
0.00113284
0.000235539
0.00089324
0.000242349
0.000643966
0.000246475
0.000387812
0.000127754
0.000247874
2.46371e-05
0.00250578
9.0967e-08
4.96802e-05
0.00246331
7.44245e-05
0.00240235
9.8465e-05
0.00231836
0.000121485
0.00221025
0.000143199
0.00207868
0.000163352
0.00192476
0.000181712
0.00175008
0.000198068
0.00155648
0.000212236
0.00134604
0.000224055
0.00112103
0.000233393
0.000883904
0.000240142
0.00063722
0.000244232
0.000383727
0.000126376
0.000245619
2.44089e-05
0.00248128
9.43512e-08
4.9224e-05
0.00243849
7.37429e-05
0.00237783
9.75646e-05
0.00229454
0.000120375
0.00218744
0.000141892
0.00205716
0.000161862
0.00190479
0.000180055
0.00173189
0.000196263
0.00154027
0.000210302
0.001332
0.000222014
0.00110931
0.000231267
0.000874648
0.000237956
0.000630528
0.000242009
0.00037967
0.000124992
0.000243385
2.41827e-05
0.002457
9.78443e-08
4.87718e-05
0.0024139
7.30675e-05
0.00235354
9.66723e-05
0.00227094
0.000119275
0.00216484
0.000140596
0.00203584
0.000160385
0.00188501
0.000178412
0.00171386
0.000194473
0.00152421
0.000208385
0.00131809
0.000219991
0.00109771
0.000229161
0.000865481
0.000235789
0.000623903
0.000239806
0.000375657
0.000123636
0.000241171
2.39586e-05
0.00243293
1.01415e-07
4.83237e-05
0.00238954
7.23982e-05
0.00232946
9.57881e-05
0.00224754
0.000118185
0.00214244
0.000139312
0.00201471
0.000158921
0.0018654
0.000176785
0.00169599
0.0001927
0.0015083
0.000206486
0.0013043
0.000217986
0.00108621
0.000227073
0.000856391
0.000233642
0.000617331
0.000237623
0.000371672
0.000122276
0.000238976
2.37365e-05
0.00240909
1.05022e-07
4.78797e-05
0.0023654
7.17349e-05
0.00230561
9.49119e-05
0.00222437
0.000117105
0.00212025
0.00013804
0.00199378
0.000157471
0.00184597
0.000175173
0.00167829
0.000190943
0.00149253
0.000204604
0.00129064
0.000216
0.00107481
0.000225005
0.000847389
0.000231515
0.000610824
0.000235461
0.000367731
0.000120944
0.000236802
2.35164e-05
0.00238547
1.0862e-07
4.74397e-05
0.00234147
7.10776e-05
0.00228197
9.40436e-05
0.0022014
0.000116035
0.00209825
0.00013678
0.00197303
0.000156034
0.00182671
0.000173575
0.00166075
0.000189202
0.0014769
0.000202739
0.00127711
0.000214032
0.00106352
0.000222955
0.000838463
0.000229407
0.00060437
0.000233318
0.000363816
0.000119607
0.000234648
2.32983e-05
0.00236206
1.12161e-07
4.70036e-05
0.00231777
7.04262e-05
0.00225855
9.31831e-05
0.00217865
0.000114974
0.00207646
0.00013553
0.00195248
0.00015461
0.00180763
0.000171991
0.00164337
0.000187477
0.00146141
0.000200891
0.00126369
0.000212082
0.00105233
0.000220925
0.000829623
0.000227319
0.000597979
0.000231195
0.000359944
0.000118297
0.000232513
2.30821e-05
0.00233886
1.15602e-07
4.65715e-05
0.00229428
6.97808e-05
0.00223534
9.23305e-05
0.0021561
0.000113923
0.00205487
0.000134293
0.00193211
0.000153199
0.00178873
0.000170422
0.00162615
0.000185768
0.00144607
0.00019906
0.0012504
0.00021015
0.00104123
0.000218913
0.000820857
0.000225249
0.00059164
0.000229091
0.000356098
0.000116982
0.000230398
2.28678e-05
0.00231587
1.18904e-07
4.61433e-05
0.002271
6.91412e-05
0.00221234
9.14856e-05
0.00213375
0.000112882
0.00203347
0.000133066
0.00191192
0.0001518
0.00176999
0.000168868
0.00160908
0.000184074
0.00143086
0.000197246
0.00123723
0.000208235
0.00103025
0.000216919
0.000812176
0.000223198
0.000585364
0.000227006
0.000352295
0.000115694
0.000228303
2.26555e-05
0.0022931
1.2204e-07
4.57189e-05
0.00224794
6.85073e-05
0.00218955
9.06483e-05
0.00211161
0.00011185
0.00201227
0.000131851
0.00189192
0.000150415
0.00175143
0.000167327
0.00159217
0.000182395
0.00141579
0.000195448
0.00122417
0.000206338
0.00101936
0.000214943
0.000803569
0.000221166
0.000579138
0.00022494
0.000348518
0.000114401
0.000226226
2.24451e-05
0.00227053
1.24997e-07
4.52984e-05
0.00222509
6.78792e-05
0.00216697
8.98187e-05
0.00208967
0.000110828
0.00199126
0.000130646
0.0018721
0.000149042
0.00173303
0.000165801
0.00157541
0.000180732
0.00140086
0.000193667
0.00121124
0.000204458
0.00100857
0.000212986
0.000795043
0.000219153
0.000572974
0.000222893
0.000344782
0.000113134
0.000224168
2.22366e-05
0.00224816
1.27774e-07
4.48816e-05
0.00220244
6.72568e-05
0.0021446
8.89965e-05
0.00206793
0.000109814
0.00197045
0.000129453
0.00185247
0.000147681
0.0017148
0.000164288
0.0015588
0.000179084
0.00138607
0.000191902
0.00119842
0.000202595
0.000997871
0.000211046
0.000786591
0.000217158
0.00056686
0.000220865
0.000341071
0.000111863
0.000222129
2.20299e-05
0.002226
1.30388e-07
4.44687e-05
0.00218
6.66401e-05
0.00212242
8.81819e-05
0.00204639
0.00010881
0.00194982
0.00012827
0.00183301
0.000146333
0.00169674
0.00016279
0.00154235
0.000177452
0.00137141
0.000190153
0.00118572
0.00020075
0.000987276
0.000209124
0.000778219
0.000215181
0.000560806
0.000218855
0.000337402
0.000110619
0.000220108
2.18252e-05
0.00220404
1.32864e-07
4.40595e-05
0.00215777
6.60289e-05
0.00210045
8.73746e-05
0.00202504
0.000107815
0.00192938
0.000127099
0.00181372
0.000144997
0.00167884
0.000161305
0.00152604
0.000175833
0.00135688
0.000188419
0.00117314
0.000198921
0.000976773
0.00020722
0.000769918
0.000213222
0.0005548
0.000216864
0.000333757
0.000109371
0.000218105
2.16223e-05
0.00218229
1.35241e-07
4.3654e-05
0.00213574
6.54233e-05
0.00207869
8.65747e-05
0.00200389
0.00010683
0.00190912
0.000125938
0.00179461
0.000143674
0.00166111
0.000159833
0.00150988
0.00017423
0.00134248
0.000186702
0.00116067
0.000197109
0.000966368
0.000205332
0.000761696
0.000211281
0.000548855
0.00021489
0.000330152
0.000108148
0.000216121
2.14213e-05
0.00216073
1.3756e-07
4.32522e-05
0.00211391
6.48232e-05
0.00205711
8.57821e-05
0.00198293
0.000105853
0.00188905
0.000124787
0.00177568
0.000142362
0.00164353
0.000158375
0.00149387
0.000172641
0.00132821
0.000185001
0.00114831
0.000195313
0.000956054
0.000203463
0.000753544
0.000209358
0.000542957
0.000212935
0.000326572
0.000106921
0.000214155
2.12221e-05
0.00213937
1.39866e-07
4.2854e-05
0.00209227
6.42286e-05
0.00203574
8.49967e-05
0.00196217
0.000104885
0.00186916
0.000123647
0.00175692
0.000141063
0.00162612
0.00015693
0.001478
0.000171067
0.00131408
0.000183315
0.00113606
0.000193534
0.000945837
0.00020161
0.00074547
0.000207453
0.000537117
0.000210998
0.000323031
0.000105719
0.000212208
2.10247e-05
0.0021182
1.42195e-07
4.24595e-05
0.00207084
6.36394e-05
0.00201456
8.42184e-05
0.00194159
0.000103926
0.00184946
0.000122517
0.00173833
0.000139775
0.00160886
0.000155498
0.00146228
0.000169507
0.00130007
0.000181644
0.00112392
0.000191771
0.000935709
0.000199774
0.000737465
0.000205564
0.000531324
0.000209078
0.000319514
0.000104513
0.000210277
2.08291e-05
0.00209723
1.44582e-07
4.20686e-05
0.0020496
6.30555e-05
0.00199357
8.34472e-05
0.0019212
0.000102975
0.00182993
0.000121398
0.0017199
0.000138499
0.00159176
0.000154079
0.0014467
0.000167962
0.00128618
0.000179988
0.0011119
0.000190024
0.000925675
0.000197955
0.000729536
0.000203694
0.000525589
0.000207176
0.000316036
0.000103331
0.000208365
2.06353e-05
0.00207644
1.47045e-07
4.16812e-05
0.00202855
6.2477e-05
0.00197278
8.26831e-05
0.00190099
0.000102033
0.00181058
0.000120289
0.00170165
0.000137234
0.00157481
0.000152674
0.00143126
0.00016643
0.00127243
0.000178348
0.00109998
0.000188293
0.000915729
0.000196153
0.000721674
0.00020184
0.0005199
0.000205291
0.000312581
0.000102146
0.00020647
2.04433e-05
0.00205585
1.49596e-07
4.12974e-05
0.0020077
6.19037e-05
0.00195217
8.19259e-05
0.00188097
0.0001011
0.0017914
0.00011919
0.00168356
0.000135981
0.00155802
0.000151281
0.00141596
0.000164913
0.0012588
0.000176723
0.00108817
0.000186578
0.000905876
0.000194367
0.000713887
0.000200003
0.000514267
0.000203423
0.000309165
0.000100985
0.000204592
2.02531e-05
0.00203544
1.52234e-07
4.09171e-05
0.00198704
6.13357e-05
0.00193175
8.11756e-05
0.00186113
0.000100175
0.0017724
0.000118101
0.00166563
0.00013474
0.00154138
0.0001499
0.0014008
0.000163409
0.00124529
0.000175112
0.00107646
0.000184878
0.000896108
0.000192597
0.000706166
0.000198183
0.000508679
0.000201573
0.000305772
9.98207e-05
0.000202731
2.00646e-05
0.00201523
1.54946e-07
4.05403e-05
0.00196656
6.07729e-05
0.00191152
8.04321e-05
0.00184147
9.92592e-05
0.00175358
0.000117021
0.00164787
0.00013351
0.00152489
0.000148533
0.00138577
0.000161919
0.0012319
0.000173517
0.00106487
0.000183194
0.000886432
0.000190844
0.000698519
0.000196379
0.000503146
0.000199739
0.000302416
9.868e-05
0.000200888
1.98779e-05
0.00199519
1.57711e-07
4.01669e-05
0.00194627
6.02152e-05
0.00189147
7.96955e-05
0.00182199
9.83513e-05
0.00173492
0.000115952
0.00163027
0.000132291
0.00150855
0.000147178
0.00137089
0.000160443
0.00121863
0.000171935
0.00105337
0.000181526
0.00087684
0.000189107
0.000690936
0.000194593
0.000497658
0.000197923
0.000299082
9.75357e-05
0.000199061
1.96929e-05
0.00197534
1.60503e-07
3.9797e-05
0.00192617
5.96626e-05
0.00187161
7.89656e-05
0.00180268
9.74517e-05
0.00171643
0.000114893
0.00161283
0.000131083
0.00149237
0.000145835
0.00135613
0.00015898
0.00120549
0.000170369
0.00104199
0.000179873
0.000867338
0.000187385
0.000683426
0.000192822
0.000492224
0.000196123
0.000295786
9.64146e-05
0.000197251
1.95096e-05
0.00195566
1.6329e-07
3.94304e-05
0.00190625
5.9115e-05
0.00185192
7.82423e-05
0.00178356
9.65603e-05
0.00169812
0.000113843
0.00159555
0.000129886
0.00147632
0.000144504
0.00134152
0.000157531
0.00119246
0.000168816
0.0010307
0.000178235
0.000857918
0.00018568
0.000675979
0.000191068
0.000486834
0.000194339
0.000292512
9.52899e-05
0.000195458
1.93279e-05
0.00193617
1.66038e-07
3.90672e-05
0.00188651
5.85725e-05
0.00183242
7.75256e-05
0.0017646
9.56771e-05
0.00167997
0.000112803
0.00157842
0.0001287
0.00146042
0.000143186
0.00132703
0.000156094
0.00117956
0.000167278
0.00101952
0.000176612
0.000848587
0.00018399
0.000668603
0.00018933
0.000481497
0.000192572
0.000289274
9.4188e-05
0.000193681
1.9148e-05
0.00191685
1.68715e-07
3.87074e-05
0.00186695
5.80349e-05
0.00181309
7.68155e-05
0.00174582
9.48019e-05
0.00166198
0.000111772
0.00156145
0.000127525
0.00144467
0.00014188
0.00131268
0.000154671
0.00116676
0.000165754
0.00100843
0.000175004
0.000839336
0.000182315
0.00066129
0.000187607
0.000476203
0.000190821
0.000286057
9.30826e-05
0.00019192
1.89697e-05
0.00189771
1.71292e-07
3.83508e-05
0.00184757
5.75023e-05
0.00179394
7.61119e-05
0.00172721
9.39347e-05
0.00164416
0.00011075
0.00154464
0.000126361
0.00142906
0.000140586
0.00129845
0.000153261
0.00115409
0.000164244
0.000997453
0.00017341
0.000830172
0.000180656
0.000654046
0.000185901
0.000470961
0.000189086
0.000282876
9.19995e-05
0.000190176
1.8793e-05
0.00187875
1.73746e-07
3.79975e-05
0.00182836
5.69745e-05
0.00177496
7.54147e-05
0.00170877
9.30755e-05
0.0016265
0.000109738
0.00152797
0.000125208
0.00141359
0.000139303
0.00128436
0.000151864
0.00114153
0.000162748
0.000986568
0.000171831
0.000821087
0.000179012
0.000646863
0.00018421
0.000465761
0.000187367
0.000279716
9.09131e-05
0.000188447
1.8618e-05
0.00185995
1.76064e-07
3.76475e-05
0.00180933
5.64516e-05
0.00175616
7.47239e-05
0.0016905
9.22241e-05
0.001609
0.000108736
0.00151146
0.000124065
0.00139826
0.000138033
0.00127039
0.00015048
0.00112908
0.000161266
0.000975784
0.000170267
0.000812087
0.000177384
0.000639749
0.000182535
0.000460613
0.000185663
0.000276592
8.98487e-05
0.000186735
1.84446e-05
0.00184133
1.78239e-07
3.73006e-05
0.00179048
5.59334e-05
0.00173752
7.40394e-05
0.0016724
9.13804e-05
0.00159165
0.000107742
0.0014951
0.000122932
0.00138307
0.000136774
0.00125655
0.000149109
0.00111675
0.000159797
0.000965095
0.000168717
0.000803165
0.00017577
0.000632695
0.000180875
0.000455506
0.000183976
0.000273488
8.87811e-05
0.000185038
1.82727e-05
0.00182288
1.80279e-07
3.69569e-05
0.00177179
5.542e-05
0.00171906
7.33612e-05
0.00165446
9.05446e-05
0.00157447
0.000106758
0.00147889
0.00012181
0.00136802
0.000135526
0.00124283
0.00014775
0.00110452
0.000158341
0.000954504
0.000167182
0.000794327
0.000174171
0.000625708
0.00017923
0.000450449
0.000182304
0.000270419
8.7735e-05
0.000183357
1.81025e-05
0.00180459
1.82197e-07
3.66164e-05
0.00175328
5.49112e-05
0.00170077
7.26892e-05
0.00163668
8.97163e-05
0.00155744
0.000105782
0.00146282
0.000120698
0.0013531
0.00013429
0.00122924
0.000146403
0.00109241
0.000156899
0.000944007
0.00016566
0.000785565
0.000172586
0.00061878
0.000177601
0.000445432
0.000180647
0.000267369
8.66857e-05
0.000181691
1.79338e-05
0.00178647
1.84019e-07
3.6279e-05
0.00173493
5.44072e-05
0.00168264
7.20233e-05
0.00161906
8.88957e-05
0.00154057
0.000104816
0.0014469
0.000119596
0.00133833
0.000133065
0.00121577
0.000145069
0.00108041
0.00015547
0.000933607
0.000164152
0.000776885
0.000171017
0.000611918
0.000175986
0.000440466
0.000179005
0.000264354
8.56576e-05
0.00018004
1.77667e-05
0.00176852
1.85775e-07
3.59447e-05
0.00171676
5.39077e-05
0.00166468
7.13635e-05
0.0016016
8.80826e-05
0.00152385
0.000103858
0.00143113
0.000118505
0.00132368
0.000131852
0.00120242
0.000143747
0.00106851
0.000154055
0.000923298
0.000162659
0.00076828
0.000169461
0.000605113
0.000174387
0.000435538
0.000177379
0.000261359
8.46264e-05
0.000178405
1.76011e-05
0.00175073
1.875e-07
3.56134e-05
0.00169874
5.34128e-05
0.00164688
7.07098e-05
0.00158431
8.72769e-05
0.00150729
0.000102909
0.00141549
0.000117423
0.00130917
0.00013065
0.0011892
0.000142437
0.00105672
0.000152652
0.000913085
0.000161179
0.000759755
0.00016792
0.000598374
0.000172802
0.00043066
0.000175767
0.000258397
8.36158e-05
0.000176785
1.7437e-05
0.00173311
1.89224e-07
3.52852e-05
0.0016809
5.29225e-05
0.00162924
7.00621e-05
0.00156717
8.64786e-05
0.00149087
0.000101969
0.0014
0.000116351
0.00129478
0.000129458
0.00117609
0.00014114
0.00104504
0.000151262
0.000902961
0.000159712
0.000751304
0.000166393
0.000591691
0.000171231
0.00042582
0.000174171
0.000255455
8.26023e-05
0.000175179
1.72745e-05
0.00171564
1.90981e-07
3.49599e-05
0.00166321
5.24366e-05
0.00161176
6.94203e-05
0.00155019
8.56877e-05
0.0014746
0.000101038
0.00138465
0.00011529
0.00128053
0.000128278
0.0011631
0.000139854
0.00103347
0.000149885
0.000892931
0.000158259
0.000742932
0.000164881
0.000585071
0.000169675
0.000421029
0.000172589
0.000252545
8.1609e-05
0.000173589
1.71134e-05
0.00169833
1.92791e-07
3.46377e-05
0.00164569
5.19552e-05
0.00159444
6.87844e-05
0.00153336
8.4904e-05
0.00145848
0.000100115
0.00136944
0.000114238
0.00126641
0.000127109
0.00115023
0.00013858
0.001022
0.000148521
0.000882989
0.00015682
0.000734632
0.000163382
0.000578508
0.000168134
0.000416275
0.000171021
0.000249654
8.06128e-05
0.000172013
1.69538e-05
0.00168119
1.94671e-07
3.43184e-05
0.00162832
5.14782e-05
0.00157729
6.81543e-05
0.00151668
8.41275e-05
0.00144251
9.92003e-05
0.00135437
0.000113195
0.00125241
0.00012595
0.00113748
0.000137318
0.00101063
0.000147169
0.000873138
0.000155393
0.00072641
0.000161897
0.000572007
0.000166606
0.000411568
0.000169468
0.000246796
7.96365e-05
0.000170451
1.67957e-05
0.00166419
1.96625e-07
3.4002e-05
0.00161111
5.10056e-05
0.00156028
6.753e-05
0.00150016
8.33581e-05
0.00142668
9.82942e-05
0.00133943
0.000112162
0.00123855
0.000124802
0.00112484
0.000136067
0.000999363
0.00014583
0.000863374
0.00015398
0.000718258
0.000160425
0.00056556
0.000165093
0.000406899
0.00016793
0.000243956
7.86573e-05
0.000168904
1.6639e-05
0.00164736
1.98652e-07
3.36886e-05
0.00159407
5.05373e-05
0.00154343
6.69115e-05
0.00148378
8.25958e-05
0.001411
9.73965e-05
0.00132463
0.000111139
0.0012248
0.000123664
0.00111231
0.000134828
0.0009882
0.000144503
0.0008537
0.00015258
0.000710183
0.000158968
0.000559175
0.000163593
0.000402276
0.000166405
0.000241148
7.76975e-05
0.000167371
1.64837e-05
0.00163067
2.0074e-07
3.3378e-05
0.00157717
5.00734e-05
0.00152674
6.62986e-05
0.00146756
8.18405e-05
0.00139546
9.6507e-05
0.00130997
0.000110125
0.00121118
0.000122537
0.0010999
0.0001336
0.000977136
0.000143188
0.000844111
0.000151193
0.000702177
0.000157523
0.000552843
0.000162108
0.000397689
0.000164895
0.000238358
7.6735e-05
0.000165853
1.63299e-05
0.00161414
2.0287e-07
3.30702e-05
0.00156043
4.96136e-05
0.00151019
6.56914e-05
0.00145148
8.10921e-05
0.00138006
9.56257e-05
0.00129543
0.000109121
0.00119769
0.000121421
0.0010876
0.000132384
0.000966174
0.000141886
0.000834611
0.000149819
0.000694247
0.000156092
0.000546571
0.000160636
0.000393148
0.000163398
0.000235599
7.57915e-05
0.000164348
1.61775e-05
0.00159776
2.05021e-07
3.27653e-05
0.00154384
4.91581e-05
0.0014938
6.50897e-05
0.00143555
8.03506e-05
0.00136479
9.47525e-05
0.00128103
0.000108126
0.00118432
0.000120314
0.00107541
0.000131179
0.000955309
0.000140595
0.000825194
0.000148457
0.000686384
0.000154674
0.000540352
0.000159178
0.000388643
0.000161916
0.000232859
7.48451e-05
0.000162857
1.60265e-05
0.00158152
2.07168e-07
3.24632e-05
0.00152741
4.87068e-05
0.00147756
6.44936e-05
0.00141976
7.9616e-05
0.00134967
9.38873e-05
0.00126676
0.000107139
0.00117107
0.000119218
0.00106333
0.000129985
0.000944543
0.000139317
0.000815863
0.000147108
0.000678594
0.000153269
0.000534192
0.000157733
0.000384183
0.000160447
0.000230148
7.39175e-05
0.00016138
1.58768e-05
0.00156544
2.09286e-07
3.21639e-05
0.00151112
4.82597e-05
0.00146146
6.39029e-05
0.00140412
7.88881e-05
0.00133469
9.30301e-05
0.00125262
0.000106162
0.00115793
0.000118132
0.00105136
0.000128802
0.000933873
0.00013805
0.000806614
0.000145771
0.000670872
0.000151878
0.000528084
0.000156301
0.000379757
0.000158991
0.000227456
7.29871e-05
0.000159917
1.57286e-05
0.0015495
2.11354e-07
3.18674e-05
0.00149498
4.78166e-05
0.00144551
6.33177e-05
0.00138862
7.81669e-05
0.00131984
9.21808e-05
0.0012386
0.000105194
0.00114492
0.000117056
0.0010395
0.00012763
0.0009233
0.000136794
0.000797451
0.000144446
0.000663222
0.000150499
0.000522034
0.000154883
0.000375375
0.000157549
0.000224793
7.2075e-05
0.000158467
1.55817e-05
0.0015337
2.1335e-07
3.15735e-05
0.00147899
4.73777e-05
0.00142971
6.27379e-05
0.00137326
7.74523e-05
0.00130512
9.13394e-05
0.00122472
0.000104235
0.00113202
0.00011599
0.00102775
0.000126468
0.000912821
0.000135551
0.000788367
0.000143134
0.000655637
0.000149133
0.000516034
0.000153478
0.000371028
0.000156121
0.000222147
7.11602e-05
0.000157031
1.54362e-05
0.00151805
2.15262e-07
3.12824e-05
0.00146314
4.69428e-05
0.00141405
6.21634e-05
0.00135804
7.67444e-05
0.00129054
9.05056e-05
0.00121096
0.000103285
0.00111925
0.000114934
0.0010161
0.000125318
0.000902438
0.000134319
0.000779368
0.000141834
0.000648123
0.000147779
0.000510091
0.000152086
0.000366724
0.000154705
0.000219531
7.02634e-05
0.000155608
1.5292e-05
0.00150254
2.17079e-07
3.0994e-05
0.00144744
4.65119e-05
0.00139853
6.15942e-05
0.00134295
7.60429e-05
0.00127609
8.96796e-05
0.00119732
0.000102343
0.00110658
0.000113887
0.00100455
0.000124178
0.000892146
0.000133098
0.000770447
0.000140546
0.000640674
0.000146438
0.000504198
0.000150706
0.000362454
0.000153303
0.000216932
6.93638e-05
0.000154198
1.51492e-05
0.00148717
2.18799e-07
3.07082e-05
0.00143188
4.60849e-05
0.00138315
6.10302e-05
0.00132801
7.53479e-05
0.00126178
8.88612e-05
0.00118381
0.000101411
0.00109403
0.00011285
0.000993115
0.000123048
0.000881949
0.000131888
0.000761608
0.00013927
0.000633294
0.000145109
0.000498361
0.00014934
0.000358226
0.000151914
0.000214361
6.84819e-05
0.000152802
1.50076e-05
0.00147195
2.20427e-07
3.0425e-05
0.00141646
4.56619e-05
0.00136792
6.04715e-05
0.0013132
7.46594e-05
0.00124759
8.80503e-05
0.00117041
0.000100486
0.0010816
0.000111823
0.000981778
0.000121929
0.000871842
0.00013069
0.000752846
0.000138006
0.000625977
0.000143793
0.000492572
0.000147986
0.000354031
0.000150538
0.000211807
6.75973e-05
0.000151418
1.48674e-05
0.00145686
2.21972e-07
3.01445e-05
0.00140119
4.52428e-05
0.00135282
5.99179e-05
0.00129852
7.39771e-05
0.00123353
8.7247e-05
0.00115715
9.95708e-05
0.00106927
0.000110805
0.000970545
0.000120821
0.000861828
0.000129503
0.000744165
0.000136753
0.000618729
0.000142489
0.000486839
0.000146645
0.000349878
0.000149174
0.000209282
6.673e-05
0.000150047
1.47285e-05
0.0014419
2.23449e-07
2.98665e-05
0.00138605
4.48275e-05
0.00133786
5.93694e-05
0.00128398
7.33012e-05
0.0012196
8.6451e-05
0.001144
9.86636e-05
0.00105706
0.000109797
0.000959411
0.000119722
0.000851901
0.000128327
0.00073556
0.000135512
0.000611543
0.000141197
0.000481153
0.000145316
0.000345757
0.000147823
0.000206772
6.58599e-05
0.000148689
1.45909e-05
0.00142709
2.24878e-07
2.95912e-05
0.00137105
4.44161e-05
0.00132303
5.8826e-05
0.00126957
7.26315e-05
0.00120579
8.56624e-05
0.00113096
9.77648e-05
0.00104496
0.000108798
0.000948379
0.000118634
0.000842066
0.000127162
0.000727034
0.000134283
0.000604423
0.000139917
0.000475521
0.000143999
0.000341676
0.000146484
0.000204291
6.50069e-05
0.000147343
1.44546e-05
0.00141241
2.26281e-07
2.93183e-05
0.00135619
4.40085e-05
0.00130834
5.82875e-05
0.00125529
7.1968e-05
0.00119211
8.48811e-05
0.00111805
9.68743e-05
0.00103296
0.000107808
0.000937445
0.000117556
0.000832317
0.000126007
0.000718582
0.000133065
0.000597364
0.000138648
0.000469936
0.000142695
0.000337628
0.000145158
0.000201825
6.41512e-05
0.00014601
1.43195e-05
0.00139786
2.27679e-07
2.9048e-05
0.00134146
4.36046e-05
0.00129379
5.77541e-05
0.00124114
7.13107e-05
0.00117856
8.4107e-05
0.00110526
9.59921e-05
0.00102108
0.000106827
0.00092661
0.000116488
0.000822658
0.000124863
0.000710208
0.000131858
0.000590371
0.000137392
0.000464404
0.000141403
0.00033362
0.000143845
0.000199387
6.33121e-05
0.000144689
1.41856e-05
0.00138345
2.29091e-07
2.87801e-05
0.00132686
4.32045e-05
0.00127936
5.72256e-05
0.00122712
7.06594e-05
0.00116512
8.33401e-05
0.00109257
9.5118e-05
0.0010093
0.000105856
0.000915872
0.00011543
0.000813083
0.00012373
0.000701907
0.000130662
0.000583438