/*--------------------------------*- C++ -*----------------------------------*\
  =========                 |
  \\      /  F ield         | OpenFOAM: The Open Source CFD Toolbox
   \\    /   O peration     | Website:  https://openfoam.org
    \\  /    A nd           | Version:  6.0
     \\/     M anipulation  |
\*---------------------------------------------------------------------------*/
FoamFile
{
    version     2.0;
    format      ascii;
    class       volVectorField;
    location    "9.6";
    object      U;
}
// * * * * * * * * * * * * * * * * * * * * * * * * * * * * * * * * * * * * * //

dimensions      [0 1 -1 0 0 0 0];

internalField   nonuniform List<vector> 
34500
(
(0.999997 3.80878e-06 -4.63372e-17)
(0.99997 -8.02942e-06 -8.13587e-18)
(0.999921 -3.23798e-05 1.42219e-16)
(0.999854 -7.51476e-05 -1.07654e-16)
(0.999781 -0.000139073 3.35488e-17)
(0.999711 -0.00022365 -1.01459e-16)
(0.999655 -0.000324293 -1.00973e-16)
(0.999622 -0.000432909 8.65217e-17)
(0.999616 -0.000540471 1.07225e-16)
(0.999637 -0.000638557 -6.82802e-16)
(0.999682 -0.000719841 -1.03969e-15)
(0.999747 -0.000786196 1.2669e-16)
(0.999825 -0.00081908 4.33492e-16)
(0.999984 -0.000902821 -2.06853e-16)
(0.998635 -0.00152195 7.59776e-17)
(0.999992 1.39356e-05 3.24511e-17)
(0.999944 -1.56724e-05 9.76393e-17)
(0.999854 -6.75582e-05 7.17526e-17)
(0.999735 -0.000152587 -3.02171e-16)
(0.999605 -0.000275574 -5.0581e-16)
(0.999482 -0.00043518 -5.50312e-17)
(0.999387 -0.000622363 2.55466e-16)
(0.999335 -0.00082075 -6.77085e-16)
(0.999332 -0.00101411 -1.78567e-16)
(0.99938 -0.0011869 6.81089e-16)
(0.999472 -0.00132563 1.26123e-15)
(0.999601 -0.00143266 -6.28484e-16)
(0.999735 -0.00147228 -9.82795e-16)
(1.00011 -0.00155275 -3.93938e-16)
(0.998636 -0.00211673 5.18627e-16)
(0.99999 2.48422e-05 1.0469e-17)
(0.999947 -1.8585e-05 -1.22919e-16)
(0.99987 -8.06289e-05 -1.2516e-16)
(0.99977 -0.000171015 4.55609e-16)
(0.999662 -0.000293361 -2.86055e-17)
(0.999562 -0.000446507 -1.63976e-16)
(0.999488 -0.000621469 9.77896e-17)
(0.999454 -0.000802485 3.84453e-16)
(0.999464 -0.000973814 2.42491e-19)
(0.99952 -0.00112215 -3.92693e-16)
(0.999614 -0.00123465 -7.27382e-16)
(0.999744 -0.00131431 4.13182e-16)
(0.999853 -0.00132894 2.24439e-16)
(1.00026 -0.00134771 1.64087e-16)
(0.999351 -0.00150557 -2.43577e-16)
(0.999986 3.59893e-05 -1.7357e-17)
(0.99995 -2.20487e-05 -9.02369e-18)
(0.99989 -9.40734e-05 4.83178e-17)
(0.999814 -0.000188403 -3.0534e-16)
(0.999732 -0.000307252 3.72144e-16)
(0.999659 -0.000449798 3.29839e-16)
(0.999608 -0.000607927 -3.99328e-16)
(0.999591 -0.000767881 -4.19714e-16)
(0.999611 -0.000915336 4.34719e-16)
(0.99967 -0.00103995 -4.70146e-16)
(0.999761 -0.00113046 -2.44172e-16)
(0.999886 -0.00119128 -3.84823e-16)
(0.999965 -0.00120068 5.41352e-16)
(1.00033 -0.00119315 -4.79018e-17)
(0.999785 -0.00127097 2.1407e-17)
(0.99998 4.75796e-05 -1.70458e-17)
(0.999946 -2.63917e-05 1.53319e-16)
(0.999891 -0.00011258 6.95495e-17)
(0.999822 -0.000219255 1.69729e-16)
(0.999751 -0.000347713 4.67339e-17)
(0.999688 -0.000496893 -1.5819e-16)
(0.999648 -0.000658664 1.02484e-16)
(0.99964 -0.000819939 2.6618e-16)
(0.999669 -0.000966306 -4.17426e-16)
(0.999735 -0.00108831 -2.30783e-16)
(0.999832 -0.00117442 1.00552e-15)
(0.999965 -0.00122947 6.33393e-16)
(1.00004 -0.00123967 -2.89182e-16)
(1.00036 -0.00121461 5.91082e-16)
(1.00001 -0.00126945 -5.86445e-16)
(0.999972 5.96844e-05 1.83545e-17)
(0.999938 -3.03702e-05 -9.48124e-17)
(0.999884 -0.000131847 -1.86328e-16)
(0.999819 -0.000253266 -5.29284e-17)
(0.999754 -0.000394983 1.09404e-16)
(0.999699 -0.00055515 -1.08801e-16)
(0.999667 -0.000725122 1.48113e-16)
(0.999668 -0.00089209 1.31125e-16)
(0.999706 -0.00104124 2.9084e-16)
(0.999782 -0.00116346 -1.00156e-16)
(0.999888 -0.00124645 2.85195e-18)
(1.00003 -0.00129431 -3.88777e-16)
(1.00011 -0.00129972 1.8284e-17)
(1.00038 -0.00125248 -4.68009e-16)
(1.00016 -0.00124223 7.4051e-17)
(0.999963 7.21373e-05 3.25589e-18)
(0.99993 -3.36915e-05 -3.55883e-17)
(0.99988 -0.000149835 -2.90173e-17)
(0.99982 -0.000284757 1.75716e-16)
(0.999763 -0.000437718 -2.20407e-16)
(0.999718 -0.000605875 2.75376e-16)
(0.999699 -0.000780101 -6.19008e-16)
(0.999711 -0.000948244 -3.69674e-16)
(0.999759 -0.00109572 -1.51511e-16)
(0.999845 -0.00121441 6.7088e-16)
(0.999958 -0.00129199 -7.67627e-16)
(1.00011 -0.00133158 2.97733e-16)
(1.0002 -0.00133254 4.55547e-16)
(1.00043 -0.00126904 -9.57072e-17)
(1.00028 -0.00120874 -1.20571e-16)
(0.999953 8.47392e-05 1.51183e-17)
(0.999921 -3.67172e-05 3.2287e-17)
(0.999875 -0.000167287 2.50272e-17)
(0.999822 -0.000315222 -1.50845e-16)
(0.999775 -0.000478732 3.28797e-16)
(0.999741 -0.000653997 -1.39551e-16)
(0.999733 -0.000831439 2.01472e-16)
(0.999757 -0.000999715 -1.46204e-16)
(0.999815 -0.00114486 3.9736e-16)
(0.99991 -0.0012601 1.7764e-16)
(1.00003 -0.00133368 2.4457e-16)
(1.00019 -0.00136763 -5.64616e-17)
(1.00029 -0.00136709 -5.04e-16)
(1.00049 -0.0012944 1.13683e-15)
(1.00039 -0.00120179 1.86297e-16)
(0.999941 9.73586e-05 -1.12173e-17)
(0.99991 -3.96929e-05 9.8954e-17)
(0.999868 -0.000184929 1.50786e-16)
(0.999821 -0.000346394 1.11902e-16)
(0.999782 -0.000521404 -4.88566e-16)
(0.999758 -0.000705245 1.40928e-16)
(0.999761 -0.000887803 3.20606e-16)
(0.999795 -0.00105829 7.72181e-16)
(0.999863 -0.00120325 -3.85225e-16)
(0.999967 -0.00131703 8.9995e-17)
(1.00009 -0.0013885 4.48772e-16)
(1.00026 -0.0014182 -3.23474e-16)
(1.00037 -0.00141502 -1.53879e-16)
(1.00056 -0.00133284 -3.80422e-16)
(1.00051 -0.00120428 8.39341e-17)
(0.999927 0.000109899 4.069e-17)
(0.999898 -4.26601e-05 -8.97351e-17)
(0.999858 -0.000202714 8.85163e-18)
(0.999816 -0.000378059 -1.10164e-16)
(0.999785 -0.000565229 4.10554e-16)
(0.999769 -0.000758748 7.95906e-17)
(0.999782 -0.000947908 2.7016e-16)
(0.999827 -0.00112217 -5.72877e-16)
(0.999905 -0.00126827 4.15713e-17)
(1.00002 -0.00138128 -7.86465e-17)
(1.00015 -0.00145052 -1.3959e-16)
(1.00033 -0.00147478 4.41018e-17)
(1.00046 -0.00146498 5.91768e-16)
(1.00064 -0.00136956 -8.03575e-16)
(1.00063 -0.00120104 -2.69077e-16)
(0.999913 0.000122275 -2.62247e-17)
(0.999884 -4.56237e-05 3.5249e-17)
(0.999848 -0.000220397 -1.47515e-16)
(0.999811 -0.000409448 2.49918e-16)
(0.999786 -0.000608564 -3.61508e-16)
(0.99978 -0.000811666 -3.03015e-16)
(0.999802 -0.00100752 -3.38771e-16)
(0.999857 -0.00118567 3.91039e-17)
(0.999947 -0.00133285 -8.13834e-17)
(1.00007 -0.00144446 -4.24327e-16)
(1.00022 -0.00151015 -7.20772e-16)
(1.0004 -0.00152706 2.85655e-16)
(1.00054 -0.00150733 -3.28145e-16)
(1.00072 -0.00139667 9.06314e-16)
(1.00076 -0.00119234 5.36752e-17)
(0.999897 0.000134407 -2.45561e-17)
(0.999869 -4.86386e-05 -1.0423e-16)
(0.999836 -0.000237927 1.50725e-16)
(0.999805 -0.000440268 -2.34134e-16)
(0.999789 -0.000650689 7.68605e-17)
(0.999792 -0.000862658 4.54113e-16)
(0.999824 -0.00106456 5.53829e-17)
(0.99989 -0.00124602 -6.7331e-17)
(0.99999 -0.00139368 1.81495e-16)
(1.00012 -0.00150302 -1.56854e-16)
(1.00028 -0.00156399 -9.50331e-17)
(1.00047 -0.00157234 -6.67507e-17)
(1.00063 -0.00154133 -2.86967e-16)
(1.00081 -0.0014161 -6.20965e-16)
(1.00088 -0.00118409 1.2409e-17)
(0.99988 0.00014624 -2.17675e-18)
(0.999853 -5.17693e-05 1.40492e-16)
(0.999824 -0.000255386 -2.21502e-16)
(0.9998 -0.000470634 8.33993e-17)
(0.999792 -0.000691732 -9.35502e-17)
(0.999805 -0.000911795 -1.54738e-16)
(0.999848 -0.00111898 -3.88888e-17)
(0.999925 -0.00130308 3.64982e-16)
(1.00004 -0.00145065 -6.30107e-16)
(1.00018 -0.00155716 4.20163e-16)
(1.00035 -0.00161286 2.20445e-16)
(1.00055 -0.0016125 1.83996e-16)
(1.00071 -0.00157043 7.49126e-16)
(1.0009 -0.00143291 7.29604e-16)
(1.001 -0.00118109 5.48102e-16)
(0.999861 0.00015774 8.30367e-18)
(0.999835 -5.5069e-05 5.28746e-17)
(0.999811 -0.000272886 1.76051e-16)
(0.999793 -0.000500787 5.57641e-17)
(0.999795 -0.000732138 1.70623e-16)
(0.999818 -0.000959723 1.68033e-16)
(0.999873 -0.0011716 -1.1846e-17)
(0.999961 -0.00135783 4.92855e-17)
(1.00008 -0.00150499 9.3753e-16)
(1.00024 -0.00160854 -1.13883e-16)
(1.00042 -0.00165911 5.42018e-16)
(1.00062 -0.00165076 -7.38786e-16)
(1.0008 -0.00159888 1.36907e-16)
(1.00099 -0.00145187 -1.34405e-15)
(1.00111 -0.00118635 -6.1592e-16)
(0.999842 0.000168901 9.94021e-18)
(0.999817 -5.85607e-05 -1.17677e-16)
(0.999796 -0.000290513 1.5478e-16)
(0.999786 -0.00053097 -2.24082e-16)
(0.999796 -0.000772425 1.56819e-16)
(0.999831 -0.0010073 2.07135e-17)
(0.999897 -0.00122362 1.94985e-16)
(0.999998 -0.00141182 -2.59959e-16)
(1.00013 -0.0015586 -8.38864e-16)
(1.0003 -0.0016595 2.49208e-16)
(1.00049 -0.00170561 -5.60046e-16)
(1.0007 -0.00169052 1.12794e-16)
(1.00089 -0.00163035 -4.90079e-16)
(1.00108 -0.00147619 2.6557e-16)
(1.00121 -0.00120021 -1.08409e-16)
(0.999822 0.000179736 3.32399e-17)
(0.999797 -6.22508e-05 7.18836e-17)
(0.99978 -0.000308325 -3.58929e-16)
(0.999776 -0.000561391 2.88353e-16)
(0.999796 -0.000813077 -2.7992e-16)
(0.999841 -0.00105541 -3.72914e-16)
(0.99992 -0.00127638 -3.82866e-16)
(1.00003 -0.00146679 3.37529e-16)
(1.00018 -0.00161361 7.18705e-16)
(1.00036 -0.0017125 1.62974e-16)
(1.00055 -0.00175503 9.46816e-17)
(1.00078 -0.00173446 7.00691e-17)
(1.00098 -0.00166709 -7.32677e-16)
(1.00117 -0.00150682 6.43722e-17)
(1.00132 -0.00122063 6.32139e-16)
(0.9998 0.000190281 -8.96635e-17)
(0.999775 -6.61176e-05 -9.23923e-17)
(0.999763 -0.000326333 3.42828e-17)
(0.999765 -0.000592152 -2.6431e-16)
(0.999794 -0.000854398 -1.79631e-17)
(0.999849 -0.00110465 4.81568e-16)
(0.99994 -0.00133084 5.50616e-17)
(1.00006 -0.00152406 3.04009e-16)
(1.00022 -0.00167157 -6.02705e-16)
(1.00041 -0.00176913 -3.09578e-16)
(1.00062 -0.00180882 4.44452e-16)
(1.00085 -0.0017835 -1.49009e-16)
(1.00106 -0.00170907 4.83523e-16)
(1.00126 -0.00154223 7.49171e-16)
(1.00142 -0.00124398 -5.97873e-17)
(0.999777 0.000200583 2.80894e-17)
(0.999753 -7.01282e-05 1.14749e-17)
(0.999743 -0.000344501 1.1561e-16)
(0.999751 -0.00062323 2.25873e-18)
(0.999789 -0.000896412 9.88469e-17)
(0.999854 -0.00115515 -2.89578e-16)
(0.999956 -0.00138728 5.98103e-16)
(1.00009 -0.00158402 -1.53446e-16)
(1.00026 -0.00173284 6.52287e-16)
(1.00046 -0.00182957 -3.41219e-16)
(1.00068 -0.00186669 -5.43277e-16)
(1.00092 -0.00183663 5.2431e-16)
(1.00114 -0.00175441 -8.83929e-16)
(1.00135 -0.00157952 -1.30174e-15)
(1.00153 -0.001267 -3.29225e-16)
(0.999754 0.000210706 3.12747e-18)
(0.999728 -7.42345e-05 1.94974e-17)
(0.999722 -0.000362751 -3.12122e-17)
(0.999736 -0.000654485 1.58646e-16)
(0.999781 -0.000938886 1.08804e-16)
(0.999857 -0.00120659 -4.26631e-17)
(0.99997 -0.00144525 -3.60514e-16)
(1.00012 -0.00164607 -3.47511e-16)
(1.0003 -0.00179664 -2.3488e-16)
(1.00052 -0.00189269 4.32799e-16)
(1.00075 -0.00192701 3.35327e-16)
(1.00099 -0.0018916 -4.92983e-16)
(1.00123 -0.00180041 1.095e-15)
(1.00145 -0.00161581 1.37164e-15)
(1.00164 -0.00128781 4.6317e-17)
(0.999729 0.00022071 3.57618e-17)
(0.999703 -7.83953e-05 -4.7595e-17)
(0.999699 -0.000381003 2.29414e-16)
(0.999719 -0.000685738 -4.56887e-17)
(0.999772 -0.000981467 -1.74367e-16)
(0.999858 -0.00125837 7.39186e-17)
(0.999982 -0.0015039 -1.29674e-16)
(1.00014 -0.00170909 2.93405e-16)
(1.00034 -0.00186152 7.71219e-17)
(1.00057 -0.00195673 5.39085e-17)
(1.00081 -0.00198769 -2.5717e-16)
(1.00107 -0.00194612 3.41342e-16)
(1.00131 -0.00184493 1.7396e-16)
(1.00154 -0.00164956 1.55378e-16)
(1.00175 -0.00130647 3.93375e-16)
(0.999702 0.000230662 -1.83846e-17)
(0.999676 -8.25714e-05 2.72455e-17)
(0.999676 -0.000399193 -3.71879e-16)
(0.999701 -0.000716837 -2.37909e-16)
(0.999762 -0.00102383 3.29253e-16)
(0.999858 -0.00130994 -8.91312e-17)
(0.999994 -0.00156238 5.20623e-16)
(1.00017 -0.00177194 -1.41342e-16)
(1.00038 -0.0019261 -7.50826e-18)
(1.00062 -0.00202012 -1.49906e-16)
(1.00087 -0.00204714 3.84877e-16)
(1.00114 -0.00199876 -2.42562e-16)
(1.0014 -0.00188709 -7.97267e-16)
(1.00164 -0.00168081 -1.89707e-16)
(1.00186 -0.00132433 -4.49338e-16)
(0.999675 0.000240623 2.47483e-17)
(0.999648 -8.67406e-05 1.12564e-16)
(0.999651 -0.000417297 3.35178e-16)
(0.999682 -0.000747717 2.60118e-16)
(0.999751 -0.00106582 -3.20629e-17)
(0.999857 -0.00136096 -1.30236e-16)
(1.00001 -0.00162016 -5.76349e-16)
(1.00019 -0.00183391 -6.70051e-17)
(1.00041 -0.00198956 -3.42281e-16)
(1.00067 -0.00208208 1.10847e-16)
(1.00094 -0.00210481 -7.05444e-16)
(1.00122 -0.00204939 3.40257e-16)
(1.00148 -0.00192743 1.14855e-15)
(1.00173 -0.00171093 -8.85154e-16)
(1.00196 -0.00134332 5.23803e-16)
(0.999646 0.000250651 -1.99557e-17)
(0.999618 -9.08842e-05 -1.58382e-16)
(0.999625 -0.000435322 -1.9183e-16)
(0.999663 -0.000778405 -9.56706e-17)
(0.999741 -0.00110745 -6.12679e-17)
(0.999857 -0.00141144 8.41069e-17)
(1.00002 -0.00167719 -3.22045e-17)
(1.00022 -0.00189494 -4.42314e-16)
(1.00045 -0.00205191 -1.30173e-16)
(1.00072 -0.0021428 -3.27753e-17)
(1.001 -0.0021612 6.42088e-16)
(1.00129 -0.00209899 1.07374e-16)
(1.00157 -0.00196743 -9.54907e-16)
(1.00183 -0.00174175 5.06515e-16)
(1.00207 -0.00136486 -1.01392e-16)
(0.999616 0.000260794 1.80265e-17)
(0.999588 -9.49953e-05 9.31234e-17)
(0.999598 -0.000453307 9.23279e-17)
(0.999642 -0.000809009 1.79545e-16)
(0.999729 -0.00114894 -9.78174e-17)
(0.999857 -0.00146166 -2.75111e-17)
(1.00003 -0.00173386 1.98763e-16)
(1.00024 -0.00195553 2.96985e-16)
(1.00049 -0.0021138 -2.13952e-17)
(1.00077 -0.00220318 -3.58473e-16)
(1.00107 -0.00221753 -2.75518e-16)
(1.00137 -0.00214906 -4.84232e-16)
(1.00166 -0.00200872 2.03156e-17)
(1.00193 -0.00177476 2.62261e-16)
(1.00217 -0.00138962 -1.58499e-16)
(0.999584 0.000271098 -9.6387e-18)
(0.999556 -9.90617e-05 -5.51079e-17)
(0.999569 -0.000471295 1.40216e-16)
(0.99962 -0.000839667 1.47039e-17)
(0.999717 -0.00119054 -1.24517e-16)
(0.999856 -0.00151207 1.00404e-16)
(1.00004 -0.0017908 -4.79592e-17)
(1.00027 -0.00201648 2.73822e-16)
(1.00053 -0.00217623 5.05885e-16)
(1.00083 -0.0022644 7.85557e-17)
(1.00113 -0.00227511 2.37756e-16)
(1.00145 -0.00220094 2.41959e-16)
(1.00175 -0.00205244 5.97148e-17)
(1.00202 -0.0018106 -5.39711e-16)
(1.00228 -0.00141694 1.30666e-16)
(0.999551 0.000281596 1.29111e-17)
(0.999522 -0.000103075 1.16067e-17)
(0.999539 -0.000489328 -2.86458e-16)
(0.999597 -0.000870508 -1.25136e-16)
(0.999702 -0.00123252 1.75918e-16)
(0.999853 -0.0015631 -2.74583e-17)
(1.00005 -0.0018486 1.83626e-16)
(1.00029 -0.00207856 -2.43873e-16)
(1.00057 -0.00224009 1.39001e-16)
(1.00088 -0.00232739 1.15597e-16)
(1.0012 -0.00233484 1.21995e-16)
(1.00152 -0.00225533 1.55207e-16)
(1.00184 -0.00209888 2.15688e-16)
(1.00212 -0.00184895 3.0344e-17)
(1.00238 -0.00144597 7.68575e-17)
(0.999516 0.000292318 -3.97242e-17)
(0.999488 -0.000107018 1.05105e-16)
(0.999508 -0.000507422 1.64478e-16)
(0.999572 -0.000901611 -1.05277e-16)
(0.999687 -0.00127506 -6.84367e-17)
(0.999848 -0.00161502 3.89486e-17)
(1.00006 -0.00190766 -2.00047e-16)
(1.00031 -0.00214224 -1.30882e-16)
(1.00061 -0.00230588 -1.71897e-16)
(1.00093 -0.00239258 2.73166e-16)
(1.00126 -0.00239695 -3.789e-16)
(1.0016 -0.00231214 2.95875e-16)
(1.00192 -0.00214755 1.44863e-16)
(1.00222 -0.00188889 5.41841e-16)
(1.00248 -0.00147544 -4.95098e-16)
(0.999479 0.000303278 1.6762e-17)
(0.999452 -0.000110876 -7.91099e-17)
(0.999475 -0.000525581 5.79179e-17)
(0.999545 -0.000933002 1.2809e-16)
(0.999669 -0.00131819 -8.87953e-17)
(0.999841 -0.00166791 -1.50054e-16)
(1.00007 -0.00196806 -7.10383e-17)
(1.00033 -0.0022076 9.78875e-17)
(1.00064 -0.00237358 -4.47702e-16)
(1.00097 -0.00245983 6.6046e-17)
(1.00132 -0.00246108 2.5175e-16)
(1.00167 -0.00237071 -7.03435e-16)
(1.00201 -0.00219752 1.4198e-16)
(1.00232 -0.00192941 2.17292e-17)
(1.00259 -0.0015045 3.65078e-16)
(0.999441 0.000314486 -6.37235e-18)
(0.999414 -0.00011463 9.69568e-17)
(0.999441 -0.000543785 -9.36669e-17)
(0.999517 -0.00096465 -5.81316e-17)
(0.999649 -0.00136186 -9.27046e-17)
(0.999833 -0.00172166 -4.90197e-17)
(1.00007 -0.00202962 -1.05687e-16)
(1.00035 -0.00227435 7.54475e-17)
(1.00067 -0.00244279 2.9015e-17)
(1.00102 -0.00252855 -3.09969e-16)
(1.00139 -0.00252646 -3.69705e-16)
(1.00175 -0.00243014 4.10016e-16)
(1.0021 -0.0022479 -3.57762e-16)
(1.00241 -0.00196974 -1.13846e-16)
(1.0027 -0.00153306 -1.11841e-17)
(0.999402 0.000325938 -1.92824e-17)
(0.999375 -0.000118273 -4.47896e-17)
(0.999405 -0.000562017 3.16316e-17)
(0.999487 -0.000996507 2.25382e-16)
(0.999628 -0.00140596 3.76354e-16)
(0.999823 -0.00177607 3.07216e-16)
(1.00007 -0.00209204 3.3562e-16)
(1.00037 -0.00234206 -2.14088e-16)
(1.0007 -0.00251295 7.11018e-20)
(1.00107 -0.00259809 2.3213e-16)
(1.00145 -0.00259237 4.57026e-17)
(1.00182 -0.00248975 2.51931e-16)
(1.00218 -0.00229814 2.02369e-16)
(1.00251 -0.00200968 -5.29883e-16)
(1.0028 -0.00156141 -3.47216e-16)
(0.999361 0.000337624 9.921e-18)
(0.999334 -0.000121795 -8.09527e-17)
(0.999367 -0.000580259 -1.61916e-16)
(0.999456 -0.00102852 -1.58922e-16)
(0.999605 -0.00145037 1.46039e-17)
(0.999812 -0.00183091 -1.73442e-16)
(1.00007 -0.00215498 -3.77595e-16)
(1.00039 -0.00241031 2.88169e-16)
(1.00074 -0.00258358 2.34338e-16)
(1.00112 -0.00266793 -5.16624e-16)
(1.00151 -0.00265838 4.23699e-16)
(1.0019 -0.00254924 -3.08792e-16)
(1.00227 -0.00234822 -1.42282e-16)
(1.00261 -0.00204953 -1.24324e-16)
(1.00291 -0.00159012 1.47933e-16)
(0.999318 0.000349524 3.77655e-17)
(0.999292 -0.000125206 1.73701e-17)
(0.999328 -0.000598514 8.75738e-17)
(0.999423 -0.00106068 4.06758e-17)
(0.999582 -0.00149503 4.78501e-17)
(0.9998 -0.00188608 2.99963e-16)
(1.00008 -0.00221827 -1.35517e-16)
(1.0004 -0.00247888 1.48064e-16)
(1.00077 -0.00265444 8.50016e-17)
(1.00116 -0.00273791 5.92317e-17)
(1.00157 -0.00272445 1.97269e-16)
(1.00197 -0.00260878 -4.20475e-17)
(1.00236 -0.00239853 9.34174e-18)
(1.00271 -0.00208988 8.67192e-16)
(1.00301 -0.00161981 2.7527e-18)
(0.999274 0.000361619 -3.66568e-17)
(0.999249 -0.000128513 -1.2659e-17)
(0.999288 -0.000616794 5.72547e-17)
(0.999389 -0.00109298 -1.74551e-16)
(0.999557 -0.00153992 -2.79554e-16)
(0.999787 -0.00194154 -2.67825e-16)
(1.00008 -0.00228189 2.26901e-16)
(1.00042 -0.00254777 -8.29775e-17)
(1.0008 -0.00272561 9.6734e-18)
(1.00121 -0.0028082 -5.00735e-18)
(1.00163 -0.00279088 -2.72494e-16)
(1.00205 -0.00266883 -2.46194e-16)
(1.00244 -0.00244963 -1.58697e-16)
(1.00281 -0.00213128 2.40612e-17)
(1.00312 -0.00165071 -5.41901e-17)
(0.999228 0.000373879 -1.83003e-17)
(0.999204 -0.00013174 4.84292e-17)
(0.999247 -0.000635129 4.76438e-17)
(0.999354 -0.00112546 7.75258e-17)
(0.999531 -0.00158512 1.06026e-16)
(0.999773 -0.0019974 1.6753e-18)
(1.00008 -0.00234596 2.26795e-16)
(1.00043 -0.00261717 -5.0564e-16)
(1.00083 -0.00279734 2.57803e-16)
(1.00126 -0.00287916 2.62883e-16)
(1.00169 -0.00285813 -3.76002e-16)
(1.00212 -0.0027299 7.02011e-16)
(1.00253 -0.00250199 3.694e-16)
(1.00291 -0.00217404 -6.87904e-16)
(1.00322 -0.00168287 -2.04336e-16)
(0.999181 0.000386283 3.78437e-17)
(0.999158 -0.000134906 2.93823e-17)
(0.999204 -0.000653551 4.58754e-18)
(0.999318 -0.00115819 -3.47531e-17)
(0.999504 -0.0016307 2.01571e-17)
(0.999758 -0.00205378 2.84379e-16)
(1.00008 -0.00241068 -4.58342e-17)
(1.00045 -0.00268734 3.24482e-16)
(1.00086 -0.00286998 -4.80107e-17)
(1.0013 -0.00295118 -2.90769e-16)
(1.00175 -0.00292662 6.01521e-16)
(1.0022 -0.00279235 -3.60891e-16)
(1.00262 -0.00255582 -4.88375e-16)
(1.003 -0.00221818 2.06314e-16)
(1.00333 -0.00171595 3.44396e-16)
(0.999133 0.000398803 -3.14703e-17)
(0.99911 -0.000138042 -1.32656e-17)
(0.999159 -0.000672101 -1.7297e-16)
(0.99928 -0.00119123 -8.45238e-17)
(0.999476 -0.00167676 5.2048e-17)
(0.999741 -0.00211082 -2.87089e-16)
(1.00007 -0.00247623 -8.43836e-17)
(1.00046 -0.00275851 2.82796e-16)
(1.00089 -0.00294379 -2.39132e-16)
(1.00135 -0.00302453 7.01167e-17)
(1.00181 -0.00299656 -3.3495e-16)
(1.00227 -0.00285629 1.05326e-17)
(1.00271 -0.00261108 2.64338e-16)
(1.0031 -0.00226346 1.38999e-16)
(1.00344 -0.00174966 -5.40833e-17)
(0.999083 0.000411421 3.00216e-17)
(0.999061 -0.00014117 -9.73961e-17)
(0.999113 -0.00069081 8.17513e-17)
(0.99924 -0.00122461 5.35017e-17)
(0.999446 -0.00172337 -4.03359e-17)
(0.999723 -0.0021686 -1.72446e-16)
(1.00007 -0.00254272 5.22791e-17)
(1.00047 -0.00283081 -1.29654e-16)
(1.00092 -0.00301887 -2.18565e-16)
(1.00139 -0.00309927 -2.73079e-17)
(1.00187 -0.00306791 -4.84037e-16)
(1.00235 -0.00292156 4.95217e-16)
(1.00279 -0.0026675 3.84764e-17)
(1.0032 -0.00230953 -7.93562e-17)
(1.00354 -0.00178364 -7.70866e-18)
(0.999032 0.000424116 -3.68226e-17)
(0.99901 -0.00014432 1.00262e-16)
(0.999066 -0.000709708 -2.30302e-17)
(0.999199 -0.00125836 -2.09773e-16)
(0.999414 -0.00177054 -9.99403e-17)
(0.999704 -0.00222714 1.16086e-16)
(1.00006 -0.00261016 -1.70313e-16)
(1.00048 -0.00290421 -1.90748e-16)
(1.00094 -0.00309519 3.24566e-16)
(1.00143 -0.00317529 1.12918e-16)
(1.00193 -0.00314051 5.07889e-16)
(1.00242 -0.00298793 -3.81898e-16)
(1.00288 -0.00272479 1.37178e-16)
(1.0033 -0.00235615 -1.54363e-16)
(1.00365 -0.00181787 5.13916e-18)
(0.99898 0.000436877 2.27911e-17)
(0.998958 -0.000147515 -5.80201e-17)
(0.999017 -0.000728816 7.20648e-17)
(0.999157 -0.00129251 3.12559e-16)
(0.999381 -0.00181828 1.32623e-16)
(0.999683 -0.00228642 8.22705e-17)
(1.00006 -0.0026785 3.38276e-16)
(1.00049 -0.00297864 1.60734e-16)
(1.00097 -0.00317259 -2.64697e-16)
(1.00148 -0.0032524 4.50925e-16)
(1.00199 -0.00321412 2.50706e-16)
(1.0025 -0.00305516 -2.1213e-16)
(1.00297 -0.00278276 -4.05606e-16)
(1.0034 -0.00240324 -1.57526e-16)
(1.00376 -0.00185244 6.07285e-17)
(0.998927 0.000449689 4.67965e-18)
(0.998904 -0.000150783 -1.23612e-16)
(0.998966 -0.000748158 -9.17274e-17)
(0.999113 -0.00132705 -2.15212e-16)
(0.999347 -0.00186658 3.45653e-17)
(0.999661 -0.00234641 -3.34097e-16)
(1.00005 -0.00274765 -3.59129e-16)
(1.0005 -0.00305398 -1.44437e-16)
(1.00099 -0.00325094 3.07653e-16)
(1.00152 -0.00333045 -3.26733e-16)
(1.00205 -0.0032886 1.15499e-16)
(1.00257 -0.00312315 2.14664e-16)
(1.00306 -0.00284143 3.25774e-16)
(1.0035 -0.00245094 1.98693e-16)
(1.00386 -0.00188763 1.68459e-17)
(0.998872 0.000462546 3.28935e-17)
(0.998849 -0.000154146 2.02032e-16)
(0.998914 -0.000767751 9.40216e-17)
(0.999067 -0.00136201 1.8067e-16)
(0.999311 -0.00191545 1.08236e-16)
(0.999637 -0.00240708 4.56266e-17)
(1.00004 -0.00281759 5.26233e-17)
(1.00051 -0.00313017 -1.20883e-16)
(1.00102 -0.00333018 -1.22563e-16)
(1.00156 -0.0034094 1.436e-17)
(1.00211 -0.00336396 -7.89257e-16)
(1.00264 -0.00319197 -3.08163e-16)
(1.00314 -0.00290092 3.23925e-16)
(1.0036 -0.00249944 -7.22032e-17)
(1.00397 -0.0019236 -1.99689e-16)
(0.998816 0.000475439 -4.42105e-17)
(0.998792 -0.000157628 -1.29467e-16)
(0.99886 -0.000787619 -1.8592e-16)
(0.99902 -0.0013974 6.10711e-17)
(0.999273 -0.00196488 -2.05348e-16)
(0.999613 -0.00246846 3.8249e-17)
(1.00003 -0.00288833 -4.73337e-17)
(1.00051 -0.00320724 -8.63762e-18)
(1.00104 -0.00341036 -1.46451e-16)
(1.0016 -0.00348933 -7.6774e-17)
(1.00217 -0.00344033 2.71858e-17)
(1.00272 -0.00326184 2.67619e-16)
(1.00323 -0.0029615 -1.34845e-16)
(1.0037 -0.00254902 2.66054e-16)
(1.00408 -0.00196053 9.39017e-17)
(0.998759 0.000488365 2.36289e-17)
(0.998733 -0.000161249 1.24028e-16)
(0.998805 -0.000807781 2.36205e-16)
(0.998971 -0.00143324 -6.82435e-17)
(0.999235 -0.00201493 -1.6555e-17)
(0.999586 -0.00253058 2.50628e-16)
(1.00002 -0.00295995 2.13082e-16)
(1.00052 -0.0032853 -1.45976e-16)
(1.00107 -0.00349163 3.91017e-16)
(1.00164 -0.00357042 3.54669e-16)
(1.00222 -0.00351794 3.77052e-16)
(1.00279 -0.00333298 -1.74083e-17)
(1.00332 -0.00302336 -2.98925e-16)
(1.0038 -0.00259978 -3.1379e-16)
(1.00418 -0.00199836 -3.01972e-17)
(0.998699 0.000501319 -2.02473e-17)
(0.998673 -0.00016503 -6.54959e-17)
(0.998748 -0.000828262 -1.95776e-16)
(0.998921 -0.00146957 1.25981e-16)
(0.999194 -0.00206565 1.20868e-16)
(0.999559 -0.00259354 -1.67809e-16)
(1.00001 -0.00303257 -8.47065e-17)
(1.00052 -0.0033645 8.37628e-18)
(1.00109 -0.00357415 -1.73779e-16)
(1.00168 -0.00365288 -3.03882e-16)
(1.00228 -0.00359698 -5.60562e-16)
(1.00286 -0.00340558 6.05211e-17)
(1.00341 -0.00308662 3.64956e-16)
(1.0039 -0.00265177 3.30284e-16)
(1.00429 -0.00203702 -6.93801e-17)
(0.998639 0.0005143 -1.61121e-17)
(0.998611 -0.000168981 -1.31744e-17)
(0.998689 -0.000849076 1.71323e-16)
(0.998869 -0.00150642 -1.61632e-16)
(0.999152 -0.00211707 -3.19359e-16)
(0.99953 -0.00265741 1.54967e-16)
(0.999993 -0.00310628 8.79242e-17)
(1.00053 -0.00344497 4.07077e-16)
(1.00111 -0.00365809 5.81905e-17)
(1.00172 -0.00373685 2.8294e-16)
(1.00234 -0.00367757 8.39988e-16)
(1.00294 -0.00347968 -2.30382e-16)
(1.0035 -0.00315125 -9.77522e-17)
(1.004 -0.00270483 -1.15346e-17)
(1.0044 -0.00207623 -2.76312e-17)
(0.998576 0.000527302 4.50605e-17)
(0.998548 -0.000173117 4.92207e-17)
(0.998629 -0.000870241 -1.47346e-16)
(0.998815 -0.0015438 1.36862e-16)
(0.999109 -0.00216923 -9.21054e-17)
(0.999499 -0.00272223 -2.965e-16)
(0.999977 -0.00318115 1.30271e-17)
(1.00053 -0.00352679 -3.50151e-17)
(1.00113 -0.00374352 -2.15819e-16)
(1.00176 -0.00382238 1.8188e-16)
(1.0024 -0.00375972 -7.84059e-16)
(1.00301 -0.00355523 -1.42654e-17)
(1.00358 -0.00321711 -1.746e-16)
(1.0041 -0.00275881 3.25914e-17)
(1.00451 -0.0021159 -8.18535e-17)
(0.998512 0.000540327 -1.14985e-17)
(0.998483 -0.000177441 -1.17279e-17)
(0.998567 -0.00089176 2.03888e-17)
(0.99876 -0.00158172 -1.52196e-16)
(0.999063 -0.00222216 -2.73194e-17)
(0.999467 -0.00278804 3.62038e-16)
(0.999961 -0.00325722 -2.63813e-16)
(1.00053 -0.00360996 -3.26705e-16)
(1.00115 -0.00383041 3.49756e-16)
(1.0018 -0.00390942 -3.16388e-16)
(1.00245 -0.00384332 4.00331e-16)
(1.00308 -0.00363208 3.78629e-16)
(1.00367 -0.00328405 2.7261e-16)
(1.0042 -0.00281354 -1.81298e-16)
(1.00462 -0.00215591 -6.16951e-17)
(0.998446 0.000553368 -1.24007e-17)
(0.998416 -0.000181958 -7.19619e-17)
(0.998504 -0.000913641 -9.68911e-17)
(0.998703 -0.00162019 7.11042e-17)
(0.999016 -0.00227583 1.80188e-16)
(0.999433 -0.00285481 6.31917e-17)
(0.999942 -0.00333444 2.45175e-16)
(1.00053 -0.00369445 5.35817e-17)
(1.00117 -0.00391872 -4.5985e-16)
(1.00183 -0.00399788 1.6088e-16)
(1.00251 -0.00392828 -2.27362e-16)
(1.00316 -0.00371012 -1.88796e-16)
(1.00376 -0.00335196 -2.54208e-16)
(1.00431 -0.00286896 4.01488e-17)
(1.00473 -0.00219638 1.49014e-16)
(0.998378 0.000566425 -1.90339e-17)
(0.998348 -0.000186664 3.42759e-17)
(0.998438 -0.000935882 4.13779e-17)
(0.998645 -0.0016592 -1.42516e-16)
(0.998968 -0.00233025 6.95414e-17)
(0.999398 -0.00292251 -2.10967e-16)
(0.999923 -0.00341277 -2.58403e-17)
(1.00053 -0.00378019 3.17202e-16)
(1.00118 -0.00400833 -2.02287e-16)
(1.00187 -0.00408766 -2.67355e-16)
(1.00256 -0.00401446 2.29585e-16)
(1.00323 -0.00378924 -6.81335e-17)
(1.00385 -0.00342079 -7.20302e-16)
(1.00441 -0.00292511 7.34561e-17)
(1.00485 -0.00223735 1.07195e-16)
(0.998308 0.000579492 -9.79713e-18)
(0.998278 -0.000191563 3.34328e-17)
(0.998371 -0.000958487 1.25947e-17)
(0.998584 -0.00169876 1.89983e-17)
(0.998918 -0.00238539 1.20003e-16)
(0.999361 -0.00299112 6.66748e-17)
(0.999902 -0.00349217 -2.19568e-16)
(1.00052 -0.00386711 -2.00484e-17)
(1.0012 -0.0040992 6.05888e-16)
(1.00191 -0.00417869 -1.94295e-16)
(1.00262 -0.00410186 -5.71247e-18)
(1.00331 -0.00386948 2.87219e-17)
(1.00394 -0.00349061 2.77373e-17)
(1.00451 -0.0029821 -5.08633e-17)
(1.00496 -0.00227905 1.69209e-17)
(0.998237 0.000592569 2.58176e-17)
(0.998206 -0.000196645 -6.81967e-17)
(0.998303 -0.000981456 -7.78892e-17)
(0.998523 -0.00173886 1.49894e-19)
(0.998867 -0.00244127 -1.81201e-16)
(0.999323 -0.00306063 -2.89328e-17)
(0.999881 -0.00357262 4.26348e-17)
(1.00052 -0.00395521 -4.82705e-17)
(1.00122 -0.00419133 -4.102e-16)
(1.00194 -0.004271 5.46078e-16)
(1.00268 -0.00419052 -3.11597e-17)
(1.00338 -0.00395092 -5.70445e-17)
(1.00403 -0.00356156 3.36151e-16)
(1.00462 -0.00304009 -3.76814e-16)
(1.00507 -0.00232155 7.94616e-18)
(0.998163 0.000605652 2.73934e-18)
(0.998133 -0.000201912 8.18124e-17)
(0.998233 -0.0010048 2.19849e-16)
(0.998459 -0.00177953 -5.54348e-17)
(0.998814 -0.00249789 1.1776e-16)
(0.999284 -0.00313107 -1.82964e-16)
(0.999858 -0.00365417 -2.19086e-16)
(1.00052 -0.00404454 5.26e-18)
(1.00123 -0.00428478 2.38832e-16)
(1.00198 -0.0043647 -4.76614e-16)
(1.00273 -0.00428057 1.18698e-16)
(1.00346 -0.00403373 -2.06275e-17)
(1.00412 -0.0036338 2.59679e-16)
(1.00472 -0.00309923 8.02134e-17)
(1.00519 -0.00236501 -1.24748e-16)
(0.998088 0.000618743 1.05268e-18)
(0.998058 -0.000207355 -8.87937e-17)
(0.998161 -0.00102852 -1.25474e-16)
(0.998394 -0.00182078 2.07648e-17)
(0.998759 -0.0025553 -2.18779e-17)
(0.999243 -0.0032025 1.66081e-16)
(0.999834 -0.00373688 3.59709e-16)
(1.00051 -0.00413518 -3.1903e-16)
(1.00125 -0.00437967 3.62846e-16)
(1.00202 -0.00445991 3.20718e-17)
(1.00279 -0.00437217 7.11587e-17)
(1.00353 -0.00411806 -1.3741e-16)
(1.00422 -0.00370745 2.65229e-16)
(1.00483 -0.0031596 1.50255e-16)
(1.0053 -0.00240932 1.95979e-16)
(0.998011 0.00063184 -8.60939e-18)
(0.997981 -0.000212974 8.47e-17)
(0.998087 -0.00105264 1.54547e-16)
(0.998327 -0.00186264 5.33905e-17)
(0.998703 -0.00261355 1.56141e-16)
(0.999201 -0.00327498 1.19904e-16)
(0.999809 -0.00382085 -3.23021e-16)
(1.0005 -0.00422727 6.47097e-16)
(1.00126 -0.00447614 -2.03531e-16)
(1.00205 -0.00455679 -6.76955e-17)
(1.00284 -0.00446546 -2.44993e-16)
(1.00361 -0.00420401 -1.0757e-16)
(1.00431 -0.0037826 -2.95169e-16)
(1.00493 -0.00322121 -1.08708e-16)
(1.00542 -0.00245454 4.71333e-17)
(0.997933 0.000644951 -3.05744e-17)
(0.997902 -0.000218762 -9.05796e-17)
(0.998011 -0.00107715 -1.08388e-17)
(0.998259 -0.00190515 1.06211e-16)
(0.998645 -0.00267269 -1.42099e-16)
(0.999158 -0.00334859 -1.04332e-16)
(0.999782 -0.00390618 4.04218e-16)
(1.0005 -0.00432091 -1.20719e-16)
(1.00127 -0.0045743 -5.15669e-16)
(1.00209 -0.00465544 7.09628e-17)
(1.0029 -0.00456052 -1.24389e-16)
(1.00368 -0.00429165 2.301e-16)
(1.0044 -0.00385924 3.68482e-16)
(1.00504 -0.00328402 3.28121e-16)
(1.00553 -0.00250052 -2.74683e-16)
(0.997852 0.000658079 1.83364e-18)
(0.997821 -0.000224718 -1.7472e-17)
(0.997934 -0.00110209 -7.23176e-17)
(0.998189 -0.00194834 4.5072e-17)
(0.998586 -0.00273277 -7.87905e-17)
(0.999112 -0.00342341 1.34366e-16)
(0.999755 -0.00399295 -1.16152e-16)
(1.00049 -0.00441619 3.98519e-17)
(1.00129 -0.00467425 -1.08079e-16)
(1.00212 -0.00475594 2.74948e-16)
(1.00295 -0.00465741 3.36366e-16)
(1.00376 -0.00438098 1.94349e-18)
(1.00449 -0.00393736 -5.86444e-16)
(1.00515 -0.00334801 -3.98954e-16)
(1.00565 -0.00254731 2.71751e-16)