/*--------------------------------*- C++ -*----------------------------------*\
  =========                 |
  \\      /  F ield         | OpenFOAM: The Open Source CFD Toolbox
   \\    /   O peration     | Website:  https://openfoam.org
    \\  /    A nd           | Version:  6.0
     \\/     M anipulation  |
\*---------------------------------------------------------------------------*/
FoamFile
{
    version     2.0;
    format      ascii;
    class       surfaceScalarField;
    location    "52";
    object      phi;
}
// * * * * * * * * * * * * * * * * * * * * * * * * * * * * * * * * * * * * * //

dimensions      [0 3 -1 0 0 0 0];

internalField   nonuniform List<scalar> 
3880
(
-1.7976e-05
1.79763e-05
-3.40084e-10
-5.34937e-05
3.55184e-05
-6.40023e-10
-9.5386e-05
4.18931e-05
-7.60971e-10
-0.000136588
4.12029e-05
-7.72958e-10
-0.00017274
3.61523e-05
-7.13796e-10
-0.00020143
2.86905e-05
-6.08173e-10
-0.000221725
2.0296e-05
-4.71485e-10
-0.000233864
1.21395e-05
-3.12735e-10
-0.000239054
5.19009e-06
-1.41306e-10
2.22364e-07
3.03987e-11
-0.000239277
-1.72974e-05
3.52737e-05
-5.08451e-05
6.90661e-05
-8.96144e-05
8.06624e-05
-0.000126653
7.82415e-05
-0.000157642
6.7141e-05
-0.000180136
5.11848e-05
-0.000193116
3.32761e-05
-0.00019672
1.57437e-05
-0.000192101
5.70419e-07
-1.0606e-05
-0.000181272
-1.5905e-05
5.11787e-05
-4.54314e-05
9.85925e-05
-7.78677e-05
0.000113099
-0.000106531
0.000106905
-0.000127228
8.78377e-05
-0.000137482
6.1439e-05
-0.000136117
3.1911e-05
-0.000123063
2.6902e-06
-9.93362e-05
-2.31564e-05
-4.29386e-05
-6.70035e-05
-1.37115e-05
6.48901e-05
-3.69706e-05
0.000121852
-5.96372e-05
0.000135765
-7.5536e-05
0.000122804
-8.07737e-05
9.30754e-05
-7.29296e-05
5.35949e-05
-5.0653e-05
9.63434e-06
-1.3559e-05
-3.44038e-05
3.76062e-05
-7.43216e-05
-0.000106085
0.000100752
-1.05535e-05
7.54436e-05
-2.49449e-05
0.000136243
-3.39532e-05
0.000144774
-3.22503e-05
0.000121101
-1.65501e-05
7.73752e-05
1.52736e-05
2.17712e-05
6.46309e-05
-3.97229e-05
0.000132284
-0.000102057
0.000217954
-0.000159991
-0.000207775
0.000319644
-6.1798e-06
8.16234e-05
-8.56595e-06
0.000138629
7.2128e-07
0.000135487
2.5747e-05
9.60749e-05
6.87379e-05
3.43843e-05
0.000131058
-4.05486e-05
0.000213791
-0.000122456
0.000317946
-0.000206212
0.000443945
-0.000285991
-0.000353889
0.000590059
-2.78625e-07
8.1902e-05
1.31418e-05
0.000125209
4.63786e-05
0.00010225
0.000101846
4.06074e-05
0.000180192
-4.39612e-05
0.000281302
-0.000141659
0.000405091
-0.000246245
0.000552117
-0.000353238
0.000723461
-0.000457335
-0.000548653
0.000918225
7.43372e-06
7.44683e-05
4.1061e-05
9.15815e-05
0.000104944
3.83667e-05
0.000199677
-5.41254e-05
0.000323967
-0.000168251
0.00047544
-0.000293132
0.000651482
-0.000422287
0.000850387
-0.000552143
0.00107262
-0.000679571
-0.000797589
0.00132156
1.70652e-05
5.74031e-05
7.55053e-05
3.31415e-05
0.000177309
-6.3437e-05
0.000321562
-0.000198379
0.000505317
-0.000352005
0.000723807
-0.000511622
0.000970758
-0.000669239
0.00123936
-0.000820743
0.00152585
-0.00096606
-0.00111589
0.00184415
2.83501e-05
2.9053e-05
0.00011556
-5.40682e-05
0.000261833
-0.000209711
0.000465769
-0.000402315
0.000724577
-0.000610813
0.00103379
-0.000820836
0.00138662
-0.00102207
0.00177226
-0.00120638
0.00217501
-0.00136882
-0.00151335
0.00257247
4.04746e-05
-1.14216e-05
0.000158373
-0.000171967
0.000352086
-0.000403423
0.000620348
-0.000670577
0.000962542
-0.000953007
0.00137936
-0.00123766
0.00187407
-0.00151677
0.00245575
-0.00178806
0.00314734
-0.00206041
-0.00237217
0.00400617
5.2359e-05
-6.37806e-05
0.000199953
-0.000319561
0.000438003
-0.000641473
0.000762998
-0.000995571
0.00117226
-0.00136227
0.00166392
-0.00172932
0.00223691
-0.00208976
0.00289038
-0.00244153
0.00361882
-0.00278886
-0.00314077
0.00438742
6.34846e-05
-0.000127265
0.00023825
-0.000494326
0.000514861
-0.000918084
0.00088531
-0.00136602
0.00134183
-0.00181879
0.0018763
-0.00226379
0.00247952
-0.00269297
0.00313969
-0.0031017
0.00383825
-0.00348741
-0.00384398
0.00454145
7.38712e-05
-0.000201136
0.000272988
-0.000693443
0.00058212
-0.00122722
0.000987485
-0.00177139
0.00147521
-0.00230652
0.0020307
-0.00281927
0.00263815
-0.00330043
0.00327987
-0.00374342
0.00393458
-0.00414213
-0.00448535
0.00457596
8.36625e-05
-0.000284799
0.000304313
-0.000914093
0.000640047
-0.00156295
0.00107069
-0.00220203
0.00157622
-0.00281205
0.00213646
-0.00337951
0.0027312
-0.00389518
0.00334036
-0.00435257
0.0039438
-0.00474557
-0.00506325
0.00452169
9.2848e-05
-0.000377647
0.000331966
-0.00115321
0.000688071
-0.00191906
0.00113437
-0.00264833
0.00164513
-0.00332281
0.00219582
-0.00393019
0.00276372
-0.00446307
0.00332854
-0.0049174
0.00387285
-0.00528988
-0.00557322
0.00438282
0.000101184
-0.000478831
0.000355066
-0.00140709
0.000724483
-0.00228847
0.00117614
-0.00309998
0.00167935
-0.00382603
0.00220662
-0.00445746
0.00273444
-0.00499089
0.00324398
-0.00542694
0.00372141
-0.00576732
-0.00601041
0.00415861
0.000108241
-0.000587073
0.000372269
-0.00167112
0.000746862
-0.00266307
0.0011927
-0.00354582
0.00167529
-0.00430862
0.00216569
-0.00494786
0.00264125
-0.00546645
0.0030859
-0.00587159
0.00349007
-0.00617148
-0.00637123
0.00385088
0.000113496
-0.000700568
0.00038206
-0.00193968
0.000752694
-0.0030337
0.00118098
-0.00397411
0.00163007
-0.00475771
0.00207123
-0.00538902
0.00248414
-0.00587936
0.00285648
-0.00624392
0.00318316
-0.00649817
-0.00665404
0.00346597
0.000116416
-0.000816984
0.000383025
-0.00220629
0.000739894
-0.00339057
0.0011389
-0.00437312
0.00154253
-0.00516133
0.00192389
-0.00577039
0.00226619
-0.00622166
0.00256143
-0.00653916
0.00280888
-0.00674562
-0.00685928
0.00301412
0.000116537
-0.00093352
0.00037406
-0.00246382
0.000707145
-0.00372365
0.00106577
-0.00473174
0.00141354
-0.00550911
0.00172689
-0.00608374
0.00199335
-0.00648812
0.00220937
-0.00675518
0.00237812
-0.00691437
-0.00698915
0.002508
0.000113457
-0.00104698
0.000354398
-0.00270476
0.000653936
-0.00402319
0.000962217
-0.00504002
0.00124578
-0.00579268
0.00148546
-0.00632341
0.00167352
-0.00667618
0.0018106
-0.00689226
0.00190303
-0.00700681
-0.00704716
0.00196104
0.000106917
-0.00115389
0.000323755
-0.0029216
0.000580684
-0.00428012
0.000830232
-0.00528957
0.00104342
-0.00600587
0.00120625
-0.00648624
0.0013157
-0.00678562
0.001376
-0.00695256
0.00139579
-0.0070266
-0.0070376
0.00138624
9.67703e-05
-0.00125066
0.000282254
-0.00310708
0.000488542
-0.00448641
0.000672711
-0.00547374
0.000811536
-0.00614469
0.000896524
-0.00657123
0.000928985
-0.00681809
0.000915979
-0.00693956
0.000867564
-0.00697818
-0.00696517
0.00079513
8.29983e-05
-0.00133366
0.000230411
-0.00325449
0.000379273
-0.00463527
0.000493178
-0.00558764
0.000555545
-0.00620706
0.000563394
-0.00657908
0.000521776
-0.00677647
0.000439703
-0.00685748
0.000327821
-0.0068663
-0.00683459
0.000197249
6.57187e-05
-0.00139938
0.000169111
-0.00335788
0.000255133
-0.00472129
0.000295521
-0.00562803
0.000280841
-0.00619238
0.000213373
-0.00651161
0.00010124
-0.00666434
-4.54357e-05
-0.00671081
-0.000216162
-0.00669557
-0.00665045
-0.000400304
4.52018e-05
-0.00144458
9.96139e-05
-0.0034123
0.000118829
-0.00474051
8.3891e-05
-0.00559309
-7.36736e-06
-0.00610112
-0.000147835
-0.00637114
-0.000326933
-0.00648524
-0.000534092
-0.00650365
-0.000759587
-0.00647008
-0.00641654
-0.000993502
2.18976e-05
-0.00146648
2.35915e-05
-0.00341399
-2.64505e-05
-0.00469047
-0.000137246
-0.00548229
-0.000303965
-0.0059344
-0.000515212
-0.0061599
-0.000758417
-0.00624203
-0.00102295
-0.00623912
-0.00130036
-0.00619267
-0.00613332
-0.00158358
-3.52378e-06
-0.00146296
-5.67994e-05
-0.00336072
-0.000176918
-0.00457035
-0.00036296
-0.00529625
-0.000603848
-0.00569351
-0.000884692
-0.00587905
-0.00119127
-0.00593546
-0.00151272
-0.00591766
-0.00184204
-0.00586335
-0.00579383
-0.00218153
-3.01076e-05
-0.00143285
-0.000138738
-0.00325209
-0.000327726
-0.00438136
-0.000586877
-0.0050371
-0.000900369
-0.00538002
-0.0012516
-0.00552782
-0.00162603
-0.00556103
-0.00201326
-0.00553043
-0.00240933
-0.00546728
-0.00540647
-0.00279669
-5.66202e-05
-0.00137623
-0.000218705
-0.00309
-0.000472465
-0.0041276
-0.000799079
-0.00471049
-0.00117942
-0.00499968
-0.00159758
-0.00510967
-0.00204225
-0.00511636
-0.00250616
-0.00506651
-0.00298843
-0.00498502
-0.00486994
-0.00352496
-8.1986e-05
-0.00129424
-0.000293655
-0.00287833
-0.000605383
-0.00381587
-0.000989448
-0.00432642
-0.00142231
-0.00456682
-0.00188592
-0.00464606
-0.00236727
-0.004635
-0.00285739
-0.00457639
-0.0033501
-0.00449231
-0.00439084
-0.0038292
-0.000105567
-0.00118868
-0.00036221
-0.00262169
-0.000725121
-0.00345296
-0.0011583
-0.00389325
-0.00163423
-0.00409089
-0.00213319
-0.0041471
-0.00264174
-0.00412645
-0.00315089
-0.00406724
-0.00365346
-0.00398974
-0.00390445
-0.00413984
-0.000127019
-0.00106166
-0.000423779
-0.00232493
-0.000831571
-0.00304517
-0.00130721
-0.00341761
-0.00182015
-0.00357795
-0.00234994
-0.00361731
-0.00288351
-0.00359288
-0.00341269
-0.00353806
-0.00393191
-0.00347052
-0.00339976
-0.0044366
-0.000146081
-0.000915576
-0.00047793
-0.00199308
-0.00092455
-0.00259855
-0.00143675
-0.0029054
-0.0019818
-0.0030329
-0.00253907
-0.00306004
-0.00309626
-0.00303569
-0.00364639
-0.00298793
-0.00418547
-0.00293145
-0.00287403
-0.0047112
-0.000162504
-0.000753072
-0.000524205
-0.00163138
-0.00100363
-0.00211913
-0.00154671
-0.00236232
-0.00211914
-0.00246047
-0.00270043
-0.00247876
-0.00327912
-0.00245699
-0.0038493
-0.00241775
-0.00440816
-0.00237259
-0.00232762
-0.00495457
-0.000176039
-0.000577033
-0.000562094
-0.00124532
-0.00106815
-0.00161308
-0.00163633
-0.00179414
-0.00223122
-0.00186558
-0.00283257
-0.00187741
-0.00342968
-0.00185989
-0.00401747
-0.00182996
-0.00459391
-0.00179615
-0.00176296
-0.00515857
-0.000186443
-0.000390591
-0.000591077
-0.000840689
-0.00111738
-0.00108677
-0.00170467
-0.00120685
-0.00231678
-0.00125346
-0.0029337
-0.00126049
-0.00354531
-0.00124828
-0.00414715
-0.00122812
-0.00473767
-0.00120563
-0.00118375
-0.00531689
-0.000193509
-0.000197082
-0.000610691
-0.000423507
-0.00115064
-0.000546821
-0.00175082
-0.000606671
-0.0023746
-0.000629678
-0.00300215
-0.000632941
-0.00362375
-0.000626683
-0.00423532
-0.000616547
-0.00483563
-0.000605316
-0.000594448
-0.00542493
-0.000197082
-1.33449e-10
-0.000620589
-2.13008e-10
-0.00116741
-2.52069e-10
-0.00177408
-2.86624e-10
-0.00240376
-3.23013e-10
-0.0030367
-3.61885e-10
-0.00366338
-3.99082e-10
-0.00427993
-4.26435e-10
-0.00488524
-4.40841e-10
-4.57782e-10
-0.00547969
-0.000197082
0.000197082
-0.000620589
0.000423507
-0.00116741
0.00054682
-0.00177408
0.00060667
-0.00240376
0.000629677
-0.0030367
0.00063294
-0.00366338
0.000626683
-0.00427993
0.000616546
-0.00488524
0.000605315
0.000594447
-0.00547969
-0.000193509
0.00039059
-0.000610691
0.000840689
-0.00115064
0.00108677
-0.00175082
0.00120685
-0.0023746
0.00125346
-0.00300215
0.00126049
-0.00362375
0.00124828
-0.00423532
0.00122812
-0.00483563
0.00120563
0.00118374
-0.00542493
-0.000186443
0.000577033
-0.000591077
0.00124532
-0.00111738
0.00161307
-0.00170467
0.00179414
-0.00231678
0.00186558
-0.0029337
0.00187741
-0.00354531
0.00185988
-0.00414715
0.00182996
-0.00473767
0.00179615
0.00176296
-0.00531689
-0.000176039
0.000753072
-0.000562094
0.00163138
-0.00106815
0.00211913
-0.00163633
0.00236232
-0.00223122
0.00246047
-0.00283257
0.00247875
-0.00342968
0.00245699
-0.00401747
0.00241775
-0.00459391
0.00237259
0.00232762
-0.00515857
-0.000162504
0.000915576
-0.000524205
0.00199308
-0.00100363
0.00259855
-0.00154671
0.0029054
-0.00211914
0.0030329
-0.00270043
0.00306004
-0.00327912
0.00303569
-0.0038493
0.00298793
-0.00440816
0.00293145
0.00287403
-0.00495457
-0.000146081
0.00106166
-0.00047793
0.00232493
-0.00092455
0.00304517
-0.00143675
0.0034176
-0.0019818
0.00357795
-0.00253907
0.00361731
-0.00309626
0.00359288
-0.00364639
0.00353806
-0.00418547
0.00347052
0.00339976
-0.0047112
-0.000127019
0.00118868
-0.000423779
0.00262169
-0.000831571
0.00345296
-0.00130721
0.00389324
-0.00182015
0.00409089
-0.00234994
0.0041471
-0.00288351
0.00412645
-0.00341269
0.00406724
-0.00393191
0.00398974
0.00390445
-0.0044366
-0.000105567
0.00129424
-0.00036221
0.00287833
-0.000725121
0.00381587
-0.0011583
0.00432642
-0.00163423
0.00456682
-0.00213319
0.00464606
-0.00264174
0.004635
-0.00315089
0.00457639
-0.00365346
0.00449231
0.00439084
-0.00413984
-8.1986e-05
0.00137623
-0.000293655
0.00309
-0.000605383
0.0041276
-0.000989448
0.00471049
-0.00142231
0.00499968
-0.00188592
0.00510967
-0.00236727
0.00511636
-0.00285739
0.00506651
-0.0033501
0.00498502
0.00486994
-0.0038292
-5.66202e-05
0.00143285
-0.000218705
0.00325208
-0.000472465
0.00438136
-0.000799079
0.0050371
-0.00117942
0.00538002
-0.00159758
0.00552782
-0.00204225
0.00556103
-0.00250616
0.00553043
-0.00298843
0.00546728
0.00540647
-0.00352496
-3.01076e-05
0.00146296
-0.000138738
0.00336071
-0.000327726
0.00457035
-0.000586877
0.00529625
-0.000900369
0.00569351
-0.0012516
0.00587905
-0.00162603
0.00593546
-0.00201326
0.00591766
-0.00240933
0.00586335
0.00579383
-0.00279669
-3.52378e-06
0.00146648
-5.67994e-05
0.00341399
-0.000176918
0.00469047
-0.00036296
0.00548229
-0.000603848
0.0059344
-0.000884692
0.0061599
-0.00119127
0.00624203
-0.00151272
0.00623912
-0.00184204
0.00619266
0.00613332
-0.00218153
2.18976e-05
0.00144458
2.35915e-05
0.0034123
-2.64504e-05
0.00474051
-0.000137246
0.00559309
-0.000303965
0.00610112
-0.000515212
0.00637114
-0.000758417
0.00648524
-0.00102295
0.00650365
-0.00130036
0.00647008
0.00641654
-0.00158358
4.52018e-05
0.00139938
9.96139e-05
0.00335788
0.00011883
0.00472129
8.38911e-05
0.00562803
-7.36726e-06
0.00619238
-0.000147834
0.00651161
-0.000326933
0.00666434
-0.000534092
0.00671081
-0.000759587
0.00669557
0.00665045
-0.000993502
6.57187e-05
0.00133366
0.000169111
0.00325449
0.000255133
0.00463527
0.000295521
0.00558764
0.000280841
0.00620706
0.000213373
0.00657908
0.00010124
0.00677647
-4.54356e-05
0.00685748
-0.000216162
0.0068663
0.00683459
-0.000400304
8.29983e-05
0.00125066
0.000230411
0.00310708
0.000379273
0.00448641
0.000493178
0.00547374
0.000555545
0.00614469
0.000563394
0.00657123
0.000521777
0.00681809
0.000439703
0.00693956
0.000327821
0.00697818
0.00696516
0.000197249
9.67703e-05
0.00115389
0.000282254
0.0029216
0.000488542
0.00428012
0.000672711
0.00528957
0.000811536
0.00600587
0.000896524
0.00648624
0.000928985
0.00678562
0.000915979
0.00695256
0.000867565
0.0070266
0.0070376
0.00079513
0.000106917
0.00104698
0.000323755
0.00270476
0.000580684
0.00402319
0.000830232
0.00504002
0.00104342
0.00579267
0.00120626
0.00632341
0.0013157
0.00667618
0.001376
0.00689226
0.00139579
0.00700681
0.00704715
0.00138624
0.000113457
0.00093352
0.000354398
0.00246382
0.000653936
0.00372365
0.000962217
0.00473174
0.00124578
0.00550911
0.00148546
0.00608373
0.00167352
0.00648812
0.0018106
0.00675518
0.00190304
0.00691437
0.00698915
0.00196104
0.000116537
0.000816984
0.00037406
0.00220629
0.000707145
0.00339057
0.00106577
0.00437312
0.00141354
0.00516133
0.00172689
0.00577039
0.00199335
0.00622166
0.00220937
0.00653916
0.00237813
0.00674562
0.00685928
0.002508
0.000116416
0.000700568
0.000383025
0.00193968
0.000739894
0.0030337
0.0011389
0.00397411
0.00154253
0.00475771
0.00192389
0.00538902
0.00226619
0.00587936
0.00256143
0.00624392
0.00280888
0.00649817
0.00665404
0.00301412
0.000113496
0.000587072
0.00038206
0.00167112
0.000752694
0.00266307
0.00118098
0.00354582
0.00163007
0.00430862
0.00207123
0.00494786
0.00248414
0.00546645
0.00285648
0.00587159
0.00318316
0.00617148
0.00637123
0.00346597
0.000108241
0.000478831
0.000372269
0.00140709
0.000746862
0.00228847
0.0011927
0.00309998
0.00167529
0.00382603
0.00216569
0.00445746
0.00264125
0.00499089
0.0030859
0.00542693
0.00349007
0.00576731
0.00601041
0.00385088
0.000101184
0.000377647
0.000355066
0.00115321
0.000724483
0.00191905
0.00117614
0.00264833
0.00167935
0.00332281
0.00220662
0.00393019
0.00273444
0.00446307
0.00324398
0.0049174
0.00372141
0.00528988
0.00557322
0.00415861
9.2848e-05
0.000284799
0.000331966
0.000914092
0.000688071
0.00156295
0.00113437
0.00220203
0.00164513
0.00281205
0.00219582
0.00337951
0.00276372
0.00389517
0.00332854
0.00435257
0.00387285
0.00474557
0.00506325
0.00438282
8.36625e-05
0.000201136
0.000304313
0.000693442
0.000640046
0.00122722
0.00107069
0.00177138
0.00157622
0.00230652
0.00213646
0.00281927
0.0027312
0.00330043
0.00334036
0.00374342
0.0039438
0.00414213
0.00448535
0.00452169
7.38712e-05
0.000127265
0.000272987
0.000494326
0.000582119
0.000918084
0.000987485
0.00136602
0.00147521
0.00181879
0.00203069
0.00226378
0.00263815
0.00269297
0.00327987
0.0031017
0.00393458
0.00348741
0.00384397
0.00457596
6.34845e-05
6.37806e-05
0.00023825
0.000319561
0.000514861
0.000641472
0.00088531
0.00099557
0.00134183
0.00136227
0.0018763
0.00172932
0.00247952
0.00208976
0.00313969
0.00244153
0.00383825
0.00278885
0.00314077
0.00454145
5.2359e-05
1.14216e-05
0.000199953
0.000171967
0.000438003
0.000403422
0.000762997
0.000670576
0.00117226
0.000953007
0.00166392
0.00123766
0.00223691
0.00151677
0.00289037
0.00178806
0.00361882
0.00206041
0.00237217
0.00438742
4.04745e-05
-2.90529e-05
0.000158373
5.40682e-05
0.000352085
0.00020971
0.000620347
0.000402314
0.000962541
0.000610813
0.00137936
0.000820835
0.00187407
0.00102206
0.00245575
0.00120638
0.00314734
0.00136881
0.00151334
0.00400617
2.835e-05
-5.7403e-05
0.00011556
-3.31414e-05
0.000261833
6.3437e-05
0.000465769
0.000198379
0.000724576
0.000352005
0.00103379
0.000511622
0.00138662
0.000669238
0.00177226
0.000820742
0.00217501
0.000966058
0.00111589
0.00257247
1.70651e-05
-7.44681e-05
7.5505e-05
-9.15812e-05
0.000177308
-3.83664e-05
0.000321562
5.41255e-05
0.000505315
0.000168251
0.000723805
0.000293132
0.000970757
0.000422287
0.00123936
0.000552142
0.00152584
0.00067957
0.000797587
0.00184414
7.43363e-06
-8.19017e-05
4.10607e-05
-0.000125208
0.000104944
-0.000102249
0.000199676
-4.0607e-05
0.000323966
4.39614e-05
0.000475439
0.000141658
0.00065148
0.000246245
0.000850385
0.000353237
0.00107262
0.000457333
0.000548651
0.00132156
-2.78713e-07
-8.1623e-05
1.31415e-05
-0.000138629
4.63781e-05
-0.000135486
0.000101845
-9.60742e-05
0.000180191
-3.43838e-05
0.0002813
4.05488e-05
0.000405089
0.000122456
0.000552115
0.000206212
0.000723459
0.00028599
0.000353887
0.000918222
-6.17988e-06
-7.54431e-05
-8.5662e-06
-0.000136242
7.20805e-07
-0.000144773
2.57463e-05
-0.0001211
6.87369e-05
-7.73744e-05
0.000131056
-2.17707e-05
0.000213789
3.97231e-05
0.000317944
0.000102057
0.000443943
0.000159991
0.000207774
0.000590056
-1.05536e-05
-6.48896e-05
-2.49451e-05
-0.000121851
-3.39536e-05
-0.000135764
-3.22509e-05
-0.000122802
-1.6551e-05
-9.30744e-05
1.52725e-05
-5.35942e-05
6.46295e-05
-9.63389e-06
0.000132282
3.44039e-05
0.000217952
7.43213e-05
0.000106084
0.000319642
-1.37115e-05
-5.11781e-05
-3.69707e-05
-9.85914e-05
-5.96376e-05
-0.000113097
-7.55365e-05
-0.000106903
-8.07744e-05
-8.78365e-05
-7.29305e-05
-6.14381e-05
-5.06541e-05
-3.19103e-05
-1.35603e-05
-2.68988e-06
3.76046e-05
2.31564e-05
4.29382e-05
0.00010075
-1.5905e-05
-3.5273e-05
-4.54315e-05
-6.90649e-05
-7.7868e-05
-8.0661e-05
-0.000106531
-7.82401e-05
-0.000127228
-6.71397e-05
-0.000137482
-5.11837e-05
-0.000136117
-3.32753e-05
-0.000123064
-1.57432e-05
-9.93373e-05
-5.70287e-07
1.06058e-05
-6.70049e-05
-1.72974e-05
-1.79756e-05
-5.08452e-05
-3.55171e-05
-8.96145e-05
-4.18916e-05
-0.000126653
-4.12014e-05
-0.000157642
-3.61509e-05
-0.000180137
-2.86893e-05
-0.000193117
-2.02951e-05
-0.000196721
-1.21389e-05
-0.000192101
-5.18985e-06
-2.22464e-07
-0.000181273
-1.7976e-05
-5.34937e-05
-9.53861e-05
-0.000136588
-0.00017274
-0.00020143
-0.000221725
-0.000233864
-0.000239054
-0.000239277
0.000183631
-0.000422946
3.80927e-08
0.0013217
-0.00113822
1.45927e-07
0.00248544
-0.00116379
6.16341e-08
0.00323245
-0.000746804
-2.06264e-07
0.00385217
-0.000619424
-3.03387e-07
0.00428044
-0.000428043
-2.21074e-07
0.0046244
-0.000343895
-6.36625e-08
0.00485621
-0.000232274
4.58354e-07
0.00506549
-0.000209804
5.28696e-07
-0.000124285
7.6648e-08
0.000295312
-0.00089953
0.0014041
-0.00224701
0.00254154
-0.00230123
0.00327199
-0.00147726
0.00388018
-0.00122761
0.00430181
-0.000849668
0.00464161
-0.000683701
0.00487165
-0.000462313
0.00508015
-0.000418305
-0.000249542
0.000511512
-0.00147805
0.00156324
-0.00329874
0.00264956
-0.00338755
0.00334813
-0.00217583
0.00393413
-0.00181361
0.00434311
-0.00125864
0.00467506
-0.00101565
0.00490186
-0.000689115
0.00510905
-0.000625499
-0.000377031
0.000818375
-0.00219567
0.00178821
-0.00426858
0.00280143
-0.00440076
0.00345518
-0.00282958
0.00401007
-0.00236851
0.00440158
-0.00165015
0.00472284
-0.00133692
0.00494555
-0.000911823
0.00515136
-0.000831306
-0.000508199
0.00119633
-0.00307235
0.00206375
-0.005136
0.00298586
-0.00532287
0.00358514
-0.00342887
0.00410242
-0.00288578
0.00447331
-0.00202104
0.00478227
-0.00164588
0.00500087
-0.00113042
0.00520585
-0.00103629
-0.000644858
0.00162131
-0.0041036
0.00237126
-0.00588594
0.00318921
-0.00614082
0.00372835
-0.00396801
0.00420439
-0.00336182
0.00455351
-0.00237016
0.00485
-0.00194236
0.00506549
-0.00134592
0.00527101
-0.00124181
-0.000789272
0.00206527
-0.00525065
0.00268957
-0.00651024
0.00339627
-0.00684752
0.00387405
-0.0044458
0.00430841
-0.00379618
0.0046368
-0.00269855
0.00492225
-0.0022278
0.00513676
-0.00156043
0.00534502
-0.00145007
-0.000944209
0.00249787
-0.00642696
0.00299561
-0.00700798
0.00359107
-0.00744297
0.00401106
-0.0048658
0.00440664
-0.00419176
0.00471753
-0.00300945
0.00499499
-0.00250526
0.00521179
-0.00177724
0.00542591
-0.00166418
-0.00111295
0.00290154
-0.00748436
0.00327046
-0.0073769
0.00375955
-0.00793205
0.00412892
-0.00523517
0.00449157
-0.00455441
0.00479018
-0.00330806
0.0050642
-0.00277928
0.00528763
-0.00200067
0.00551157
-0.00188812
-0.00129927
0.00328105
-0.00819293
0.00351245
-0.00760831
0.00389086
-0.00831046
0.00422032
-0.00556463
0.00455647
-0.00489056
0.00484981
-0.0036014
0.00512587
-0.00305534
0.00536155
-0.00223634
0.00559953
-0.00212611
-0.00150793
0.0432805
-0.000914831
-0.0505586
0.0390639
-0.00339173
0.0369858
-0.00623238
0.0367996
-0.00537847
0.0366527
-0.00474359
0.0368182
-0.00376692
0.0370083
-0.00324541
0.0372615
-0.00248961
0.0374716
-0.00233616
-0.00179626
0.0523393
0.00331343
-0.0565676
0.0501429
-0.00119533
0.0475495
-0.00363892
0.0460086
-0.00383763
0.0448012
-0.00353618
0.0439752
-0.00294093
0.0433279
-0.00259809
0.0429099
-0.00207155
0.0425081
-0.00193444
-0.00160338
0.0539042
0.00452438
-0.0551151
0.0526219
8.69389e-05
0.0510056
-0.00202259
0.0496962
-0.00252823
0.0485976
-0.00243763
0.047738
-0.00208125
0.0469856
-0.00184572
0.0464231
-0.00150903
0.0458666
-0.00137795
-0.00122141
0.0520608
0.00437461
-0.051911
0.0516518
0.000495935
0.0508184
-0.00118919
0.0499789
-0.00168876
0.0492357
-0.00169446
0.0486347
-0.00148022
0.0480836
-0.00129462
0.0476474
-0.00107283
0.047209
-0.000939565
-0.000871619
0.0500075
0.00369125
-0.0493241
0.04988
0.000623388
0.049457
-0.00076614
0.0489541
-0.00118585
0.0484826
-0.00122295
0.0480981
-0.00109572
0.0477482
-0.000944708
0.0474634
-0.000788038
0.0471858
-0.000662035
-0.00062269
0.0483083
0.00289059
-0.0475076
0.0483335
0.000598176
0.048082
-0.000514666
0.0477506
-0.00085447
0.0474259
-0.000898195
0.0471563
-0.000826156
0.0469224
-0.000710799
0.0467303
-0.000595909
0.0465578
-0.000489592
-0.000455552
0.0470996
0.00210092
-0.0463099
0.0471935
0.000504317
0.0470188
-0.000339993
0.0467671
-0.000602823
0.0465113
-0.000642313
0.0462895
-0.000604413
0.0461033
-0.000524544
0.0459496
-0.000442238
0.0458223
-0.000362321
-0.000331116
0.0462851
0.00136199
-0.0455462
0.0464294
0.000360082
0.0462959
-0.000206488
0.0460799
-0.00038688
0.0458538
-0.000416163
0.0456482
-0.000398868
0.0454742
-0.000350538
0.0453293
-0.000297341
0.045212
-0.000244952
-0.000220882
0.0457885
0.0006686
-0.0450952
0.0459648
0.000183851
0.0458571
-9.88314e-05
0.0456578
-0.000187521
0.0454441
-0.000202521
0.0452434
-0.000198115
0.045069
-0.000176155
0.0449222
-0.00015059
0.0448014
-0.000124152
-0.000111677
0.045554
-0.0448854
0.0457378
0.045639
0.0454515
0.0452489
0.0450508
0.0448747
0.0447241
0.0445999
0.0567753
0.00230159
-0.0560628
0.0573297
0.00291155
0.0576775
0.00350309
0.0577689
0.00406718
0.0575572
0.00459458
0.0570024
0.00507648
0.0560732
0.00550516
0.0547401
0.00587452
0.0529479
0.00617966
0.00639547
0.0513979
0.0016929
-0.0507892
0.0520516
0.00225785
0.0527363
0.00281843
0.0534339
0.00336955
0.054123
0.0039055
0.0547794
0.00442007
0.0553778
0.0049068
0.055893
0.00535932
0.0563007
0.0057719
0.00612861
0.0480918
0.001218
-0.0476169
0.0486477
0.00170197
0.0492813
0.00218477
0.0499873
0.00266353
0.0507578
0.00313508
0.0515819
0.00359596
0.0524463
0.00404234
0.0533356
0.00447005
0.054233
0.00487455
0.00524643
0.0454945
0.000891389
-0.0451679
0.0459013
0.00129521
0.0463888
0.00169729
0.0469569
0.00209538
0.0476048
0.00248723
0.0483302
0.00287049
0.0491298
0.00324277
0.0499983
0.00360155
0.0509288
0.00394404
0.00426425
0.0439058
0.000651557
-0.043666
0.0442198
0.000981277
0.0446079
0.00130912
0.0450701
0.00163321
0.0456056
0.0019517
0.0462134
0.0022627
0.0468918
0.00256437
0.0476386
0.0028548
0.0484507
0.00313191
0.00339081
0.0428101
0.000469382
-0.0426279
0.0430622
0.000729121
0.0433843
0.00098709
0.0437757
0.00124177
0.0442357
0.00149166
0.0447632
0.00173527
0.0453564
0.00197112
0.0460135
0.00219774
0.0467319
0.00241352
0.00261507
0.0421162
0.00032461
-0.0419714
0.0423279
0.000517449
0.0426061
0.000708874
0.0429501
0.000897733
0.0433589
0.00108288
0.043831
0.00126319
0.0443646
0.00143753
0.0449575
0.00160482
0.0456072
0.00176384
0.00191231
0.0416643
0.000203998
-0.0415437
0.04185
0.000331707
0.0421004
0.000458459
0.0424147
0.000583482
0.0427916
0.000706007
0.0432295
0.000825275
0.0437265
0.000940537
0.0442802
0.00105106
0.044888
0.00115604
0.00125414
0.0413996
9.81597e-05
-0.0412938
0.0415695
0.000161807
0.041803
0.000224995
0.0420992
0.000287334
0.0424567
0.000348437
0.0428741
0.000407922
0.0433492
0.000465411
0.0438797
0.000520532
0.0444629
0.000572894
0.000621856
0.0412742
-0.041176
0.041436
0.041661
0.0419483
0.0422967
0.0427047
0.0431701
0.0436906
0.0442635
0.0481094
-0.00335374
-0.0475524
0.0488228
-0.00289489
0.0496454
-0.00240622
0.0505376
-0.00188565
0.0514714
-0.00133414
0.0524283
-0.000759597
0.0533899
-0.000166527
0.0543348
0.000441378
0.0552364
0.00105937
0.00168168
0.0479852
-0.00340684
-0.0479321
0.0480815
-0.0029912
0.0482205
-0.00254526
0.0484082
-0.0020733
0.0486505
-0.00157645
0.0489517
-0.0010608
0.0493152
-0.00053009
0.0497433
1.33569e-05
0.0502356
0.000567052
0.00112803
0.046897
-0.0031475
-0.0471564
0.0466931
-0.0027873
0.0465499
-0.00240198
0.0464725
-0.00199591
0.0464672
-0.00157118
0.0465376
-0.0011312
0.046686
-0.000678483
0.0469144
-0.000215035
0.0472244
0.000257056
0.000735533
0.0455818
-0.00277137
-0.0459579
0.0452636
-0.00246906
0.0450067
-0.0021451
0.0448147
-0.00180392
0.0446909
-0.00144742
0.0446377
-0.00107801
0.044657
-0.000697772
0.0447507
-0.000308667
0.0449204
8.72987e-05
0.000488034
0.0446599
-0.0023496
-0.0450817
0.044292
-0.00210111
0.0439823
-0.00183548
0.0437342
-0.00155579
0.0435504
-0.00126362
0.0434333
-0.00096085
0.0433847
-0.000649199
0.0434064
-0.000330367
0.0434998
-6.09584e-06
0.000321823
0.0439897
-0.00190031
-0.0444389
0.0435923
-0.00170379
0.0432508
-0.00149397
0.0429681
-0.00127309
0.0427469
-0.00104239
0.0425893
-0.000803271
0.0424973
-0.000557123
0.0424722
-0.000305338
0.0425155
-4.9343e-05
0.000209396
0.043559
-0.00143593
-0.0440234
0.043145
-0.00128981
0.042785
-0.00113398
0.0424819
-0.000969929
0.042238
-0.000798572
0.0420557
-0.000620927
0.0419366
-0.000438028
0.0418822
-0.00025093
0.0418936
-6.07137e-05
0.000131511
0.0432802
-0.00096146
-0.0437547
0.0428551
-0.000864766
0.0424828
-0.000761683
0.0421661
-0.000653144
0.0419072
-0.000539751
0.0417085
-0.000422168
0.0415715
-0.000301077
0.0414978
-0.000177182
0.0414883
-5.12067e-05
7.61062e-05
0.0431193
-0.000481536
-0.0435992
0.042688
-0.000433515
0.0423086
-0.000382322
0.0419839
-0.000328399
0.0417162
-0.000272044
0.0415076
-0.000213579
0.0413599
-0.000153344
0.0412744
-9.16865e-05
0.0412521
-2.89679e-05
3.44408e-05
0.0430454
-0.043527
0.0426119
0.0422296
0.0419012
0.0416291
0.0414156
0.0412622
0.0411705
0.0411416
0.0429475
0.000174631
-0.000193169
0.0429914
0.000521277
-0.0005652
0.0430658
0.000872672
-0.000947119
0.0431884
0.001237
-0.00135953
0.043389
0.00161961
-0.00182026
0.0437114
0.00202475
-0.00234711
0.0442143
0.00245453
-0.0029574
0.0449695
0.00291138
-0.00366664
0.0460712
0.00337131
-0.00447303
0.00392367
-0.0054048
0.0429657
0.000137881
0.0430729
0.000414037
0.043254
0.00069155
0.0435194
0.000971605
0.043884
0.00125501
0.0443668
0.00154202
0.0449896
0.00183167
0.0457769
0.00212407
0.0467446
0.00240365
0.00273618
0.0429665
0.000100273
0.0430779
0.000302718
0.0432627
0.000506707
0.0435251
0.000709229
0.0438707
0.000909387
0.0443068
0.00110589
0.0448419
0.00129664
0.045486
0.00147994
0.0462438
0.00164581
0.00182364
0.0429586
7.05596e-05
0.0430476
0.000213752
0.043196
0.000358308
0.0434046
0.000500638
0.0436744
0.000639537
0.0440066
0.00077371
0.0444017
0.000901585
0.0448597
0.00102196
0.0453756
0.00112983
0.00124134
0.0429506
4.88963e-05
0.0430161
0.00014828
0.0431258
0.000248594
0.0432795
0.000346946
0.0434767
0.000442276
0.0437169
0.000533534
0.0439989
0.000619579
0.0443214
0.00069948
0.0446808
0.000770449
0.00084043
0.0429445
3.33082e-05
0.0429918
0.00010102
0.043071
0.000169336
0.0431818
0.000236203
0.0433232
0.000300844
0.0434942
0.000362523
0.0436933
0.000420497
0.0439186
0.000474171
0.044167
0.000522073
0.00056847
0.0429403
2.19176e-05
0.0429749
6.64644e-05
0.0430328
0.000111389
0.0431137
0.000155332
0.0432168
0.000197772
0.0433411
0.000238219
0.0434854
0.000276196
0.0436482
0.000311314
0.0438276
0.000342743
0.00037265
0.0429376
1.32771e-05
0.0429638
4.02498e-05
0.0430077
6.74382e-05
0.043069
9.40335e-05
0.0431471
0.000119721
0.0432411
0.000144211
0.0433501
0.000167225
0.0434728
0.000188539
0.0436079
0.000207718
0.000225866
0.0429359
6.2614e-06
0.0429572
1.89823e-05
0.0429929
3.17944e-05
0.0430426
4.43277e-05