/*--------------------------------*- C++ -*----------------------------------*\
  =========                 |
  \\      /  F ield         | OpenFOAM: The Open Source CFD Toolbox
   \\    /   O peration     | Website:  https://openfoam.org
    \\  /    A nd           | Version:  6.0
     \\/     M anipulation  |
\*---------------------------------------------------------------------------*/
FoamFile
{
    version     2.0;
    format      ascii;
    class       volVectorField;
    location    "52";
    object      U;
}
// * * * * * * * * * * * * * * * * * * * * * * * * * * * * * * * * * * * * * //

dimensions      [0 1 -1 0 0 0 0];

internalField   nonuniform List<vector> 
2000
(
(-0.00199123 0.00173842 5.72901e-20)
(-0.00762158 0.00330268 6.80431e-20)
(-0.0153301 0.00366196 -6.48682e-20)
(-0.0223324 0.00333764 -1.32365e-19)
(-0.0276804 0.00263998 -9.24641e-20)
(-0.0312214 0.00177211 1.23182e-19)
(-0.0330528 0.00087944 7.17497e-20)
(-0.0334436 6.86663e-05 -2.9025e-20)
(-0.0328262 -0.000581083 -7.24572e-20)
(-0.0314952 -0.00100592 5.2831e-20)
(-0.0024897 0.00512138 -1.42007e-19)
(-0.00837069 0.00968558 1.96037e-19)
(-0.0157252 0.0106975 1.95485e-20)
(-0.0220251 0.0096974 -1.13552e-19)
(-0.0264594 0.00759814 5.43359e-19)
(-0.0289517 0.00499662 -2.39139e-19)
(-0.0296475 0.00232118 -2.58717e-19)
(-0.0288424 -0.000109882 3.12046e-19)
(-0.0269846 -0.00205484 -3.0775e-19)
(-0.0244467 -0.00332125 1.55255e-19)
(-0.00343576 0.00822494 2.35848e-20)
(-0.0097281 0.0154096 8.38829e-21)
(-0.0163015 0.0168862 5.87518e-19)
(-0.0211436 0.0151402 2.06096e-19)
(-0.0237176 0.0116332 4.08756e-20)
(-0.0240981 0.00731679 3.38023e-19)
(-0.0225237 0.00287678 -6.42029e-19)
(-0.0193384 -0.00116401 1.39245e-20)
(-0.01502 -0.00438879 -3.79651e-19)
(-0.0101028 -0.00647397 4.18231e-19)
(-0.00472405 0.0108681 -4.43654e-20)
(-0.0114034 0.0200603 2.55241e-19)
(-0.0166178 0.021719 -7.43657e-19)
(-0.0191361 0.0191492 -9.61245e-20)
(-0.018832 0.0142675 -5.47356e-19)
(-0.0160034 0.00831154 5.66877e-19)
(-0.0110226 0.00217615 -6.01279e-19)
(-0.00429634 -0.00342964 4.22269e-19)
(0.003663 -0.00789609 1.77523e-19)
(0.0120634 -0.010764 -2.00597e-19)
(-0.00618708 0.0128748 -4.93789e-19)
(-0.01294 0.0232574 4.45596e-21)
(-0.0159822 0.0247664 9.16078e-19)
(-0.0151343 0.0213427 2.74637e-19)
(-0.0108145 0.0152251 -8.73246e-19)
(-0.00361573 0.0078354 5.43003e-19)
(0.00591833 0.000196368 6.15484e-19)
(0.017314 -0.00683852 -5.48751e-19)
(0.0300356 -0.0124519 3.91256e-19)
(0.0429236 -0.0160463 9.60776e-20)
(-0.00758378 0.0140744 6.74976e-20)
(-0.0136957 0.0246649 1.25188e-20)
(-0.0134291 0.0257006 -1.1712e-18)
(-0.00792065 0.0215115 -6.55224e-19)
(0.00173571 0.0144922 7.81627e-19)
(0.0145788 0.00611557 -9.15318e-19)
(0.0298496 -0.00258956 1.04886e-18)
(0.0470089 -0.010714 -9.05986e-20)
(0.0655396 -0.0172484 -2.95077e-19)
(0.0837993 -0.0214698 -8.57624e-19)
(-0.00858783 0.0143041 -1.46872e-19)
(-0.0128318 0.0240056 -2.68249e-19)
(-0.0077133 0.0243088 -3.29558e-19)
(0.0040794 0.0196269 7.03037e-19)
(0.0206597 0.012327 1.30413e-18)
(0.0406179 0.00378479 -2.69545e-19)
(0.0629143 -0.00513201 -6.56026e-19)
(0.0869293 -0.0136319 2.00089e-19)
(0.112249 -0.0206142 -1.26007e-18)
(0.136673 -0.0252823 1.38408e-18)
(-0.00878375 0.0134242 8.98277e-19)
(-0.00932803 0.021086 -4.90323e-19)
(0.00264615 0.0205023 9.57257e-19)
(0.0227357 0.0158175 -1.56396e-18)
(0.0481735 0.00920567 -7.47286e-19)
(0.0770143 0.00182631 -1.03509e-18)
(0.10783 -0.00579397 3.00722e-19)
(0.139843 -0.0132484 -8.37269e-19)
(0.172877 -0.0195728 1.82329e-18)
(0.204273 -0.0240794 5.10395e-19)
(-0.00768225 0.0113475 6.61297e-20)
(-0.00204463 0.015839 7.98696e-19)
(0.0192554 0.0143225 1.58719e-18)
(0.0500647 0.0103002 4.85012e-19)
(0.0867021 0.00565932 1.43556e-18)
(0.126594 0.00136006 7.86855e-20)
(0.167733 -0.00240718 -7.0937e-22)
(0.20892 -0.0056924 5.78758e-19)
(0.250233 -0.00783869 4.6811e-19)
(0.289115 -0.00926239 -1.51928e-18)
(-0.00477046 0.00808578 -5.32103e-19)
(0.0101469 0.00838452 -8.91195e-19)
(0.0436437 0.00593786 -1.29539e-18)
(0.0879962 0.00320908 3.06111e-20)
(0.13875 0.00175684 -6.60375e-19)
(0.192805 0.00254282 1.04083e-18)
(0.247587 0.00588931 -2.86551e-18)
(0.30116 0.0120151 1.28648e-18)
(0.352882 0.021515 4.83554e-19)
(0.400029 0.0302477 1.51714e-18)
(0.000388696 0.00380852 2.66175e-19)
(0.028118 -0.000874444 -1.01895e-18)
(0.0768096 -0.00427289 9.09823e-19)
(0.137563 -0.00546149 -3.5298e-19)
(0.205553 -0.00344252 3.83946e-19)
(0.27782 0.00270771 8.35875e-19)
(0.352528 0.0137257 -1.12226e-18)
(0.429274 0.0305529 1.4581e-19)
(0.509036 0.052453 -5.37772e-19)
(0.59417 0.0694534 1.09111e-18)
(0.00806022 -0.00110795 3.81367e-19)
(0.0522602 -0.0110931 -9.23812e-19)
(0.118756 -0.0153295 1.25869e-18)
(0.197749 -0.0150188 -7.83872e-19)
(0.284048 -0.0102795 -2.87559e-19)
(0.374603 -0.000972028 1.70249e-19)
(0.467605 0.0128151 8.80219e-20)
(0.562488 0.03077 1.19396e-18)
(0.658902 0.0501768 3.43713e-19)
(0.754558 0.0623399 1.46942e-18)
(0.018352 -0.00610196 -3.40402e-19)
(0.0826127 -0.0209186 1.19444e-18)
(0.169007 -0.0252637 -9.96646e-19)
(0.267055 -0.0228311 -1.16886e-18)
(0.371088 -0.0151008 1.63536e-18)
(0.477615 -0.00286586 -1.24344e-18)
(0.584239 0.012943 3.28449e-19)
(0.689405 0.0312137 -1.9471e-18)
(0.791333 0.0492639 1.45851e-18)
(0.88604 0.0617491 7.28729e-20)
(0.0312703 -0.0105458 -4.43625e-19)
(0.118977 -0.0287938 -4.28434e-19)
(0.226869 -0.0317843 -9.12317e-19)
(0.344063 -0.0258914 1.10584e-18)
(0.464446 -0.0140395 -5.58548e-20)
(0.58406 0.00207609 7.14925e-19)
(0.699967 0.020854 1.30422e-18)
(0.809929 0.0407964 -4.00792e-19)
(0.911576 0.0598089 -1.41762e-18)
(1.0009 0.074878 2.81451e-18)
(0.0467452 -0.0138316 -2.29306e-19)
(0.160911 -0.0332168 -2.73517e-19)
(0.291339 -0.0327801 4.92216e-19)
(0.427114 -0.0216647 -9.14897e-19)
(0.561883 -0.00426172 1.56305e-19)
(0.69144 0.0168803 1.39096e-19)
(0.812662 0.0396127 6.10006e-20)
(0.9232 0.06223 -9.85866e-21)
(1.02086 0.0832291 -1.49428e-19)
(1.10226 0.100992 -2.37941e-18)
(0.0646185 -0.0153976 9.30821e-19)
(0.207682 -0.0328632 -6.4961e-19)
(0.360982 -0.0265372 8.30774e-21)
(0.514053 -0.00833846 -9.8935e-19)
(0.660653 0.0159067 -3.53962e-19)
(0.796701 0.0428756 3.30958e-19)
(0.91936 0.0699941 2.57018e-19)
(1.02673 0.0954715 -9.15871e-19)
(1.11735 0.118343 7.48595e-19)
(1.18885 0.137793 -9.81513e-19)
(0.084611 -0.0147325 4.01747e-19)
(0.258228 -0.0266432 -3.57046e-19)
(0.433899 -0.0118354 1.48302e-18)
(0.602223 0.0151009 1.51204e-19)
(0.757549 0.0470192 3.47496e-19)
(0.896411 0.0799694 1.5488e-18)
(1.01678 0.111131 -2.36814e-19)
(1.11772 0.138798 2.15772e-19)
(1.19888 0.162564 8.93481e-20)
(1.25919 0.182097 -1.0997e-19)
(0.106293 -0.0113861 2.80678e-19)
(0.311141 -0.0137428 6.74815e-19)
(0.50778 0.0120121 -7.22888e-19)
(0.688608 0.0488895 -2.44724e-19)
(0.849158 0.088666 -3.0231e-19)
(0.987142 0.127018 4.68415e-19)
(1.10185 0.161148 -2.43646e-19)
(1.19374 0.189675 6.55502e-19)
(1.26384 0.212846 2.20583e-19)
(1.31249 0.230666 -3.5962e-19)
(0.129071 -0.00499456 -3.02465e-19)
(0.364701 0.00632848 2.68843e-19)
(0.580015 0.0451371 -5.7366e-19)
(0.770038 0.0925429 2.47449e-19)
(0.932158 0.139656 -2.5676e-19)
(1.06584 0.182158 -3.20447e-19)
(1.17213 0.217628 -2.5733e-19)
(1.25319 0.245301 2.87583e-19)
(1.3115 0.266204 -5.42206e-19)
(1.34885 0.280637 3.27673e-19)
(0.152191 0.00468204 -1.07815e-19)
(0.416945 0.0336823 -2.10897e-19)
(0.647853 0.0871017 1.00429e-19)
(0.843431 0.144924 6.19182e-21)
(1.0036 0.198186 8.33296e-20)
(1.13007 0.243068 1.14321e-19)
(1.22601 0.277937 1.0595e-19)
(1.29535 0.302934 -1.40495e-19)
(1.34201 0.31998 1.19607e-19)
(1.36911 0.329676 -1.87179e-19)
(0.174775 0.017719 -6.24094e-20)
(0.465772 0.0680015 -2.34116e-20)
(0.708578 0.1369 9.31619e-20)
(0.906006 0.204326 -4.28885e-20)
(1.0611 0.262007 1.1431e-19)
(1.17821 0.307192 -1.47594e-19)
(1.26274 0.33945 3.42082e-20)
(1.32037 0.360077 3.67049e-20)
(1.35627 0.371951 -1.53846e-20)
(1.37465 0.375986 5.82072e-20)
(0.195856 0.0339917 -6.73281e-20)
(0.50907 0.10851 -3.04678e-19)
(0.759689 0.192986 -2.11024e-20)
(0.955467 0.268575 6.27151e-21)
(1.10299 0.328579 -3.96273e-19)
(1.20943 0.371907 5.23877e-20)
(1.28239 0.399693 -4.46005e-20)
(1.3291 0.414556 -1.07577e-19)
(1.35567 0.42033 2.24278e-19)
(1.36715 0.418231 -4.08927e-19)
(0.214444 0.0531504 -3.25172e-20)
(0.544851 0.15397 6.17061e-19)
(0.799063 0.253335 9.94249e-20)
(0.990133 0.335148 -5.43241e-19)
(1.12837 0.395217 -4.40517e-20)
(1.22372 0.434653 -5.20575e-19)
(1.28574 0.456425 3.81591e-19)
(1.32289 0.464538 -1.38447e-19)
(1.34191 0.463703 2.45598e-19)
(1.34841 0.45542 -1.79443e-19)
(0.229586 0.0746121 -2.05052e-19)
(0.571393 0.202718 1.95839e-19)
(0.825092 0.315541 -1.41353e-19)
(1.00902 0.401307 1.06545e-18)
(1.13708 0.459223 5.25831e-19)
(1.22172 0.493027 -1.21914e-19)
(1.27409 0.507671 4.10719e-19)
(1.30345 0.508499 -2.70255e-19)
(1.31688 0.500956 -7.52884e-20)
(1.32028 0.486799 4.93979e-19)
(0.240436 0.0975684 -3.54918e-19)
(0.587355 0.252731 4.51652e-19)
(0.836773 0.376931 -8.88618e-19)
(1.01185 0.464233 1.24793e-19)
(1.12966 0.51799 2.78866e-19)
(1.20469 0.544843 -4.27653e-19)
(1.24914 0.551725 -4.97918e-19)
(1.27272 0.545172 2.18559e-19)
(1.28252 0.531184 -2.63171e-19)
(1.28453 0.511755 3.15952e-19)
(0.246311 0.121013 -8.96751e-20)
(0.591872 0.301725 -4.5957e-19)
(0.833754 0.434708 2.54253e-19)
(0.99903 0.521159 4.26368e-19)
(1.10725 0.569097 -2.56404e-19)
(1.17428 0.588156 -1.91028e-19)
(1.21287 0.587119 -1.04306e-19)
(1.23273 0.573484 -5.15649e-20)
(1.24077 0.553598 1.07849e-20)
(1.24291 0.52972 1.07522e-19)
(0.246759 0.143785 6.58194e-20)
(0.584617 0.347278 -3.85624e-19)
(0.81634 0.486098 6.43175e-19)
(0.971581 0.569494 -3.81073e-19)
(1.07145 0.610386 1.0648e-19)
(1.13247 0.621291 -1.51058e-19)
(1.16741 0.612602 1.6262e-19)
(1.18559 0.592496 3.11518e-20)
(1.19356 0.567431 -7.80046e-20)
(1.19711 0.540022 1.51506e-19)
(0.241593 0.164636 -1.73029e-19)
(0.565832 0.386974 3.38041e-19)
(0.785448 0.528508 -1.52031e-20)
(0.931025 0.60695 -7.32253e-20)
(1.02419 0.640034 -2.01309e-19)
(1.08145 0.642882 2.48064e-20)
(1.11501 0.627183 6.15252e-20)
(1.1335 0.601458 -1.51516e-19)
(1.14302 0.571983 1.76962e-19)
(1.1492 0.541879 1.50324e-19)
(0.230935 0.18231 3.84335e-20)
(0.536325 0.418562 -8.09294e-20)
(0.742531 0.559669 2.42432e-20)
(0.879239 0.631621 1.24536e-20)
(0.967553 0.656554 7.79659e-20)
(1.02334 0.651785 -1.44062e-19)
(1.05788 0.629967 -3.01346e-19)
(1.07891 0.599657 -1.22929e-19)
(1.09213 0.566623 -1.57123e-19)
(1.10255 0.534701 1.33126e-19)
(0.21523 0.195653 1.10782e-19)
(0.49743 0.44013 -1.71717e-19)
(0.689467 0.577805 1.65743e-19)
(0.818263 0.64211 -3.14828e-19)
(0.903421 0.658818 7.63835e-20)
(0.959695 0.646834 5.16196e-19)
(0.997278 0.619363 -1.58293e-19)
(1.02316 0.584703 1.88169e-19)
(1.04271 0.548005 2.75476e-19)
(1.05903 0.515028 1.00198e-18)
(0.195249 0.203726 6.80455e-19)
(0.450967 0.450296 -4.63014e-19)
(0.628513 0.581864 1.12681e-18)
(0.750268 0.637905 -1.92981e-19)
(0.833389 0.646759 9.66765e-19)
(0.891057 0.628052 6.06541e-19)
(0.93231 0.594737 -1.42497e-18)
(0.96357 0.553881 2.1635e-18)
(0.989456 0.507899 -4.57211e-19)
(1.00632 0.461007 8.99672e-19)
(0.17205 0.205874 -3.75356e-19)
(0.399204 0.448254 -2.67605e-19)
(0.562391 0.571529 2.58804e-19)
(0.677928 0.619481 -6.41008e-19)
(0.759661 0.622009 -2.00215e-18)
(0.818699 0.598991 -8.05194e-19)
(0.862692 0.563188 -7.25744e-19)
(0.897113 0.521741 3.5122e-19)
(0.925117 0.478159 2.92724e-18)
(0.942605 0.437392 -6.08903e-19)
(0.146894 0.201721 1.97537e-19)
(0.344727 0.433649 -7.99426e-19)
(0.494241 0.546774 1.75833e-19)
(0.604666 0.587133 -1.28047e-18)
(0.686058 0.585016 2.80347e-18)
(0.747292 0.559929 -3.24924e-19)
(0.794584 0.52408 1.52764e-18)
(0.832423 0.484257 -2.18834e-18)
(0.863342 0.443962 6.86535e-19)
(0.884648 0.407477 1.06207e-19)
(0.121118 0.191156 1.45619e-19)
(0.290163 0.40655 8.81724e-19)
(0.427119 0.507894 -2.58994e-18)
(0.533587 0.541229 1.26028e-18)
(0.615632 0.535983 -4.1604e-21)
(0.679887 0.510616 -4.25285e-19)
(0.731204 0.47643 5.35225e-19)
(0.773236 0.439624 -5.31931e-19)
(0.808165 0.403351 -1.8285e-18)
(0.834247 0.370865 -5.01004e-19)
(0.0960486 0.174334 4.76478e-19)
(0.238033 0.367474 5.3462e-19)
(0.363854 0.455615 2.20821e-18)
(0.467419 0.482513 -1.22844e-18)
(0.550831 0.4755 2.53213e-18)
(0.618565 0.451352 -5.45423e-19)
(0.674213 0.420139 -5.76531e-19)
(0.720699 0.387299 6.81303e-19)
(0.759931 0.355515 4.44207e-19)
(0.790869 0.327125 1.61059e-18)
(0.0729448 0.15167 -4.83559e-19)
(0.190664 0.317377 1.57842e-19)
(0.306988 0.391112 4.26869e-20)
(0.408535 0.412151 1.25235e-18)
(0.493702 0.404589 -3.12606e-18)
(0.56499 0.382954 5.31051e-19)
(0.624864 0.355821 1.17263e-18)
(0.675617 0.327751 -1.41765e-18)
(0.718933 0.300911 4.99428e-19)
(0.754394 0.276898 -2.31787e-18)
(0.0529469 0.123826 1.03049e-19)
(0.150114 0.257626 5.55919e-19)
(0.258722 0.315974 2.16216e-19)
(0.358945 0.331692 2.93021e-19)
(0.445941 0.324635 5.61472e-19)
(0.520504 0.306609 1.67168e-18)
(0.584154 0.284488 -2.04676e-18)
(0.638655 0.261882 -1.1528e-18)
(0.685522 0.240441 1.91039e-19)
(0.724903 0.221195 1.50298e-18)
(0.0370318 0.0916908 -6.23149e-19)
(0.118111 0.189953 -7.4131e-20)
(0.220874 0.23216 -6.20978e-19)
(0.320288 0.243022 8.84366e-20)
(0.408909 0.237333 -5.31592e-19)
(0.486184 0.2238 -6.06907e-19)
(0.55289 0.207442 -9.04447e-19)
(0.610384 0.190868 2.43724e-18)
(0.660066 0.175233 4.20484e-19)
(0.702561 0.161149 -6.40954e-19)
(0.0259729 0.0563424 3.35846e-19)
(0.0960029 0.116392 4.43911e-19)
(0.194847 0.141927 1.74893e-19)
(0.293812 0.148292 -9.439e-19)
(0.38364 0.144614 -4.39428e-19)
(0.462844 0.136227 -9.46237e-20)
(0.531693 0.126185 1.84897e-19)
(0.591264 0.116066 1.48464e-19)
(0.642892 0.106552 -1.14803e-18)
(0.687548 0.0979587 6.58765e-19)
(0.0203063 0.0190052 -1.74895e-19)
(0.084714 0.0392056 -1.98971e-19)
(0.181592 0.0477521 1.58584e-19)
(0.280362 0.0498477 1.40795e-19)
(0.370831 0.0485768 1.44294e-19)
(0.451036 0.0457361 2.20675e-19)
(0.520987 0.0423509 -1.16023e-20)
(0.581621 0.0389484 -2.89466e-19)
(0.634242 0.0357543 2.74961e-19)
(0.680003 0.0328653 -4.13691e-19)
(0.0203063 -0.0190052 -1.76045e-19)
(0.084714 -0.0392055 -1.89615e-19)
(0.181592 -0.047752 1.74744e-19)
(0.280362 -0.0498476 3.42133e-19)
(0.370831 -0.0485767 2.27967e-19)
(0.451036 -0.045736 -3.00377e-19)
(0.520987 -0.0423507 -1.63222e-19)
(0.581621 -0.0389482 7.11804e-20)
(0.634242 -0.0357541 1.60032e-19)
(0.680003 -0.0328651 -9.52968e-20)
(0.0259729 -0.0563424 4.20121e-19)
(0.0960029 -0.116392 -5.33928e-19)
(0.194847 -0.141927 -4.44094e-20)
(0.293812 -0.148292 2.95833e-19)
(0.38364 -0.144613 -1.33752e-18)
(0.462844 -0.136226 5.71506e-19)
(0.531693 -0.126185 5.89957e-19)
(0.591264 -0.116066 -6.96472e-19)
(0.642892 -0.106552 6.65297e-19)
(0.687548 -0.0979586 -2.92005e-19)
(0.0370318 -0.0916908 -7.26357e-20)
(0.118111 -0.189953 -9.26702e-21)
(0.220874 -0.23216 -1.44218e-18)
(0.320288 -0.243022 -4.58786e-19)
(0.408909 -0.237333 -4.83719e-20)
(0.486184 -0.2238 -7.54744e-19)
(0.55289 -0.207442 1.40629e-18)
(0.610384 -0.190868 -4.94208e-20)
(0.660066 -0.175233 8.0302e-19)
(0.702561 -0.161149 -7.06082e-19)
(0.0529468 -0.123826 1.22673e-19)
(0.150114 -0.257626 -5.67945e-19)
(0.258722 -0.315974 1.74757e-18)
(0.358945 -0.331692 2.47299e-19)
(0.445941 -0.324635 1.21577e-18)
(0.520504 -0.306609 -1.18858e-18)
(0.584154 -0.284488 1.24778e-18)
(0.638655 -0.261882 -8.99611e-19)
(0.685522 -0.240441 -3.95064e-19)
(0.724903 -0.221195 3.35614e-19)
(0.0729448 -0.15167 1.09541e-18)
(0.190664 -0.317377 2.80494e-21)
(0.306988 -0.391111 -1.84178e-18)
(0.408535 -0.412151 -5.34357e-19)
(0.493702 -0.404588 1.77428e-18)
(0.56499 -0.382953 -1.03984e-18)
(0.624864 -0.35582 -1.20379e-18)
(0.675617 -0.327751 1.08311e-18)
(0.718933 -0.30091 -7.37379e-19)
(0.754394 -0.276898 -1.58974e-19)
(0.0960486 -0.174334 -1.63516e-19)
(0.238033 -0.367474 -7.75583e-21)
(0.363854 -0.455615 1.99878e-18)
(0.467419 -0.482513 1.14607e-18)
(0.550831 -0.4755 -1.3515e-18)
(0.618565 -0.451352 1.63638e-18)
(0.674213 -0.420139 -1.77565e-18)
(0.720699 -0.387299 1.767e-19)
(0.759931 -0.355514 5.28878e-19)
(0.790869 -0.327124 1.22377e-18)
(0.121118 -0.191156 1.87439e-19)
(0.290163 -0.40655 3.01845e-19)
(0.427119 -0.507894 3.28338e-19)
(0.533587 -0.541229 -1.05558e-18)
(0.615632 -0.535982 -1.88029e-18)
(0.679887 -0.510616 3.95964e-19)
(0.731204 -0.476429 1.14585e-18)
(0.773236 -0.439624 -3.27994e-19)
(0.808165 -0.403351 1.9747e-18)
(0.834247 -0.370865 -1.92478e-18)
(0.146894 -0.201721 -1.06106e-18)
(0.344727 -0.433649 4.07726e-19)
(0.494241 -0.546774 -1.10093e-18)
(0.604666 -0.587133 1.77981e-18)
(0.686058 -0.585016 8.89978e-19)
(0.747292 -0.559929 1.25655e-18)
(0.794583 -0.52408 -2.90793e-19)
(0.832423 -0.484256 1.14573e-18)
(0.863341 -0.443962 -2.42574e-18)
(0.884648 -0.407477 -6.32408e-19)
(0.17205 -0.205874 6.24628e-20)
(0.399204 -0.448254 -7.12838e-19)
(0.562391 -0.571529 -1.1414e-18)
(0.677928 -0.619481 -4.83604e-19)
(0.759661 -0.622009 -1.36659e-18)
(0.818699 -0.598991 -1.38991e-19)
(0.862692 -0.563188 1.18832e-19)
(0.897113 -0.521741 -5.34016e-19)
(0.925117 -0.478159 -5.96797e-19)
(0.942605 -0.437392 1.5739e-18)
(0.195249 -0.203726 3.35417e-19)
(0.450967 -0.450296 4.68412e-19)
(0.628513 -0.581864 8.39149e-19)
(0.750268 -0.637905 3.72162e-20)
(0.833389 -0.646759 5.5989e-19)
(0.891057 -0.628052 -7.66687e-19)
(0.93231 -0.594737 2.34077e-18)
(0.96357 -0.55388 -1.0335e-18)
(0.989456 -0.507899 -5.07569e-19)
(1.00632 -0.461007 -1.53053e-18)
(0.21523 -0.195653 -1.32114e-19)
(0.49743 -0.44013 2.334e-19)
(0.689467 -0.577805 -2.39176e-19)
(0.818263 -0.64211 1.28945e-19)
(0.903421 -0.658818 -1.52377e-19)
(0.959695 -0.646834 -3.908e-19)
(0.997278 -0.619363 5.14077e-19)
(1.02316 -0.584703 -1.68154e-19)
(1.04271 -0.548005 2.6087e-19)
(1.05903 -0.515028 -5.69254e-19)
(0.230935 -0.18231 -7.39107e-21)
(0.536325 -0.418562 -1.06464e-19)
(0.742531 -0.559669 2.11757e-20)
(0.879239 -0.631621 1.44571e-19)
(0.967553 -0.656554 -6.53322e-20)
(1.02334 -0.651785 1.75402e-20)
(1.05788 -0.629967 -1.71893e-20)
(1.07891 -0.599657 -3.83363e-19)
(1.09213 -0.566623 -1.77959e-19)
(1.10255 -0.534701 -5.59985e-19)
(0.241593 -0.164635 -9.61295e-20)
(0.565832 -0.386974 3.39238e-19)
(0.785448 -0.528508 -2.10757e-19)
(0.931025 -0.60695 -7.59573e-20)
(1.02419 -0.640034 3.3917e-20)
(1.08145 -0.642882 7.15183e-20)
(1.11501 -0.627183 -7.0221e-21)
(1.1335 -0.601458 2.92457e-19)
(1.14302 -0.571983 -2.5272e-19)
(1.1492 -0.541879 -3.58037e-21)
(0.246759 -0.143785 -2.36706e-19)
(0.584617 -0.347278 -1.48239e-19)
(0.81634 -0.486098 -3.68098e-19)
(0.971581 -0.569494 4.18725e-19)
(1.07145 -0.610386 -3.07023e-20)
(1.13247 -0.621291 1.36103e-19)
(1.16741 -0.612602 1.53594e-19)
(1.18559 -0.592496 -5.58732e-20)
(1.19356 -0.567431 5.04957e-20)
(1.19711 -0.540021 -1.59882e-19)
(0.246311 -0.121013 -1.61017e-19)
(0.591872 -0.301725 -2.06833e-19)
(0.833754 -0.434707 3.11657e-19)
(0.999029 -0.521159 -4.68257e-19)
(1.10725 -0.569097 8.22578e-20)
(1.17428 -0.588156 4.15739e-20)
(1.21287 -0.587119 9.19869e-20)
(1.23273 -0.573484 -6.04727e-20)
(1.24077 -0.553598 -7.2421e-20)
(1.24291 -0.52972 -2.35879e-19)
(0.240436 -0.0975684 6.71299e-19)
(0.587355 -0.252731 -5.25371e-19)
(0.836773 -0.376931 2.45462e-20)
(1.01185 -0.464233 -6.73199e-19)
(1.12966 -0.51799 -1.95427e-19)
(1.20468 -0.544843 1.56344e-19)
(1.24914 -0.551725 1.14544e-19)
(1.27272 -0.545172 -3.82065e-19)
(1.28252 -0.531184 1.67687e-19)
(1.28453 -0.511755 -3.02431e-19)
(0.229586 -0.0746121 3.33148e-19)
(0.571393 -0.202718 -3.29719e-19)
(0.825092 -0.315541 1.18317e-18)
(1.00902 -0.401307 9.43466e-20)
(1.13708 -0.459223 2.68323e-19)
(1.22172 -0.493027 9.57155e-19)
(1.27409 -0.507671 -1.98962e-19)
(1.30345 -0.508499 4.8315e-20)
(1.31688 -0.500956 -2.84384e-20)
(1.32028 -0.486799 -4.95288e-20)
(0.214444 -0.0531504 2.56806e-19)
(0.54485 -0.15397 5.8353e-19)
(0.799063 -0.253335 -5.94778e-19)
(0.990133 -0.335148 -1.80662e-19)
(1.12837 -0.395217 -1.91268e-19)
(1.22372 -0.434653 3.76545e-19)
(1.28574 -0.456425 -1.77683e-19)
(1.32289 -0.464538 4.18935e-19)
(1.34191 -0.463703 1.00805e-19)
(1.34841 -0.45542 -1.77286e-19)
(0.195856 -0.0339917 -2.77403e-19)
(0.50907 -0.10851 2.57424e-19)
(0.759689 -0.192986 -5.28493e-19)
(0.955467 -0.268575 2.21266e-19)
(1.10299 -0.328579 -2.21763e-19)
(1.20943 -0.371907 -2.63697e-19)
(1.28239 -0.399693 -2.04603e-19)
(1.3291 -0.414556 2.2574e-19)
(1.35567 -0.42033 -3.9236e-19)
(1.36715 -0.418231 2.48388e-19)
(0.174775 -0.017719 -1.03926e-19)
(0.465772 -0.0680015 -2.03936e-19)
(0.708578 -0.1369 9.59357e-20)
(0.906006 -0.204326 7.08308e-21)
(1.0611 -0.262007 7.63533e-20)
(1.17821 -0.307192 1.09397e-19)
(1.26274 -0.33945 9.31495e-20)
(1.32037 -0.360077 -1.2603e-19)
(1.35627 -0.371951 1.02736e-19)
(1.37465 -0.375986 -1.62286e-19)
(0.152191 -0.00468204 -6.5486e-20)
(0.416945 -0.0336823 -2.63953e-20)
(0.647853 -0.0871018 9.83497e-20)
(0.843431 -0.144924 -4.43697e-20)
(1.0036 -0.198186 1.24171e-19)
(1.13007 -0.243068 -1.56952e-19)
(1.22601 -0.277937 4.03217e-20)
(1.29535 -0.302934 3.46033e-20)
(1.34201 -0.31998 -1.23616e-20)
(1.36911 -0.329676 5.6735e-20)
(0.129071 0.00499455 -7.85611e-20)
(0.364701 -0.0063285 -3.33062e-19)
(0.580015 -0.0451371 -2.68243e-20)
(0.770038 -0.0925429 1.07068e-20)
(0.932158 -0.139656 -4.61991e-19)
(1.06584 -0.182158 4.87858e-20)
(1.17213 -0.217628 -5.16877e-20)
(1.25319 -0.245301 -1.40586e-19)
(1.3115 -0.266204 3.11071e-19)
(1.34885 -0.280637 -5.65934e-19)
(0.106293 0.0113861 -4.45385e-20)
(0.311141 0.0137428 7.14366e-19)
(0.50778 -0.0120121 9.52794e-20)
(0.688607 -0.0488895 -6.45312e-19)
(0.849158 -0.0886661 -7.72721e-20)
(0.987142 -0.127018 -7.27705e-19)
(1.10185 -0.161148 5.65838e-19)
(1.19374 -0.189675 -2.29658e-19)
(1.26384 -0.212846 4.35301e-19)
(1.31249 -0.230666 -3.84021e-19)
(0.084611 0.0147325 -2.51897e-19)
(0.258228 0.0266432 2.93298e-19)
(0.433899 0.0118354 -2.04869e-19)
(0.602223 -0.0151009 1.41612e-18)
(0.757549 -0.0470192 7.49597e-19)
(0.896411 -0.0799695 -1.96287e-19)
(1.01678 -0.111131 7.63244e-19)
(1.11772 -0.138798 -4.99036e-19)
(1.19888 -0.162564 -1.60483e-19)
(1.25919 -0.182097 1.15951e-18)
(0.0646184 0.0153976 -4.65668e-19)
(0.207682 0.0328632 6.95269e-19)
(0.360982 0.0265372 -1.31852e-18)
(0.514053 0.00833841 2.28232e-19)
(0.660653 -0.0159068 5.6905e-19)
(0.796701 -0.0428757 -7.15101e-19)
(0.91936 -0.0699942 -1.26653e-18)
(1.02673 -0.0954716 6.78965e-19)
(1.11735 -0.118343 -8.83006e-19)
(1.18885 -0.137793 1.41309e-18)
(0.0467452 0.0138316 -1.15116e-19)
(0.160911 0.0332168 -6.99808e-19)
(0.291339 0.0327801 3.45454e-19)
(0.427114 0.0216646 8.64156e-19)
(0.561883 0.00426164 -4.64182e-19)
(0.69144 -0.0168804 -4.58079e-19)
(0.812662 -0.0396128 -7.76652e-19)
(0.923199 -0.0622301 -3.55879e-19)
(1.02086 -0.0832293 -8.5467e-20)
(1.10226 -0.100992 1.41221e-18)
(0.0312702 0.0105458 1.93284e-19)
(0.118976 0.0287937 -9.50656e-19)
(0.226869 0.0317843 1.62605e-18)
(0.344063 0.0258913 -9.05443e-19)
(0.464446 0.0140394 5.86635e-19)
(0.58406 -0.00207618 -7.29951e-19)
(0.699967 -0.0208541 8.12989e-19)
(0.809928 -0.0407966 7.10031e-19)
(0.911576 -0.0598091 1.55133e-18)
(1.0009 -0.0748782 -2.5647e-18)
(0.018352 0.00610195 -6.00582e-19)
(0.0826126 0.0209186 1.20598e-18)
(0.169007 0.0252637 1.60938e-20)
(0.267055 0.0228311 -4.3438e-19)
(0.371088 0.0151007 -2.30675e-19)
(0.477615 0.00286577 1.84368e-19)
(0.584238 -0.0129431 -1.30891e-18)
(0.689404 -0.0312138 1.01127e-18)
(0.791332 -0.0492641 -1.30333e-18)
(0.88604 -0.0617493 -5.94917e-19)
(0.00806022 0.00110795 1.03348e-18)
(0.0522601 0.0110931 -3.22398e-19)
(0.118756 0.0153295 -6.04771e-19)
(0.197749 0.0150188 1.64253e-18)
(0.284048 0.0102794 -1.61349e-18)
(0.374603 0.000971959 9.01472e-19)
(0.467605 -0.0128152 9.60107e-19)
(0.562487 -0.0307701 2.62727e-19)
(0.658902 -0.050177 2.73252e-19)
(0.754558 -0.0623401 -3.87626e-19)
(0.000388695 -0.00380851 -9.88391e-19)
(0.028118 0.000874452 9.39451e-19)
(0.0768095 0.00427289 -8.31379e-19)
(0.137563 0.00546149 1.04308e-18)
(0.205553 0.0034425 -3.11635e-19)
(0.27782 -0.00270775 -1.08231e-18)
(0.352528 -0.0137257 3.10376e-19)
(0.429274 -0.030553 -5.12093e-19)
(0.509036 -0.0524532 -6.06529e-19)
(0.59417 -0.0694536 -1.89221e-18)
(-0.00477045 -0.00808576 -1.23468e-18)
(0.0101469 -0.00838449 9.81596e-19)
(0.0436436 -0.00593782 -1.92324e-18)
(0.0879961 -0.00320905 3.43909e-19)
(0.13875 -0.00175682 -1.3324e-18)
(0.192804 -0.00254282 -7.99104e-19)
(0.247586 -0.00588935 1.91235e-18)
(0.30116 -0.0120152 -2.61445e-18)
(0.352882 -0.0215151 5.03227e-19)
(0.400028 -0.0302478 -8.28669e-19)
(-0.00768223 -0.0113475 6.08187e-19)
(-0.00204463 -0.015839 2.57331e-19)
(0.0192554 -0.0143224 -7.65396e-20)
(0.0500646 -0.0103001 7.30851e-19)
(0.086702 -0.00565926 2.14609e-18)
(0.126594 -0.00136002 7.40706e-19)
(0.167733 0.00240719 7.65353e-19)
(0.20892 0.00569236 -2.64641e-19)
(0.250232 0.00783861 -2.46853e-18)
(0.289114 0.00926226 6.26045e-19)
(-0.00878373 -0.0134241 -1.71697e-19)
(-0.00932802 -0.0210859 5.46478e-19)
(0.00264613 -0.0205022 -1.43158e-19)
(0.0227356 -0.0158174 1.0108e-18)
(0.0481734 -0.00920557 -2.33707e-18)
(0.077014 -0.00182623 1.9837e-19)
(0.107829 0.00579401 -1.11227e-18)
(0.139842 0.0132483 1.63667e-18)
(0.172876 0.0195727 -4.78388e-19)
(0.204273 0.0240793 -6.83591e-20)
(-0.00858781 -0.014304 -1.16885e-19)
(-0.0128317 -0.0240055 -6.57203e-19)
(-0.00771331 -0.0243086 1.65282e-18)
(0.00407935 -0.0196268 -8.71454e-19)
(0.0206596 -0.0123268 6.12487e-20)
(0.0406177 -0.00378468 2.79664e-19)
(0.0629141 0.00513208 -2.5558e-19)
(0.086929 0.0136319 3.32161e-19)
(0.112249 0.0206141 1.15098e-18)
(0.136673 0.0252822 3.01189e-19)
(-0.00758375 -0.0140743 -2.62166e-19)
(-0.0136957 -0.0246648 -2.91602e-19)
(-0.0134291 -0.0257004 -1.29432e-18)
(-0.00792068 -0.0215113 6.89183e-19)
(0.00173562 -0.014492 -1.42151e-18)
(0.0145786 -0.00611542 3.22937e-19)
(0.0298494 0.00258967 3.63119e-19)
(0.0470086 0.0107141 -3.83743e-19)
(0.0655393 0.0172484 -2.48274e-19)
(0.0837989 0.0214697 -1.11581e-18)
(-0.00618705 -0.0128747 2.048e-19)
(-0.0129399 -0.0232572 -4.81731e-20)
(-0.0159822 -0.0247662 9.78678e-22)
(-0.0151343 -0.0213425 -6.22002e-19)
(-0.0108146 -0.0152249 1.57457e-18)
(-0.00361584 -0.00783523 -2.45595e-19)
(0.00591818 -0.00019624 -6.1289e-19)
(0.0173138 0.00683859 7.5015e-19)
(0.0300354 0.012452 -2.63616e-19)
(0.0429233 0.0160462 1.4571e-18)
(-0.00472403 -0.0108679 -3.84397e-20)
(-0.0114033 -0.0200601 -2.2537e-19)
(-0.0166177 -0.0217187 -8.89472e-20)
(-0.0191362 -0.0191489 -1.13634e-19)
(-0.018832 -0.0142672 -2.4431e-19)
(-0.0160035 -0.00831134 -7.67222e-19)
(-0.0110227 -0.002176 9.59699e-19)
(-0.0042965 0.00342973 5.60611e-19)
(0.0036628 0.00789611 -1.00428e-19)
(0.0120632 0.010764 -8.93751e-19)
(-0.00343574 -0.00822482 2.18287e-19)
(-0.00972808 -0.0154094 3.81457e-20)
(-0.0163015 -0.0168859 2.58202e-19)
(-0.0211436 -0.0151399 -2.95523e-20)
(-0.0237176 -0.011633 2.35112e-19)
(-0.0240982 -0.00731657 2.65261e-19)
(-0.0225238 -0.00287661 3.97679e-19)
(-0.0193385 0.00116411 -1.12656e-18)
(-0.0150202 0.00438883 -2.07927e-19)
(-0.010103 0.00647394 3.72648e-19)
(-0.00248969 -0.00512125 -1.10223e-19)
(-0.00837067 -0.00968533 -1.56661e-19)
(-0.0157252 -0.0106973 -7.53638e-20)
(-0.0220251 -0.0096971 3.68613e-19)
(-0.0264594 -0.00759786 1.78926e-19)
(-0.0289518 -0.00499639 3.66937e-20)
(-0.0296476 -0.002321 -7.95548e-20)
(-0.0288424 0.00011 -6.17126e-20)
(-0.0269847 0.00205489 5.29716e-19)
(-0.0244468 0.00332123 -3.60776e-19)
(-0.00199123 -0.00173829 5.61903e-20)
(-0.00762158 -0.00330242 6.99167e-20)
(-0.0153301 -0.00366166 -5.96173e-20)
(-0.0223324 -0.00333733 -5.45293e-20)
(-0.0276804 -0.00263969 -5.65386e-20)
(-0.0312214 -0.00177187 -9.02162e-20)
(-0.0330528 -0.000879252 2.89769e-21)
(-0.0334437 -6.85414e-05 1.25174e-19)
(-0.0328262 0.000581139 -1.25684e-19)
(-0.0314953 0.00100591 2.28672e-19)
(-0.00813482 -0.00258614 1.65344e-20)
(0.0621265 -0.00662895 9.88741e-21)
(0.277544 -0.00671136 1.3376e-21)
(0.37696 -0.0043864 -9.02416e-22)
(0.479667 -0.00367844 -6.35442e-23)
(0.553553 -0.00263541 1.48054e-22)
(0.606045 -0.0021829 1.66359e-22)
(0.660344 -0.00158499 -3.40127e-23)
(0.683575 -0.00146863 -2.48848e-24)
(0.733805 -0.0010105 2.43877e-22)
(0.00866496 -0.00806115 2.62206e-20)
(0.0773806 -0.0197209 1.25332e-21)
(0.289034 -0.0199775 -1.74803e-20)
(0.385717 -0.0130618 1.40446e-20)
(0.486375 -0.0109651 8.87188e-22)
(0.558789 -0.00785986 -5.94164e-22)
(0.610316 -0.00651125 6.88874e-22)
(0.663704 -0.00471785 6.97539e-23)
(0.686508 -0.00437193 1.40198e-22)
(0.736028 -0.00301653 -2.23491e-22)
(0.0419698 -0.0144165 2.6857e-20)
(0.107415 -0.0323319 -3.61026e-20)
(0.311588 -0.0327847 1.78693e-20)
(0.402917 -0.0214365 -1.16347e-20)
(0.499558 -0.0180245 8.28276e-22)
(0.569092 -0.0129328 -6.45486e-22)
(0.618733 -0.0107246 -2.56851e-22)
(0.670336 -0.00777099 8.87141e-25)
(0.692304 -0.00720939 -1.07351e-22)
(0.740433 -0.00498301 -3.26316e-22)
(0.0911779 -0.0221303 -4.1627e-20)
(0.151307 -0.0441626 -5.01137e-20)
(0.344374 -0.0448478 -2.31231e-20)
(0.427956 -0.029327 1.21279e-20)
(0.518764 -0.0247169 -1.45368e-20)
(0.584139 -0.0177609 3.84477e-21)
(0.631053 -0.0147513 -2.08918e-22)
(0.68007 -0.0106946 1.20968e-22)
(0.700834 -0.00993944 -1.29012e-22)
(0.746939 -0.0068846 1.21098e-22)
(0.155358 -0.0314755 1.15129e-19)
(0.20773 -0.0549254 7.22386e-20)
(0.386205 -0.0559033 2.59801e-20)
(0.459964 -0.036571 -2.35678e-20)
(0.543347 -0.0309183 1.19325e-20)
(0.603464 -0.0222613 3.16059e-21)
(0.646924 -0.0185273 2.20989e-21)
(0.69266 -0.0134438 2.3951e-22)
(0.711904 -0.0125238 2.86582e-22)
(0.755426 -0.00869755 -6.42704e-22)
(0.233229 -0.0423794 -5.08265e-20)
(0.275009 -0.0643053 3.9001e-20)
(0.435601 -0.0656976 4.82042e-21)
(0.497863 -0.0430252 2.62838e-20)
(0.572505 -0.0365218 -5.94646e-21)
(0.626488 -0.0263635 -3.68345e-21)
(0.665908 -0.0219971 -2.28274e-21)
(0.707794 -0.0159798 -1.47776e-22)
(0.725271 -0.0149287 -1.55568e-22)
(0.765741 -0.0104002 6.89503e-22)
(0.323163 -0.0545619 -3.8678e-20)
(0.351172 -0.0720379 -1.00779e-19)
(0.490865 -0.0740281 -1.70468e-20)
(0.540414 -0.0485738 -1.46385e-20)
(0.605323 -0.0414449 6.97223e-21)
(0.652543 -0.0300121 -1.94207e-21)
(0.687497 -0.0251168 2.45563e-21)
(0.725111 -0.0182707 4.49875e-22)
(0.740649 -0.0171258 -4.66104e-23)