/*--------------------------------*- C++ -*----------------------------------*\
  =========                 |
  \\      /  F ield         | OpenFOAM: The Open Source CFD Toolbox
   \\    /   O peration     | Website:  https://openfoam.org
    \\  /    A nd           | Version:  6.0
     \\/     M anipulation  |
\*---------------------------------------------------------------------------*/
FoamFile
{
    version     2.0;
    format      ascii;
    class       volScalarField;
    location    "3.5";
    object      p;
}
// * * * * * * * * * * * * * * * * * * * * * * * * * * * * * * * * * * * * * //

dimensions      [0 2 -2 0 0 0 0];

internalField   nonuniform List<scalar> 
24000
(
1.00687
1.00689
1.00646
1.00577
1.0048
1.00374
1.00271
1.00181
1.00106
1.00051
1.00006
0.999764
1.00688
1.00695
1.00662
1.00607
1.0052
1.00421
1.00318
1.00222
1.00135
1.00069
1.00008
0.999673
1.00688
1.00693
1.00658
1.006
1.00511
1.00413
1.0031
1.00216
1.00131
1.00068
1.00007
0.999707
1.00688
1.00691
1.00653
1.00592
1.00502
1.00404
1.00303
1.00211
1.00129
1.00068
1.00008
0.999725
1.00689
1.00692
1.00653
1.00593
1.00503
1.00406
1.00306
1.00215
1.00133
1.00071
1.00008
0.999702
1.00689
1.00692
1.00655
1.00595
1.00506
1.00409
1.00309
1.00218
1.00135
1.00071
1.00006
0.999664
1.0069
1.00693
1.00656
1.00596
1.00507
1.0041
1.0031
1.00218
1.00134
1.0007
1.00003
0.999636
1.0069
1.00693
1.00657
1.00598
1.00509
1.00412
1.00312
1.00219
1.00135
1.00071
1.00003
0.999622
1.00691
1.00693
1.00658
1.006
1.00513
1.00417
1.00316
1.00224
1.0014
1.00074
1.00004
0.999613
1.00692
1.00694
1.00659
1.00603
1.00517
1.00421
1.00321
1.00229
1.00144
1.00077
1.00005
0.999599
1.00693
1.00695
1.0066
1.00604
1.0052
1.00425
1.00325
1.00233
1.00147
1.00079
1.00005
0.999579
1.00693
1.00695
1.00661
1.00606
1.00522
1.00427
1.00327
1.00235
1.00148
1.00079
1.00005
0.999558
1.00694
1.00695
1.00661
1.00606
1.00523
1.00429
1.00329
1.00236
1.00149
1.00079
1.00004
0.999539
1.00696
1.00696
1.00662
1.00607
1.00524
1.0043
1.00331
1.00238
1.0015
1.0008
1.00003
0.999522
1.00697
1.00697
1.00663
1.00608
1.00526
1.00432
1.00333
1.0024
1.00152
1.0008
1.00003
0.999508
1.00698
1.00698
1.00664
1.00609
1.00527
1.00434
1.00336
1.00242
1.00153
1.00081
1.00003
0.999495
1.007
1.007
1.00665
1.0061
1.00529
1.00436
1.00338
1.00244
1.00155
1.00082
1.00003
0.999483
1.00701
1.00701
1.00667
1.00612
1.0053
1.00438
1.0034
1.00246
1.00157
1.00083
1.00003
0.999472
1.00703
1.00703
1.0067
1.00614
1.00533
1.00441
1.00343
1.00248
1.00158
1.00084
1.00004
0.999462
1.00704
1.00705
1.00672
1.00617
1.00535
1.00444
1.00345
1.00251
1.0016
1.00085
1.00004
0.999454
1.00706
1.00707
1.00675
1.0062
1.00539
1.00447
1.00349
1.00254
1.00163
1.00086
1.00004
0.999445
1.00708
1.0071
1.00678
1.00623
1.00542
1.00451
1.00352
1.00257
1.00165
1.00088
1.00005
0.999437
1.0071
1.00712
1.0068
1.00626
1.00546
1.00454
1.00356
1.0026
1.00167
1.00089
1.00005
0.999429
1.00712
1.00714
1.00683
1.00629
1.00549
1.00458
1.00359
1.00263
1.00169
1.0009
1.00006
0.999421
1.00714
1.00716
1.00685
1.00632
1.00552
1.00461
1.00362
1.00265
1.00171
1.00091
1.00006
0.999413
1.00716
1.00718
1.00688
1.00635
1.00555
1.00464
1.00365
1.00268
1.00173
1.00092
1.00006
0.999406
1.00718
1.00721
1.0069
1.00638
1.00559
1.00468
1.00368
1.00271
1.00175
1.00093
1.00007
0.999399
1.0072
1.00723
1.00693
1.00641
1.00562
1.00471
1.00371
1.00273
1.00177
1.00094
1.00007
0.999392
1.00722
1.00725
1.00695
1.00644
1.00565
1.00474
1.00374
1.00276
1.00179
1.00095
1.00007
0.999384
1.00724
1.00728
1.00698
1.00646
1.00568
1.00477
1.00378
1.00279
1.00181
1.00096
1.00007
0.999377
1.00727
1.0073
1.007
1.00649
1.00571
1.00481
1.00381
1.00281
1.00183
1.00097
1.00008
0.999368
1.00729
1.00733
1.00703
1.00652
1.00574
1.00484
1.00384
1.00284
1.00185
1.00098
1.00008
0.99936
1.00732
1.00735
1.00706
1.00655
1.00577
1.00487
1.00387
1.00286
1.00186
1.00098
1.00008
0.999352
1.00734
1.00738
1.00708
1.00658
1.0058
1.0049
1.00389
1.00288
1.00188
1.00099
1.00008
0.999343
1.00737
1.00741
1.00711
1.00661
1.00583
1.00493
1.00392
1.00291
1.0019
1.001
1.00008
0.999334
1.0074
1.00744
1.00714
1.00664
1.00587
1.00496
1.00395
1.00293
1.00191
1.001
1.00008
0.999326
1.00743
1.00747
1.00717
1.00667
1.0059
1.00499
1.00398
1.00295
1.00193
1.00101
1.00007
0.999317
1.00747
1.0075
1.00721
1.00671
1.00593
1.00502
1.004
1.00297
1.00194
1.00101
1.00007
0.999308
1.0075
1.00754
1.00724
1.00674
1.00596
1.00506
1.00403
1.003
1.00196
1.00102
1.00007
0.999299
1.00753
1.00757
1.00728
1.00678
1.006
1.00509
1.00407
1.00302
1.00197
1.00103
1.00007
0.99929
1.00757
1.00761
1.00732
1.00682
1.00604
1.00513
1.0041
1.00305
1.00199
1.00103
1.00007
0.999281
1.0076
1.00765
1.00736
1.00686
1.00608
1.00517
1.00413
1.00307
1.00201
1.00104
1.00007
0.999271
1.00764
1.00769
1.00741
1.00691
1.00613
1.00521
1.00417
1.0031
1.00203
1.00105
1.00007
0.99926
1.00768
1.00773
1.00745
1.00695
1.00617
1.00525
1.0042
1.00313
1.00205
1.00105
1.00007
0.999248
1.00772
1.00777
1.00749
1.007
1.00622
1.00529
1.00424
1.00316
1.00207
1.00106
1.00007
0.999236
1.00776
1.00782
1.00754
1.00705
1.00626
1.00533
1.00428
1.00319
1.00208
1.00107
1.00006
0.999223
1.0078
1.00786
1.00758
1.00709
1.0063
1.00537
1.00431
1.00321
1.0021
1.00107
1.00006
0.999209
1.00784
1.0079
1.00763
1.00714
1.00635
1.00542
1.00435
1.00324
1.00211
1.00107
1.00005
0.999194
1.00788
1.00795
1.00767
1.00718
1.00639
1.00546
1.00438
1.00326
1.00213
1.00108
1.00005
0.999179
1.00792
1.00799
1.00772
1.00723
1.00644
1.0055
1.00442
1.00329
1.00214
1.00108
1.00004
0.999162
1.00797
1.00804
1.00776
1.00727
1.00648
1.00554
1.00445
1.00331
1.00216
1.00108
1.00003
0.999145
1.00801
1.00808
1.00781
1.00732
1.00653
1.00558
1.00448
1.00334
1.00217
1.00109
1.00003
0.999127
1.00806
1.00813
1.00786
1.00737
1.00657
1.00562
1.00452
1.00336
1.00219
1.00109
1.00002
0.999108
1.00811
1.00818
1.00791
1.00742
1.00662
1.00566
1.00455
1.00339
1.0022
1.00109
1.00001
0.999088
1.00816
1.00823
1.00796
1.00747
1.00667
1.0057
1.00459
1.00341
1.00221
1.00109
0.999997
0.999068
1.00821
1.00828
1.00801
1.00752
1.00671
1.00575
1.00462
1.00344
1.00222
1.00109
0.999985
0.999047
1.00826
1.00834
1.00806
1.00757
1.00676
1.00579
1.00466
1.00346
1.00224
1.00109
0.999973
0.999025
1.00831
1.00839
1.00812
1.00763
1.00681
1.00583
1.00469
1.00349
1.00225
1.00108
0.999961
0.999004
1.00836
1.00845
1.00817
1.00768
1.00686
1.00588
1.00473
1.00351
1.00226
1.00108
0.999948
0.998981
1.00842
1.00851
1.00823
1.00774
1.00692
1.00592
1.00476
1.00354
1.00227
1.00108
0.999934
0.998958
1.00848
1.00857
1.00829
1.0078
1.00697
1.00597
1.0048
1.00356
1.00229
1.00108
0.99992
0.998934
1.00853
1.00863
1.00835
1.00786
1.00703
1.00602
1.00484
1.00359
1.0023
1.00108
0.999905
0.998909
1.00859
1.00869
1.00842
1.00792
1.00708
1.00607
1.00488
1.00362
1.00231
1.00107
0.99989
0.998883
1.00865
1.00875
1.00848
1.00799
1.00714
1.00612
1.00492
1.00364
1.00232
1.00107
0.999874
0.998856
1.00871
1.00882
1.00855
1.00805
1.0072
1.00617
1.00496
1.00367
1.00233
1.00107
0.999857
0.998827
1.00877
1.00889
1.00862
1.00812
1.00726
1.00623
1.005
1.0037
1.00234
1.00106
0.999839
0.998797
1.00884
1.00895
1.00868
1.00819
1.00733
1.00628
1.00504
1.00372
1.00235
1.00106
0.99982
0.998767
1.0089
1.00902
1.00875
1.00825
1.00739
1.00633
1.00508
1.00375
1.00236
1.00105
0.999801
0.998734
1.00897
1.00909
1.00882
1.00832
1.00745
1.00639
1.00512
1.00377
1.00237
1.00104
0.99978
0.998701
1.00904
1.00917
1.00889
1.00839
1.00751
1.00644
1.00517
1.0038
1.00238
1.00103
0.999757
0.998667
1.0091
1.00924
1.00896
1.00846
1.00758
1.00649
1.00521
1.00382
1.00239
1.00102
0.999734
0.998632
1.00917
1.00931
1.00904
1.00853
1.00764
1.00655
1.00525
1.00385
1.0024
1.00101
0.99971
0.998596
1.00925
1.00939
1.00911
1.0086
1.0077
1.0066
1.00529
1.00387
1.0024
1.001
0.999685
0.998559
1.00932
1.00947
1.00919
1.00868
1.00777
1.00666
1.00533
1.0039
1.00241
1.00099
0.999659
0.998521
1.0094
1.00955
1.00927
1.00875
1.00784
1.00672
1.00537
1.00392
1.00241
1.00098
0.999632
0.998483
1.00947
1.00963
1.00935
1.00883
1.00791
1.00677
1.00541
1.00394
1.00242
1.00097
0.999605
0.998444
1.00955
1.00971
1.00943
1.00891
1.00798
1.00683
1.00545
1.00397
1.00242
1.00096
0.999576
0.998404
1.00963
1.00979
1.00951
1.00899
1.00805
1.00689
1.0055
1.00399
1.00243
1.00094
0.999547
0.998363
1.00972
1.00988
1.0096
1.00907
1.00812
1.00695
1.00554
1.00402
1.00244
1.00093
0.999518
0.998322
1.0098
1.00997
1.00968
1.00915
1.0082
1.00701
1.00558
1.00404
1.00244
1.00092
0.999488
0.998279
1.00989
1.01006
1.00977
1.00924
1.00827
1.00708
1.00563
1.00407
1.00245
1.0009
0.999457
0.998236
1.00998
1.01015
1.00986
1.00933
1.00835
1.00714
1.00568
1.0041
1.00245
1.00089
0.999425
0.998191
1.01007
1.01025
1.00996
1.00942
1.00843
1.00721
1.00572
1.00412
1.00246
1.00087
0.999393
0.998145
1.01016
1.01034
1.01005
1.00951
1.00851
1.00727
1.00577
1.00415
1.00246
1.00086
0.999359
0.998098
1.01025
1.01044
1.01015
1.0096
1.00859
1.00734
1.00582
1.00418
1.00247
1.00084
0.999325
0.998049
1.01035
1.01054
1.01025
1.0097
1.00868
1.00741
1.00587
1.00421
1.00247
1.00082
0.999289
0.997999
1.01044
1.01064
1.01035
1.00979
1.00876
1.00748
1.00592
1.00423
1.00247
1.00081
0.999253
0.997948
1.01054
1.01075
1.01045
1.00989
1.00885
1.00755
1.00597
1.00426
1.00248
1.00079
0.999215
0.997894
1.01065
1.01085
1.01055
1.00999
1.00894
1.00763
1.00602
1.00429
1.00248
1.00077
0.999176
0.99784
1.01075
1.01096
1.01066
1.0101
1.00903
1.0077
1.00607
1.00432
1.00249
1.00075
0.999135
0.997783
1.01085
1.01107
1.01077
1.0102
1.00912
1.00778
1.00612
1.00435
1.00249
1.00073
0.999094
0.997726
1.01096
1.01118
1.01088
1.01031
1.00921
1.00785
1.00618
1.00438
1.00249
1.00071
0.999051
0.997666
1.01107
1.01129
1.01099
1.01041
1.00931
1.00793
1.00623
1.00441
1.00249
1.00068
0.999007
0.997605
1.01118
1.01141
1.01111
1.01053
1.00941
1.00801
1.00629
1.00444
1.00249
1.00066
0.998961
0.997541
1.0113
1.01153
1.01122
1.01064
1.00951
1.00809
1.00634
1.00447
1.0025
1.00063
0.998914
0.997477
1.01142
1.01165
1.01134
1.01075
1.00961
1.00818
1.0064
1.0045
1.0025
1.00061
0.998866
0.99741
1.01153
1.01177
1.01147
1.01087
1.00971
1.00826
1.00646
1.00453
1.0025
1.00058
0.998816
0.997341
1.01166
1.0119
1.01159
1.01099
1.00982
1.00835
1.00652
1.00456
1.0025
1.00056
0.998764
0.99727
1.01178
1.01203
1.01172
1.01112
1.00993
1.00844
1.00658
1.00459
1.0025
1.00053
0.998711
0.997197
1.01191
1.01216
1.01185
1.01124
1.01004
1.00853
1.00664
1.00463
1.0025
1.0005
0.998656
0.997122
1.01204
1.0123
1.01199
1.01137
1.01015
1.00862
1.0067
1.00466
1.0025
1.00047
0.9986
0.997045
1.01217
1.01243
1.01213
1.01151
1.01027
1.00872
1.00677
1.00469
1.0025
1.00044
0.998541
0.996966
1.0123
1.01258
1.01227
1.01164
1.01039
1.00881
1.00683
1.00473
1.00249
1.0004
0.998481
0.996884
1.01244
1.01272
1.01241
1.01178
1.01051
1.00891
1.0069
1.00476
1.00249
1.00037
0.998419
0.9968
1.01258
1.01287
1.01256
1.01192
1.01064
1.00901
1.00697
1.00479
1.00249
1.00033
0.998355
0.996714
1.01272
1.01302
1.01271
1.01206
1.01076
1.00911
1.00704
1.00483
1.00249
1.0003
0.998288
0.996624
1.01287
1.01317
1.01287
1.01221
1.01089
1.00922
1.0071
1.00486
1.00248
1.00026
0.99822
0.996533
1.01301
1.01333
1.01302
1.01236
1.01103
1.00932
1.00718
1.00489
1.00248
1.00022
0.998149
0.996438
1.01317
1.01349
1.01318
1.01252
1.01116
1.00943
1.00725
1.00493
1.00247
1.00018
0.998076
0.996341
1.01332
1.01365
1.01335
1.01267
1.0113
1.00954
1.00732
1.00496
1.00246
1.00013
0.998
0.99624
1.01348
1.01382
1.01351
1.01283
1.01144
1.00965
1.00739
1.005
1.00246
1.00009
0.997923
0.996137
1.01364
1.01399
1.01368
1.01299
1.01158
1.00976
1.00747
1.00503
1.00245
1.00004
0.997842
0.996031
1.0138
1.01416
1.01386
1.01316
1.01172
1.00988
1.00754
1.00506
1.00244
0.99999
0.997759
0.995922
1.01397
1.01434
1.01404
1.01333
1.01187
1.00999
1.00762
1.0051
1.00243
0.999938
0.997673
0.995809
1.01414
1.01452
1.01422
1.0135
1.01202
1.01011
1.00769
1.00513
1.00242
0.999884
0.997584
0.995693
1.01432
1.0147
1.0144
1.01367
1.01217
1.01023
1.00777
1.00516
1.0024
0.999828
0.997493
0.995573
1.01449
1.01489
1.01459
1.01385
1.01233
1.01035
1.00785
1.0052
1.00239
0.99977
0.997398
0.995451
1.01468
1.01508
1.01478
1.01403
1.01249
1.01048
1.00793
1.00523
1.00237
0.99971
0.997301
0.995324
1.01486
1.01528
1.01498
1.01422
1.01265
1.01061
1.00801
1.00526
1.00236
0.999648
0.9972
0.995194
1.01505
1.01548
1.01518
1.01441
1.01282
1.01073
1.0081
1.00529
1.00234
0.999582
0.997096
0.99506
1.01524
1.01568
1.01538
1.0146
1.01299
1.01086
1.00818
1.00533
1.00232
0.999515
0.996989
0.994922
1.01544
1.01589
1.01559
1.0148
1.01316
1.011
1.00826
1.00536
1.0023
0.999444
0.996878
0.99478
1.01564
1.01611
1.0158
1.015
1.01333
1.01113
1.00835
1.00539
1.00228
0.999372
0.996764
0.994634
1.01585
1.01632
1.01602
1.01521
1.01351
1.01127
1.00843
1.00542
1.00225
0.999296
0.996646
0.994484
1.01606
1.01655
1.01624
1.01542
1.01369
1.01141
1.00852
1.00545
1.00223
0.999217
0.996525
0.994329
1.01627
1.01677
1.01647
1.01563
1.01388
1.01155
1.00861
1.00548
1.0022
0.999135
0.996399
0.99417
1.01649
1.017
1.0167
1.01585
1.01407
1.0117
1.0087
1.00551
1.00217
0.99905
0.99627
0.994006
1.01671
1.01724
1.01693
1.01607
1.01426
1.01184
1.00879
1.00554
1.00214
0.998962
0.996136
0.993838
1.01694
1.01748
1.01717
1.0163
1.01445
1.01199
1.00888
1.00557
1.0021
0.99887
0.995998
0.993664
1.01718
1.01773
1.01742
1.01653
1.01465
1.01214
1.00897
1.00559
1.00207
0.998775
0.995855
0.993486
1.01741
1.01798
1.01767
1.01676
1.01485
1.01229
1.00906
1.00562
1.00203
0.998676
0.995708
0.993303
1.01765
1.01823
1.01792
1.017
1.01506
1.01245
1.00916
1.00564
1.00199
0.998574
0.995556
0.993114
1.0179
1.01849
1.01818
1.01725
1.01527
1.01261
1.00925
1.00567
1.00195
0.998468
0.9954
0.99292
1.01815
1.01876
1.01845
1.0175
1.01548
1.01277
1.00935
1.00569
1.0019
0.998357
0.995239
0.99272
1.01841
1.01903
1.01872
1.01776
1.0157
1.01293
1.00944
1.00571
1.00185
0.998243
0.995073
0.992515
1.01867
1.01931
1.019
1.01802
1.01592
1.0131
1.00954
1.00573
1.0018
0.998124
0.994901
0.992304
1.01894
1.0196
1.01928
1.01828
1.01615
1.01326
1.00963
1.00575
1.00175
0.998002
0.994724
0.992087
1.01922
1.01989
1.01957
1.01855
1.01638
1.01343
1.00973
1.00577
1.00169
0.997874
0.994541
0.991863
1.0195
1.02019
1.01987
1.01883
1.01662
1.01361
1.00983
1.00579
1.00163
0.997742
0.994353
0.991634
1.01978
1.02049
1.02017
1.01911
1.01686
1.01378
1.00993
1.00581
1.00156
0.997606
0.994159
0.991398
1.02007
1.0208
1.02047
1.0194
1.0171
1.01396
1.01003
1.00582
1.0015
0.997464
0.993959
0.991156
1.02037
1.02112
1.02079
1.01969
1.01735
1.01414
1.01013
1.00583
1.00142
0.997317
0.993753
0.990906
1.02068
1.02144
1.02111
1.01999
1.0176
1.01433
1.01023
1.00584
1.00135
0.997165
0.993541
0.990649
1.02099
1.02177
1.02144
1.0203
1.01786
1.01452
1.01033
1.00585
1.00127
0.997007
0.993321
0.990385
1.0213
1.02211
1.02177
1.02061
1.01813
1.01471
1.01043
1.00586
1.00119
0.996844
0.993095
0.990114
1.02163
1.02245
1.02212
1.02093
1.0184
1.0149
1.01053
1.00586
1.0011
0.996675
0.992862
0.989835
1.02196
1.02281
1.02247
1.02126
1.01867
1.01509
1.01063
1.00586
1.00101
0.9965
0.992622
0.989549
1.0223
1.02317
1.02283
1.02159
1.01895
1.01529
1.01074
1.00586
1.00091
0.996318
0.992374
0.989254
1.02265
1.02353
1.02319
1.02193
1.01923
1.01549
1.01084
1.00586
1.00081
0.99613
0.992119
0.988951
1.023
1.02391
1.02357
1.02228
1.01953
1.0157
1.01094
1.00585
1.0007
0.995935
0.991855
0.988639
1.02336
1.0243
1.02395
1.02264
1.01982
1.01591
1.01104
1.00584
1.00059
0.995733
0.991584
0.988319
1.02373
1.02469
1.02434
1.023
1.02012
1.01612
1.01114
1.00583
1.00047
0.995524
0.991304
0.98799
1.02411
1.0251
1.02474
1.02337
1.02043
1.01633
1.01125
1.00582
1.00035
0.995307
0.991016
0.987652
1.0245
1.02551
1.02515
1.02375
1.02075
1.01655
1.01135
1.0058
1.00022
0.995082
0.990718
0.987303
1.0249
1.02593
1.02557
1.02414
1.02107
1.01677
1.01145
1.00577
1.00009
0.99485
0.990412
0.986946
1.0253
1.02636
1.026
1.02454
1.02139
1.01699
1.01155
1.00575
0.999943
0.994609
0.990096
0.986578
1.02572
1.0268
1.02644
1.02495
1.02173
1.01721
1.01165
1.00571
0.999795
0.99436
0.989771
0.986201
1.02614
1.02726
1.02689
1.02536
1.02207
1.01744
1.01174
1.00568
0.999638
0.994101
0.989435
0.985812
1.02658
1.02772
1.02735
1.02579
1.02241
1.01767
1.01184
1.00564
0.999474
0.993833
0.989089
0.985413
1.02702
1.02819
1.02782
1.02622
1.02277
1.01791
1.01194
1.00559
0.999302
0.993556
0.988732
0.985002
1.02748
1.02868
1.0283
1.02666
1.02313
1.01815
1.01203
1.00554
0.999123
0.993269
0.988365
0.984581
1.02794
1.02918
1.0288
1.02712
1.02349
1.01839
1.01212
1.00548
0.998934
0.992971
0.987985
0.984147
1.02842
1.02969
1.0293
1.02758
1.02387
1.01863
1.01221
1.00542
0.998737
0.992663
0.987595
0.983702
1.02891
1.03021
1.02982
1.02806
1.02425
1.01887
1.0123
1.00535
0.99853
0.992343
0.987192
0.983243
1.02941
1.03074
1.03035
1.02855
1.02464
1.01912
1.01239
1.00528
0.998314
0.992013
0.986777
0.982773
1.02992
1.03129
1.0309
1.02905
1.02504
1.01937
1.01247
1.00519
0.998086
0.991669
0.986349
0.982288
1.03045
1.03185
1.03146
1.02956
1.02545
1.01963
1.01255
1.0051
0.997849
0.991314
0.985908
0.981792
1.03099
1.03243
1.03203
1.03008
1.02586
1.01988
1.01262
1.005
0.9976
0.990946
0.985453
0.98128
1.03154
1.03302
1.03262
1.03062
1.02628
1.02014
1.0127
1.00489
0.99734
0.990565
0.984984
0.980755
1.0321
1.03362
1.03322
1.03117
1.02671
1.0204
1.01276
1.00478
0.997067
0.990169
0.9845
0.980214
1.03268
1.03425
1.03384
1.03173
1.02715
1.02066
1.01283
1.00465
0.996781
0.98976
0.984003
0.97966
1.03328
1.03488
1.03448
1.03231
1.0276
1.02092
1.01288
1.00451
0.996482
0.989335
0.983488
0.979089
1.03389
1.03554
1.03513
1.0329
1.02806
1.02119
1.01293
1.00437
0.996169
0.988895
0.982959
0.978504
1.03451
1.03621
1.0358
1.0335
1.02852
1.02145
1.01298
1.00421
0.995841
0.988439
0.982413
0.977901
1.03515
1.0369
1.03648
1.03412
1.02899
1.02172
1.01302
1.00403
0.995498
0.987967
0.98185
0.977282
1.03581
1.03761
1.03719
1.03476
1.02948
1.02198
1.01305
1.00385
0.995138
0.987476
0.98127
0.976645
1.03649
1.03834
1.03792
1.03541
1.02997
1.02225
1.01307
1.00365
0.994762
0.986969
0.980672
0.975992
1.03718
1.03908
1.03866
1.03608
1.03047
1.02251
1.01308
1.00343
0.994368
0.986442
0.980055
0.97532
1.0379
1.03985
1.03943
1.03677
1.03098
1.02277
1.01309
1.0032
0.993955
0.985897
0.979419
0.97463
1.03863
1.04064
1.04022
1.03747
1.03149
1.02304
1.01308
1.00296
0.993523
0.985331
0.978763
0.973921
1.03938
1.04146
1.04103
1.03819
1.03202
1.0233
1.01306
1.00269
0.993071
0.984745
0.978088
0.973192
1.04015
1.04229
1.04186
1.03893
1.03256
1.02355
1.01303
1.00241
0.992597
0.984137
0.977391
0.972443
1.04095
1.04315
1.04272
1.03969
1.0331
1.0238
1.01298
1.00211
0.992102
0.983507
0.976673
0.971675
1.04177
1.04404
1.0436
1.04047
1.03365
1.02405
1.01292
1.00178
0.991583
0.982853
0.975933
0.970884
1.04261
1.04495
1.04451
1.04127
1.03421
1.02429
1.01284
1.00144
0.99104
0.982176
0.97517
0.970072
1.04347
1.04589
1.04545
1.04209
1.03478
1.02453
1.01275
1.00107
0.990471
0.981473
0.974383
0.969238
1.04436
1.04686
1.04642
1.04293
1.03536
1.02476
1.01263
1.00067
0.989875
0.980745
0.973573
0.968382
1.04528
1.04786
1.04741
1.0438
1.03594
1.02497
1.0125
1.00025
0.989251
0.97999
0.972737
0.967502
1.04622
1.04889
1.04844
1.04468
1.03653
1.02518
1.01234
0.999801
0.988599
0.979208
0.971876
0.966599
1.04719
1.04995
1.0495
1.04559
1.03713
1.02538
1.01216
0.99932
0.987915
0.978396
0.970988
0.96567
1.0482
1.05105
1.05059
1.04652
1.03773
1.02556
1.01195
0.998808
0.9872
0.977555
0.970073
0.964718
1.04923
1.05218
1.05172
1.04748
1.03833
1.02572
1.01171
0.998262
0.986451
0.976683
0.96913
0.963739
1.05029
1.05335
1.05288
1.04846
1.03894
1.02587
1.01144
0.997681
0.985668
0.975779
0.968159
0.962735
1.05139
1.05456
1.05409
1.04947
1.03955
1.026
1.01113
0.997061
0.984848
0.974842
0.967157
0.961703
1.05253
1.0558
1.05533
1.0505
1.04016
1.0261
1.01079
0.996402
0.98399
0.973871
0.966126
0.960644
1.0537
1.0571
1.05661
1.05156
1.04076
1.02618
1.01041
0.9957
0.983092
0.972864
0.965064
0.959557
1.05491
1.05843
1.05794
1.05264
1.04137
1.02623
1.00999
0.994954
0.982153
0.971822
0.96397
0.958442
1.05616
1.05982
1.05931
1.05375
1.04197
1.02625
1.00953
0.99416
0.98117
0.970741
0.962842
0.957297
1.05745
1.06125
1.06073
1.05488
1.04256
1.02623
1.00901
0.993316
0.980142
0.969622
0.961682
0.956124
1.05878
1.06273
1.0622
1.05604
1.04314
1.02617
1.00844
0.992419
0.979067
0.968462
0.960487
0.954918
1.06017
1.06427
1.06372
1.05722
1.04371
1.02606
1.00781
0.991467
0.977944
0.967261
0.959257
0.953683
1.0616
1.06587
1.0653
1.05843
1.04426
1.02591
1.00713
0.990456
0.97677
0.966017
0.95799
0.952415
1.06308
1.06753
1.06693
1.05966
1.04478
1.0257
1.00637
0.989384
0.975543
0.96473
0.956687
0.951116
1.06461
1.06926
1.06862
1.06091
1.04528
1.02543
1.00555
0.988246
0.974261
0.963397
0.955346
0.949782
1.06621
1.07105
1.07037
1.06218
1.04575
1.0251
1.00465
0.987041
0.972923
0.962018
0.953967
0.948417
1.06786
1.07292
1.07218
1.06347
1.04617
1.02469
1.00367
0.985763
0.971526
0.960591
0.952548
0.947016
1.06957
1.07487
1.07406
1.06478
1.04655
1.02419
1.0026
0.984411
0.970068
0.959116
0.95109
0.945581
1.07135
1.07689
1.07601
1.06609
1.04688
1.02361
1.00144
0.98298
0.968548
0.95759
0.949591
0.944111
1.07321
1.07901
1.07802
1.06741
1.04715
1.02293
1.00019
0.981468
0.966963
0.956014
0.94805
0.942605
1.07513
1.08122
1.08011
1.06874
1.04734
1.02214
0.998825
0.979869
0.965311
0.954386
0.946467
0.941062
1.07714
1.08352
1.08228
1.07005
1.04745
1.02123
0.997352
0.978182
0.963591
0.952705
0.944842
0.939483
1.07923
1.08594
1.08451
1.07136
1.04746
1.0202
0.995761
0.976403
0.9618
0.950969
0.943174
0.937865
1.08141
1.08846
1.08683
1.07265
1.04736
1.01902
0.994045
0.974527
0.959938
0.949179
0.941462
0.936211
1.08368
1.09111
1.08922
1.0739
1.04714
1.01769
0.992197
0.972553
0.958003
0.947332
0.939705
0.934517
1.08606
1.09388
1.09168
1.07511
1.04677
1.01619
0.990211
0.970476
0.955993
0.94543
0.937905
0.932787
1.08854
1.0968
1.09422
1.07625
1.04625
1.01451
0.98808
0.968295
0.953907
0.94347
0.936059
0.931017
1.09114
1.09985
1.09683
1.07733
1.04554
1.01264
0.985796
0.966006
0.951744
0.941454
0.934168
0.92921
1.09387
1.10307
1.09951
1.0783
1.04462
1.01056
0.983354
0.963608
0.949504
0.939379
0.932231
0.927365
1.09674
1.10645
1.10225
1.07915
1.04347
1.00826
0.980748
0.961098
0.947185
0.937247
0.930249
0.925481
1.09975
1.11001
1.10503
1.07985
1.04207
1.00571
0.977973
0.958476
0.944788
0.935057
0.928222
0.923559
1.10292
1.11375
1.10786
1.08038
1.04037
1.00291
0.975022
0.95574
0.942312
0.93281
0.92615
0.921599
1.10627
1.1177
1.1107
1.08069
1.03836
0.999842
0.971895
0.952891
0.939759
0.930505
0.924032
0.919601
1.10981
1.12185
1.11355
1.08074
1.036
0.996487
0.968586
0.949928
0.937128
0.928144
0.92187
0.917565
1.11355
1.12622
1.11637
1.08049
1.03325
0.992835
0.965096
0.946854
0.934421
0.925728
0.919664
0.915491
1.11752
1.13082
1.11914
1.07988
1.03007
0.988873
0.961425
0.943671
0.93164
0.923257
0.917415
0.913381
1.12175
1.13565
1.1218
1.07886
1.02643
0.984593
0.957574
0.940381
0.928786
0.920734
0.915123
0.911234
1.12625
1.14072
1.12432
1.07735
1.02229
0.979985
0.953549
0.936988
0.925862
0.918159
0.91279
0.909051
1.13106
1.14603
1.12663
1.0753
1.01762
0.975048
0.949355
0.933496
0.922871
0.915536
0.910416
0.906832
1.13621
1.15157
1.12866
1.07261
1.01236
0.969782
0.945001
0.929913
0.919816
0.912866
0.908004
0.90458
1.14174
1.15733
1.13032
1.0692
1.0065
0.964193
0.9405
0.926243
0.916701
0.910151
0.905555
0.902293
1.14769
1.16328
1.13151
1.06498
1.00001
0.958294
0.935864
0.922494
0.913529
0.907396
0.90307
0.899974
1.15411
1.16939
1.13211
1.05985
0.99286
0.952103
0.93111
0.918673
0.910307
0.904603
0.900552
0.897623
1.16105
1.1756
1.13198
1.05371
0.985045
0.945646
0.926256
0.91479
0.907038
0.901777
0.898004
0.895243
1.16858
1.18185
1.13096
1.04647
0.976567
0.93896
0.921324
0.910853
0.903729
0.898922
0.895427
0.892834
1.17674
1.18803
1.12886
1.03802
0.967443
0.932085
0.916335
0.906871
0.900386
0.896043
0.892825
0.890399
1.18563
1.194
1.12548
1.02829
0.957711
0.925075
0.911312
0.902853
0.897016
0.893145
0.890201
0.887938
1.1953
1.19961
1.12059
1.01719
0.947432
0.917987
0.906277
0.898807
0.893625
0.890236
0.88756
0.885454
1.20583
1.20462
1.11394
1.00467
0.936695
0.910886
0.901252
0.894744
0.890224
0.887322
0.884905
0.882949
1.21727
1.20875
1.10525
0.99074
0.925612
0.903841
0.896256
0.890671
0.886821
0.884413
0.882245
0.880425
1.2297
1.21166
1.09426
0.975421
0.914332
0.89692
0.891306
0.886597
0.883427
0.881519
0.879586
0.877882
1.24313
1.21291
1.08066
0.958815
0.903023
0.890186
0.886411
0.882531
0.880054
0.878653
0.876943
0.87532
1.25757
1.21196
1.06422
0.941109
0.891884
0.883696
0.88158
0.878482
0.876717
0.875823
0.874314
0.872729
1.27294
1.20817
1.04469
0.922579
0.881112
0.877482
0.87681
0.874463
0.873447
0.873078
0.871747
0.870135
1.28909
1.20072
1.02195
0.903629
0.870933
0.871585
0.872096
0.870453
0.870192
0.87032
0.869122
0.867433
1.30568
1.18868
0.996012
0.884722
0.861461
0.865979
0.867511
0.866658
0.867272
0.867934
0.866764
0.864827
1.32222
1.17092
0.967232
0.866648
0.852992
0.860493
0.862563
0.862358
0.863791
0.865049
0.863907
0.861796
1.33773
1.14604
0.936034
0.849573
0.845952
0.856443
0.859227
0.859799
0.861922
0.863402
0.861781
0.859113
1.35108
1.11326
0.905417
0.833542
0.837111
0.849259
0.852948
0.855085
0.858833
0.861092
0.859175
0.855956
1.35868
1.06836
0.879824
0.827543
0.836935
0.848287
0.85087
0.853172
0.857661
0.860206
0.857857
0.85418
1.36182
0.997502
0.830915
0.80406
0.826457
0.842993
0.847953
0.85184
0.857354
0.860244
0.857872
0.854199
0.996371
0.997057
0.998042
0.99849
0.99845
0.998282
0.998247
0.998371
0.998525
0.998578
0.998491
0.998315
0.996957
0.997362
0.998099
0.998465
0.998445
0.998313
0.998284
0.998384
0.998512
0.998554
0.998471
0.998308
0.997459
0.997557
0.998037
0.998355
0.998403
0.998337
0.998315
0.998379
0.998468
0.998497
0.998426
0.998287
0.997726
0.99765
0.997984
0.9983
0.998418
0.998399
0.998364
0.998378
0.998423
0.998441
0.998387
0.998273
0.997878
0.997743
0.998005
0.998311
0.998452
0.998439
0.998377
0.998349
0.998365
0.998382
0.998347
0.998258
0.99802
0.997872
0.998075
0.998339
0.998462
0.998438
0.99836
0.998314
0.998321
0.998342
0.998323
0.998253
0.998173
0.998012
0.998148
0.998349
0.998443
0.998415
0.998342
0.998297
0.998301
0.998321
0.998308
0.998249
0.998313
0.99813
0.998199
0.998344
0.998417
0.998397
0.998337
0.998296
0.998293
0.998305
0.998292
0.99824
0.998418
0.998215
0.998234
0.998339
0.998401
0.998389
0.998339
0.998299
0.998287
0.99829
0.998276
0.99823
0.998488
0.998276
0.998265
0.998343
0.998396
0.998387
0.998342
0.9983
0.998282
0.998278
0.998263
0.998221
0.998539
0.998329
0.998299
0.998356
0.998397
0.998387
0.998344
0.998302
0.998279
0.99827
0.998252
0.998213
0.998584
0.998379
0.998335
0.998372
0.998401
0.998388
0.998347
0.998305
0.998278
0.998264
0.998242
0.998203
0.998626
0.998427
0.998369
0.998389
0.998406
0.998391
0.99835
0.998308
0.998278
0.998258
0.998232
0.998193
0.998664
0.998469
0.998402
0.998406
0.998414
0.998395
0.998355
0.998311
0.998277
0.998252
0.998223
0.998184
0.998698
0.998507
0.998431
0.998424
0.998424
0.998401
0.998359
0.998313
0.998275
0.998246
0.998215
0.998176
0.998727
0.99854
0.998459
0.998442
0.998434
0.998406
0.998362
0.998314
0.998274
0.998241
0.998208
0.998169
0.998752
0.99857
0.998485
0.99846
0.998443
0.998411
0.998365
0.998315
0.998272
0.998237
0.998201
0.998161
0.998775
0.998597
0.998508
0.998475
0.998452
0.998416
0.998368
0.998317
0.998271
0.998233
0.998195
0.998152
0.998795
0.998621
0.998528
0.998489
0.99846
0.998421
0.99837
0.998318
0.99827
0.998229
0.998187
0.998142
0.998812
0.99864
0.998545
0.998501
0.998468
0.998426
0.998373
0.998319
0.998268
0.998224
0.998178
0.998131
0.998825
0.998657
0.998559
0.998511
0.998475
0.99843
0.998376
0.998318
0.998265
0.998217
0.998169
0.998119
0.998835
0.99867
0.998572
0.998521
0.998481
0.998434
0.998377
0.998317
0.998261
0.99821
0.998159
0.998108
0.998844
0.998681
0.998583
0.998529
0.998487
0.998436
0.998376
0.998314
0.998255
0.998202
0.998149
0.998096
0.99885
0.998691
0.998592
0.998536
0.99849
0.998437
0.998374
0.998309
0.998249
0.998193
0.998139
0.998086
0.998856
0.998699
0.9986
0.998541
0.998492
0.998435
0.998371
0.998304
0.998241
0.998185
0.998129
0.998076
0.998861
0.998706
0.998605
0.998544
0.998491
0.998433
0.998366
0.998298
0.998234
0.998176
0.99812
0.998067
0.998864
0.998711
0.998609
0.998544
0.998489
0.998428
0.99836
0.998291
0.998226
0.998168
0.998112
0.998059
0.998866
0.998713
0.99861
0.998543
0.998485
0.998423
0.998354
0.998284
0.998219
0.99816
0.998104
0.99805
0.998866
0.998714
0.998609
0.99854
0.99848
0.998417
0.998347
0.998277
0.998211
0.998153
0.998095
0.998042
0.998865
0.998714
0.998608
0.998536
0.998475
0.99841
0.99834
0.99827
0.998204
0.998145
0.998087
0.998032
0.998863
0.998712
0.998605
0.998531
0.998468
0.998404
0.998334
0.998263
0.998196
0.998136
0.998077
0.998022
0.99886
0.99871
0.998601
0.998525
0.998462
0.998397
0.998327
0.998256
0.998188
0.998127
0.998067
0.998012
0.998856
0.998706
0.998596
0.998519
0.998456
0.99839
0.99832
0.998248
0.998179
0.998117
0.998056
0.998
0.998852
0.998703
0.998592
0.998514
0.998449
0.998383
0.998312
0.998239
0.998169
0.998106
0.998044
0.997987
0.998848
0.998699
0.998587
0.998507
0.998442
0.998376
0.998304
0.99823
0.998159
0.998094
0.998031
0.997974
0.998844
0.998695
0.998582
0.998501
0.998435
0.998368
0.998296
0.99822
0.998148
0.998081
0.998017
0.997959
0.99884
0.99869
0.998576
0.998494
0.998427
0.99836
0.998287
0.99821
0.998136
0.998068
0.998003
0.997944
0.998835
0.998685
0.998569
0.998486
0.998419
0.998351
0.998277
0.998199
0.998123
0.998054
0.997988
0.997928
0.998829
0.998678
0.998561
0.998478
0.99841
0.998342
0.998266
0.998187
0.99811
0.998039
0.997972
0.997911
0.998822
0.998671
0.998553
0.998468
0.9984
0.998332
0.998255
0.998175
0.998096
0.998024
0.997955
0.997894
0.998814
0.998662
0.998543
0.998458
0.99839
0.998321
0.998244
0.998162
0.998082
0.998008
0.997939
0.997876
0.998805
0.998652
0.998532
0.998447
0.998379
0.99831
0.998232
0.998148
0.998067
0.997992
0.997922
0.997858
0.998794
0.99864
0.998519
0.998435
0.998367
0.998297
0.998219
0.998134
0.998051
0.997976
0.997904
0.99784
0.998781
0.998627
0.998506
0.998421
0.998354
0.998285
0.998205
0.99812
0.998036
0.997959
0.997887
0.997822
0.998768
0.998612
0.998491
0.998407
0.99834
0.998271
0.998191
0.998105
0.99802
0.997942
0.997869
0.997804
0.998753