/*--------------------------------*- C++ -*----------------------------------*\
  =========                 |
  \\      /  F ield         | OpenFOAM: The Open Source CFD Toolbox
   \\    /   O peration     | Website:  https://openfoam.org
    \\  /    A nd           | Version:  6.0
     \\/     M anipulation  |
\*---------------------------------------------------------------------------*/
FoamFile
{
    version     2.0;
    format      ascii;
    class       surfaceScalarField;
    location    "3.5";
    object      phi;
}
// * * * * * * * * * * * * * * * * * * * * * * * * * * * * * * * * * * * * * //

dimensions      [0 3 -1 0 0 0 0];

internalField   nonuniform List<scalar> 
58656
(
2.37919e-05
0.00311205
-1.12953e-09
4.78845e-05
0.00307725
7.16896e-05
0.00300896
9.48174e-05
0.00290778
0.000116963
0.00277479
0.000137855
0.00261143
0.000157248
0.00241951
0.000174917
0.00220115
0.00019066
0.00195883
0.000204296
0.00169524
0.000215672
0.00141333
0.000224657
0.0011164
0.00023114
0.000807584
0.000235074
0.00049156
0.000179124
0.000238173
2.36433e-05
0.0030884
-3.11254e-09
4.7583e-05
0.00305331
7.12365e-05
0.00298531
9.42163e-05
0.0028848
0.00011622
0.00275278
0.000136979
0.00259067
0.000156248
0.00240024
0.000173804
0.0021836
0.000189446
0.00194318
0.000202996
0.00168169
0.000214301
0.00140202
0.000223233
0.00110746
0.000229646
0.000801164
0.000233833
0.000487364
0.000175887
0.000237055
2.34951e-05
0.00306491
-4.84948e-09
4.72828e-05
0.00302952
7.07856e-05
0.00296181
9.36188e-05
0.00286197
0.000115483
0.00273092
0.000136109
0.00257004
0.000155256
0.00238109
0.000172701
0.00216615
0.000188244
0.00192764
0.000201708
0.00166822
0.00021294
0.00139079
0.000221821
0.00109858
0.00022818
0.000794804
0.000232298
0.000483247
0.000172969
0.00023522
2.33477e-05
0.00304157
-6.43241e-09
4.69843e-05
0.00300588
7.03374e-05
0.00293845
9.30251e-05
0.00283928
0.00011475
0.00270919
0.000135245
0.00254955
0.00015427
0.00236206
0.000171605
0.00214882
0.000187049
0.00191219
0.000200427
0.00165484
0.000211588
0.00137962
0.000220418
0.00108975
0.000226739
0.000788475
0.00023075
0.000479226
0.000170337
0.000233364
2.32011e-05
0.00301838
-7.78045e-09
4.66875e-05
0.0029824
6.98918e-05
0.00291525
9.24349e-05
0.00281674
0.000114021
0.00268761
0.000134387
0.00252918
0.000153291
0.00234316
0.000170515
0.00213159
0.00018586
0.00189685
0.000199154
0.00164155
0.000210244
0.00136853
0.000219023
0.00108097
0.000225318
0.00078218
0.000229258
0.000475289
0.000167979
0.000231622
2.30551e-05
0.00299533
-8.96336e-09
4.63924e-05
0.00295906
6.94489e-05
0.00289219
9.18484e-05
0.00279434
0.000113298
0.00266615
0.000133534
0.00250894
0.000152318
0.00232437
0.000169432
0.00211448
0.00018468
0.00188159
0.000197889
0.00162833
0.000208908
0.00135751
0.000217635
0.00107223
0.00022391
0.000775897
0.000227805
0.000471383
0.000165783
0.00022998
2.29099e-05
0.00297243
-1.00085e-08
4.60988e-05
0.00293587
6.90086e-05
0.00286928
9.12655e-05
0.00277208
0.000112579
0.00264484
0.000132686
0.00248884
0.000151351
0.0023057
0.000168356
0.00209747
0.000183507
0.00186644
0.000196633
0.00161521
0.000207582
0.00134656
0.000216255
0.00106356
0.000222509
0.000769644
0.000226377
0.00046752
0.00016375
0.000228415
2.27654e-05
0.00294967
-1.08929e-08
4.58069e-05
0.00291283
6.8571e-05
0.00284651
9.06864e-05
0.00274996
0.000111864
0.00262366
0.000131845
0.00246885
0.000150391
0.00228716
0.000167288
0.00208057
0.000182343
0.00185138
0.000195385
0.00160216
0.000206265
0.00133567
0.000214884
0.00105494
0.000221115
0.000763406
0.000224963
0.000463662
0.000161793
0.000226897
2.26216e-05
0.00292706
-1.16194e-08
4.55167e-05
0.00288993
6.81361e-05
0.00282389
9.01111e-05
0.00272799
0.000111155
0.00260262
0.000131008
0.002449
0.000149436
0.00226873
0.000166226
0.00206378
0.000181185
0.00183643
0.000194145
0.0015892
0.000204956
0.00132486
0.000213521
0.00104637
0.000219726
0.000757203
0.000223556
0.000459837
0.000159951
0.000225405
2.24786e-05
0.0029046
-1.21649e-08
4.52283e-05
0.00286718
6.77039e-05
0.00280141
8.95395e-05
0.00270615
0.00011045
0.0025817
0.000130177
0.00242927
0.000148488
0.00225041
0.000165172
0.00204709
0.000180036
0.00182156
0.000192913
0.00157632
0.000203656
0.00131411
0.000212166
0.00103786
0.000218342
0.000751021
0.000222155
0.000456015
0.000158154
0.00022393
2.23364e-05
0.00288227
-1.25135e-08
4.49415e-05
0.00284457
6.72745e-05
0.00277908
8.89717e-05
0.00268445
0.000109749
0.00256093
0.000129352
0.00240967
0.000147547
0.00223222
0.000164124
0.00203052
0.000178893
0.00180679
0.00019169
0.00156353
0.000202365
0.00130344
0.000210821
0.00102941
0.000216965
0.000744879
0.000220758
0.000452228
0.000156452
0.000222469
2.2195e-05
0.00286009
-1.26565e-08
4.46566e-05
0.00282211
6.68479e-05
0.00275689
8.84076e-05
0.00266289
0.000109054
0.00254028
0.000128531
0.00239019
0.000146611
0.00221414
0.000163083
0.00201404
0.000177758
0.00179211
0.000190474
0.00155081
0.000201082
0.00129283
0.000209484
0.001021
0.000215595
0.000738762
0.000219367
0.000448447
0.000154776
0.000221023
2.20544e-05
0.00283805
-1.26079e-08
4.43734e-05
0.00279979
6.6424e-05
0.00273484
8.78471e-05
0.00264147
0.000108362
0.00251976
0.000127716
0.00237083
0.000145681
0.00219617
0.000162048
0.00199768
0.000176631
0.00177753
0.000189265
0.00153817
0.000199808
0.00128228
0.000208156
0.00101265
0.000214232
0.000732688
0.000217983
0.000444703
0.000153179
0.000219591
2.19147e-05
0.00281614
-1.23957e-08
4.40921e-05
0.00277761
6.60028e-05
0.00271292
8.72902e-05
0.00262018
0.000107675
0.00249938
0.000126907
0.0023516
0.000144757
0.00217832
0.00016102
0.00198141
0.00017551
0.00176304
0.000188065
0.00152562
0.000198542
0.0012718
0.000206836
0.00100435
0.000212877
0.000726642
0.000216605
0.000440967
0.000151597
0.000218172
2.17758e-05
0.00279438
-1.20589e-08
4.38125e-05
0.00275558
6.55843e-05
0.00269115
8.67369e-05
0.00259903
0.000106993
0.00247912
0.000126102
0.00233249
0.000143839
0.00216058
0.000159999
0.00196525
0.000174397
0.00174864
0.000186872
0.00151314
0.000197283
0.00126139
0.000205525
0.000996115
0.00021153
0.00072064
0.000215236
0.000437268
0.000150084
0.000216765
2.16378e-05
0.00277275
-1.16558e-08
4.35346e-05
0.00273368
6.51685e-05
0.00266952
8.61871e-05
0.00257801
0.000106314
0.00245899
0.000125302
0.0023135
0.000142927
0.00214296
0.000158984
0.00194919
0.000173291
0.00173433
0.000185687
0.00150074
0.000196033
0.00125104
0.000204223
0.000987921
0.000210191
0.000714667
0.000213873
0.000433578
0.000148576
0.000215369
2.15006e-05
0.00275126
-1.12409e-08
4.32586e-05
0.00271192
6.47554e-05
0.00264802
8.56408e-05
0.00255712
0.00010564
0.00243899
0.000124508
0.00229464
0.00014202
0.00212544
0.000157976
0.00193324
0.000172192
0.00172011
0.00018451
0.00148843
0.000194791
0.00124076
0.00020293
0.000979784
0.00020886
0.000708739
0.000212519
0.000429926
0.000147129
0.000213985
2.13643e-05
0.00272991
-1.08665e-08
4.29843e-05
0.0026903
6.43449e-05
0.00262666
8.50979e-05
0.00253636
0.000104971
0.00241912
0.000123718
0.00227589
0.000141119
0.00210804
0.000156974
0.00191738
0.000171099
0.00170599
0.00018334
0.00147618
0.000193557
0.00123054
0.000201644
0.000971693
0.000207538
0.00070284
0.000211174
0.000426283
0.000145682
0.000212612
2.12289e-05
0.00270869
-1.05768e-08
4.27118e-05
0.00266882
6.39369e-05
0.00260543
8.45584e-05
0.00251574
0.000104305
0.00239937
0.000122934
0.00225726
0.000140224
0.00209075
0.000155978
0.00190163
0.000170014
0.00169195
0.000182177
0.00146402
0.00019233
0.00122039
0.000200367
0.000963658
0.000206224
0.000696987
0.000209836
0.000422678
0.000144289
0.00021125
2.10943e-05
0.00268761
-1.0397e-08
4.2441e-05
0.00264747
6.35316e-05
0.00258434
8.40223e-05
0.00249525
0.000103644
0.00237975
0.000122154
0.00223875
0.000139335
0.00207357
0.000154989
0.00188597
0.000168936
0.001678
0.000181022
0.00145193
0.000191112
0.0012103
0.000199098
0.000955668
0.000204918
0.000691161
0.000208507
0.000419082
0.000142893
0.000209898
2.09606e-05
0.00266666
-1.03383e-08
4.2172e-05
0.00262626
6.31288e-05
0.00256338
8.34896e-05
0.00247489
0.000102986
0.00236025
0.000121379
0.00222035
0.000138451
0.00205649
0.000154006
0.00187042
0.000167865
0.00166414
0.000179874
0.00143992
0.000189901
0.00120027
0.000197837
0.000947734
0.000203621
0.000685381
0.000207186
0.000415525
0.000141543
0.000208557
2.08277e-05
0.00264584
-1.03987e-08
4.19046e-05
0.00260518
6.27285e-05
0.00254256
8.29601e-05
0.00245466
0.000102333
0.00234088
0.000120609
0.00220208
0.000137573
0.00203953
0.000153029
0.00185496
0.0001668
0.00165037
0.000178734
0.00142799
0.000188698
0.00119031
0.000196585
0.000939843
0.000202332
0.000679629
0.000205873
0.000411976
0.000140187
0.000207224
2.06956e-05
0.00262515
-1.05655e-08
4.16389e-05
0.00258423
6.23307e-05
0.00252187
8.2434e-05
0.00243455
0.000101684
0.00232163
0.000119844
0.00218392
0.0001367
0.00202267
0.000152058
0.0018396
0.000165742
0.00163668
0.000177601
0.00141613
0.000187502
0.00118041
0.00019534
0.000932007
0.00020105
0.000673921
0.000204569
0.000408465
0.000138875
0.000205901
2.05644e-05
0.0026046
-1.08253e-08
4.13748e-05
0.00256342
6.19354e-05
0.0025013
8.19111e-05
0.00241458
0.000101039
0.0023025
0.000119084
0.00216587
0.000135833
0.00200592
0.000151094
0.00182434
0.000164691
0.00162309
0.000176475
0.00140435
0.000186314
0.00117056
0.000194103
0.000924215
0.000199777
0.000668242
0.000203273
0.000404963
0.000137554
0.000204587
2.04341e-05
0.00258418
-1.11663e-08
4.11124e-05
0.00254274
6.15426e-05
0.00248087
8.13916e-05
0.00239473
0.000100398
0.00228349
0.000118329
0.00214794
0.000134972
0.00198928
0.000150135
0.00180918
0.000163647
0.00160957
0.000175356
0.00139264
0.000185133
0.00116079
0.000192874
0.000916476
0.000198512
0.000662606
0.000201984
0.000401499
0.000136272
0.000203282
2.03045e-05
0.00256388
-1.15821e-08
4.08517e-05
0.0025222
6.11522e-05
0.00246057
8.08752e-05
0.002375
9.97614e-05
0.0022646
0.000117578
0.00213012
0.000134115
0.00197274
0.000149183
0.00179411
0.000162609
0.00159615
0.000174244
0.001381
0.00018396
0.00115107
0.000191652
0.000908781
0.000197255
0.000656998
0.000200704
0.000398042
0.00013498
0.000201986
2.01758e-05
0.00254372
-1.20723e-08
4.05926e-05
0.00250178
6.07642e-05
0.0024404
8.03621e-05
0.00235541
9.91285e-05
0.00224584
0.000116832
0.00211242
0.000133265
0.00195631
0.000148237
0.00177914
0.000161578
0.00158281
0.000173139
0.00136944
0.000182795
0.00114142
0.000190438
0.000901139
0.000196006
0.000651434
0.000199432
0.000394624
0.000133727
0.000200699
2.0048e-05
0.00252368
-1.26387e-08
4.03351e-05
0.00248149
6.03787e-05
0.00242036
7.98523e-05
0.00233593
9.84996e-05
0.00222719
0.000116091
0.00209482
0.000132419
0.00193998
0.000147297
0.00176426
0.000160553
0.00156955
0.000172042
0.00135795
0.000181636
0.00113182
0.000189232
0.000893539
0.000194764
0.000645897
0.000198168
0.000391213
0.00013246
0.000199421
1.9921e-05
0.00250377
-1.32833e-08
4.00793e-05
0.00246133
5.99956e-05
0.00240044
7.93456e-05
0.00231658
9.78746e-05
0.00220866
0.000115354
0.00207734
0.000131579
0.00192375
0.000146362
0.00174947
0.000159535
0.00155637
0.000170951
0.00134654
0.000180485
0.00112229
0.000188034
0.000885993
0.000193531
0.000640404
0.000196912
0.00038784
0.000131231
0.000198152
1.97948e-05
0.00248399
-1.40035e-08
3.98251e-05
0.0024413
5.9615e-05
0.00238065
7.88422e-05
0.00229735
9.72537e-05
0.00219024
0.000114623
0.00205997
0.000130745
0.00190763
0.000145434
0.00173478
0.000158524
0.00154328
0.000169867
0.00133519
0.000179342
0.00111281
0.000186843
0.000878488
0.000192305
0.000634937
0.000195664
0.000384475
0.000129986
0.000196892
1.96694e-05
0.00246434
-1.47918e-08
3.95725e-05
0.0024214
5.92368e-05
0.00236098
7.83419e-05
0.00227825
9.66366e-05
0.00217195
0.000113895
0.00204271
0.000129915
0.00189161
0.000144512
0.00172019
0.000157519
0.00153028
0.000168791
0.00132392
0.000178205
0.0011034
0.00018566
0.000871036
0.000191087
0.000629514
0.000194424
0.000381146
0.000128781
0.00019564
1.95449e-05
0.00244481
-1.56344e-08
3.93215e-05
0.00240162
5.88609e-05
0.00234144
7.78448e-05
0.00225926
9.60235e-05
0.00215377
0.000113173
0.00202556
0.000129091
0.00187569
0.000143595
0.00170568
0.00015652
0.00151735
0.000167721
0.00131272
0.000177076
0.00109404
0.000184484
0.000863624
0.000189876
0.000624117
0.000193191
0.000377825
0.000127558
0.000194396
1.94212e-05
0.0024254
-1.6515e-08
3.90721e-05
0.00238197
5.84875e-05
0.00232203
7.73509e-05
0.0022404
9.54142e-05
0.00213571
0.000112455
0.00200852
0.000128272
0.00185987
0.000142684
0.00169127
0.000155527
0.00150451
0.000166657
0.00130159
0.000175954
0.00108474
0.000183315
0.000856266
0.000188673
0.000618763
0.000191967
0.000374541
0.000126376
0.000193161
1.92983e-05
0.00240612
-1.74152e-08
3.88244e-05
0.00236244
5.81164e-05
0.00230273
7.68601e-05
0.00222165
9.48088e-05
0.00211776
0.000111741
0.00199159
0.000127459
0.00184415
0.000141779
0.00167695
0.000154541
0.00149175
0.000165601
0.00129053
0.000174839
0.0010755
0.000182154
0.000848947
0.000187478
0.000613434
0.00019075
0.000371263
0.000125177
0.000191934
1.91763e-05
0.00238696
-1.83182e-08
3.85782e-05
0.00234304
5.77477e-05
0.00228356
7.63725e-05
0.00220303
9.42073e-05
0.00209992
0.000111032
0.00197476
0.00012665
0.00182854
0.00014088
0.00166272
0.000153561
0.00147907
0.000164551
0.00127954
0.000173731
0.00106632
0.000181001
0.00084168
0.000186291
0.000608148
0.000189541
0.000368023
0.000124017
0.000190714
1.9055e-05
0.00236793
-1.9208e-08
3.83336e-05
0.00232376
5.73814e-05
0.00226451
7.58879e-05
0.00218452
9.36095e-05
0.0020822
0.000110328
0.00195804
0.000125847
0.00181302
0.000139987
0.00164858
0.000152588
0.00146646
0.000163508
0.00126861
0.000172631
0.0010572
0.000179854
0.000834453
0.00018511
0.000602887
0.000188339
0.000364789
0.000122841
0.000189503
1.89346e-05
0.00234901
-2.00709e-08
3.80906e-05
0.0023046
5.70174e-05
0.00224559
7.54064e-05
0.00216613
9.30156e-05
0.00206459
0.000109628
0.00194143
0.000125048
0.00179759
0.000139099
0.00163453
0.00015162
0.00145394
0.000162472
0.00125776
0.000171537
0.00104814
0.000178715
0.000827278
0.000183938
0.000597669
0.000187145
0.000361592
0.000121706
0.0001883
1.88149e-05
0.00233022
-2.08928e-08
3.78492e-05
0.00228557
5.66557e-05
0.00222678
7.4928e-05
0.00214786
9.24254e-05
0.00204709
0.000108933
0.00192492
0.000124255
0.00178227
0.000138217
0.00162056
0.000150659
0.0014415
0.000161442
0.00124698
0.00017045
0.00103913
0.000177584
0.000820141
0.000182773
0.000592476
0.000185959
0.000358401
0.000120553
0.000187104
1.8696e-05
0.00231154
-2.166e-08
3.76093e-05
0.00226665
5.62963e-05
0.00220809
7.44526e-05
0.0021297
9.1839e-05
0.0020297
0.000108241
0.00190852
0.000123467
0.00176705
0.00013734
0.00160669
0.000149704
0.00142914
0.000160419
0.00123626
0.000169371
0.00103018
0.000176459
0.000813055
0.000181615
0.000587324
0.00018478
0.000355247
0.000119438
0.000185916
1.8578e-05
0.00229299
-2.23579e-08
3.73709e-05
0.00224786
5.59393e-05
0.00218952
7.39802e-05
0.00211166
9.12563e-05
0.00201242
0.000107555
0.00189222
0.000122684
0.00175192
0.000136469
0.0015929
0.000148755
0.00141685
0.000159403
0.00122561
0.000168298
0.00102128
0.000175342
0.000806008
0.000180465
0.000582196
0.000183609
0.000352099
0.000118308
0.000184736
1.84606e-05
0.00227455
-2.29729e-08
3.71341e-05
0.00222918
5.55844e-05
0.00217107
7.35108e-05
0.00209373
9.06773e-05
0.00199526
0.000106872
0.00187603
0.000121905
0.00173688
0.000135603
0.00157921
0.000147811
0.00140464
0.000158393
0.00121503
0.000167232
0.00101244
0.000174231
0.000799011
0.000179322
0.000577111
0.000182446
0.000348986
0.000117214
0.000183564
1.83441e-05
0.00225623
-2.34934e-08
3.68988e-05
0.00221063
5.52319e-05
0.00215274
7.30444e-05
0.00207592
9.01019e-05
0.0019782
0.000106194
0.00185993
0.000121132
0.00172194
0.000134744
0.00156559
0.000146874
0.00139251
0.000157389
0.00120452
0.000166173
0.00100366
0.000173128
0.000792052
0.000178187
0.000572048
0.00018129
0.00034588
0.000116104
0.0001824
1.82283e-05
0.00223802
-2.39135e-08
3.6665e-05
0.00219219
5.48816e-05
0.00213452
7.2581e-05
0.00205822
8.95302e-05
0.00196125
0.00010552
0.00184394
0.000120364
0.0017071
0.000133889
0.00155207
0.000145943
0.00138046
0.000156392
0.00119407
0.00016512
0.00099493
0.000172032
0.000785143
0.000177058
0.000567027
0.000180141
0.000342808
0.000115027
0.000181243
1.81132e-05
0.00221993
-2.4234e-08
3.64327e-05
0.00217387
5.45335e-05
0.00211642
7.21205e-05
0.00204063
8.89621e-05
0.00194441
0.000104851
0.00182805
0.0001196
0.00169235
0.00013304
0.00153863
0.000145018
0.00136848
0.000155401
0.00118369
0.000164075
0.000986254
0.000170943
0.000778271
0.000175937
0.000562029
0.000179
0.000339744
0.000113936
0.000180094
1.79989e-05
0.00220196
-2.44649e-08
3.62018e-05
0.00215567
5.41876e-05
0.00209843
7.16628e-05
0.00202315
8.83976e-05
0.00192767
0.000104186
0.00181226
0.000118841
0.00167769
0.000132196
0.00152527
0.000144099
0.00135657
0.000154416
0.00117337
0.000163036
0.000977637
0.000169861
0.000771448
0.000174824
0.000557072
0.000177866
0.000336712
0.000112873
0.000178952
1.78853e-05
0.0021841
-2.46242e-08
3.59724e-05
0.00213758
5.38439e-05
0.00208056
7.12081e-05
0.00200579
8.78366e-05
0.00191104
0.000103525
0.00179657
0.000118088
0.00166313
0.000131358
0.001512
0.000143186
0.00134474
0.000153438
0.00116312
0.000162003
0.000969069
0.000168786
0.000764662
0.000173717
0.000552137
0.000176739
0.000333689
0.000111799
0.000177817
1.77724e-05
0.00216635
-2.47375e-08
3.57445e-05
0.00211961
5.35023e-05
0.0020628
7.07563e-05
0.00198853
8.72792e-05
0.00189452
0.000102868
0.00178099
0.000117338
0.00164866
0.000130525
0.00149881
0.000142278
0.00133299
0.000152466
0.00115293
0.000160978
0.000960561
0.000167718
0.000757925
0.000172617
0.000547242
0.00017562
0.000330698
0.000110752
0.00017669
1.76602e-05
0.00214871
-2.48338e-08
3.5518e-05
0.00210175
5.3163e-05
0.00204515
7.03073e-05
0.00197139
8.67254e-05
0.0018781
0.000102215
0.00176549
0.000116594
0.00163428
0.000129698
0.00148571
0.000141377
0.00132131
0.000151501
0.0011428
0.000159958
0.0009521
0.000166656
0.000751224
0.000171525
0.00054237
0.000174508
0.000327713
0.000109692
0.000175571
1.75487e-05
0.00213119
-2.49429e-08
3.5293e-05
0.002084
5.28257e-05
0.00202762
6.98611e-05
0.00195435
8.6175e-05
0.00186178
0.000101566
0.0017501
0.000115855
0.00161999
0.000128875
0.00147269
0.000140481
0.00130971
0.000150541
0.00113274
0.000158946
0.000943698
0.000165602
0.000744572
0.000170439
0.000537538
0.000173403
0.000324759
0.000108658
0.000174458
1.74379e-05
0.00211378
-2.509e-08
3.50693e-05
0.00206637
5.24906e-05
0.0020102
6.94178e-05
0.00193742
8.56282e-05
0.00184557
0.000100922
0.00173481
0.00011512
0.00160579
0.000128058
0.00145975
0.000139591
0.00129817
0.000149588
0.00112275
0.00015794
0.000935344
0.000164554
0.000737954
0.000169361
0.000532727
0.000172305
0.000321813
0.00010761
0.000173353
1.73278e-05
0.00209647
-2.52945e-08
3.48471e-05
0.00204885
5.21576e-05
0.00199289
6.89773e-05
0.0019206
8.50848e-05
0.00182946
0.000100282
0.00171961
0.00011439
0.00159168
0.000127246
0.00144689
0.000138706
0.00128672
0.00014864
0.00111281
0.00015694
0.000927047
0.000163513
0.000731385
0.00016829
0.000527956
0.000171215
0.000318896
0.000106591
0.000172255
1.72183e-05
0.00207928
-2.55663e-08
3.46262e-05
0.00203144
5.18267e-05
0.00197569
6.85395e-05
0.00190389
8.45448e-05
0.00181346
9.96455e-05
0.00170451
0.000113664
0.00157766
0.00012644
0.00143412
0.000137827
0.00127533
0.000147699
0.00110294
0.000155947
0.000918797
0.000162478
0.00072485
0.000167225
0.000523205
0.000170131
0.000315986
0.000105555
0.000171164
1.71095e-05
0.0020622
-2.59081e-08
3.44068e-05
0.00201414
5.14978e-05
0.00195859
6.81045e-05
0.00188728
8.40083e-05
0.00179755
9.90134e-05
0.0016895
0.000112943
0.00156373
0.000125638
0.00142142
0.000136954
0.00126401
0.000146764
0.00109313
0.00015496
0.000910603
0.000161451
0.000718363
0.000166167
0.000518494
0.000169054
0.000313105
0.000104548
0.00017008
1.70014e-05
0.00204522
-2.63144e-08
3.41887e-05
0.00199695
5.11711e-05
0.00194161
6.76723e-05
0.00187078
8.34752e-05
0.00178175
9.83852e-05
0.00167459
0.000112227
0.00154989
0.000124842
0.00140881
0.000136087
0.00125277
0.000145835
0.00108338
0.000153979
0.000902457
0.000160429
0.00071191
0.000165116
0.000513804
0.000167985
0.00031023
0.000103524
0.000169003
1.6894e-05
0.00202835
-2.67764e-08
3.39719e-05
0.00197988
5.08464e-05
0.00192473
6.72428e-05
0.00185438
8.29455e-05
0.00176605
9.77611e-05
0.00165978
0.000111516
0.00153614
0.000124051
0.00139627
0.000135225
0.00124159
0.000144912
0.0010737
0.000153005
0.000894366
0.000159415
0.000705504
0.000164072
0.000509152
0.000166922
0.000307384
0.000102529
0.000167934
1.67872e-05
0.00201159
-2.72823e-08
3.37565e-05
0.00196291
5.05237e-05
0.00190797
6.6816e-05
0.00183809
8.24192e-05
0.00175044
9.7141e-05
0.00164505
0.000110809
0.00152247
0.000123265
0.00138381
0.000134368
0.00123049
0.000143995
0.00106407
0.000152037
0.000886321
0.000158407
0.000699132
0.000163034
0.000504521
0.000165866
0.000304545
0.000101518
0.000166871
1.66811e-05
0.00199494
-2.78221e-08
3.35425e-05
0.00194604
5.02031e-05
0.0018913
6.6392e-05
0.0018219
8.18962e-05
0.00173494
9.65248e-05
0.00163043
0.000110106
0.00150889
0.000122484
0.00137144
0.000133518
0.00121945
0.000143083
0.0010545
0.000151076
0.000878331
0.000157405
0.000692806
0.000162004
0.000499927
0.000164817
0.000301736
0.000100539
0.000165815
1.65756e-05
0.00197839
-2.83862e-08
3.33298e-05
0.00192929
4.98846e-05
0.00187475
6.59706e-05
0.00180581
8.13765e-05
0.00171953
9.59125e-05
0.00161589
0.000109408
0.00149539
0.000121708
0.00135914
0.000132672
0.00120849
0.000142178
0.001045
0.00015012
0.000870387
0.00015641
0.000686513
0.000160979
0.000495354
0.000163775
0.000298933
9.95432e-05
0.000164767
1.64708e-05
0.00196195
-2.89684e-08
3.31185e-05
0.00191264
4.9568e-05
0.0018583
6.5552e-05
0.00178983
8.08602e-05
0.00170422
9.53042e-05
0.00160144
0.000108714
0.00148198
0.000120937
0.00134691
0.000131832
0.00119759
0.000141278
0.00103555
0.000149171
0.000862497
0.000155421
0.000680266
0.000159962
0.000490819
0.000162739
0.00029616
9.85775e-05
0.000163725
1.63667e-05
0.00194561
-2.95624e-08
3.29085e-05
0.0018961
4.92534e-05
0.00184195
6.51359e-05
0.00177394
8.03472e-05
0.00168901
9.46998e-05
0.00158709
0.000108025
0.00146865
0.000120171
0.00133477
0.000130997
0.00118677
0.000140384
0.00102616
0.000148227
0.000854652
0.000154439
0.000674052
0.000158951
0.000486303
0.00016171
0.000293393
9.75969e-05
0.00016269
1.62632e-05
0.00192938
-3.01647e-08
3.26998e-05
0.00187966
4.89409e-05
0.00182571
6.47226e-05
0.00175816
7.98374e-05
0.00167389
9.40992e-05
0.00157283
0.000107341
0.00145541
0.000119409
0.0013227
0.000130168
0.00117601
0.000139496
0.00101684
0.00014729
0.000846861
0.000153462
0.000667883
0.000157946
0.000481825
0.000160688
0.000290657
9.6646e-05
0.000161661
1.61603e-05
0.00191325
-3.07694e-08
3.24924e-05
0.00186333
4.86303e-05
0.00180957
6.43119e-05
0.00174248
7.93309e-05
0.00165887
9.35025e-05
0.00155866
0.00010666
0.00144225
0.000118653
0.00131071
0.000129344
0.00116532
0.000138614
0.00100757
0.000146359
0.000839114
0.000152493
0.000661746
0.000156948
0.000477366
0.000159673
0.000287926
9.56802e-05
0.00016064
1.60581e-05
0.00189722
-3.13728e-08
3.22863e-05
0.0018471
4.83217e-05
0.00179354
6.39038e-05
0.0017269
7.88276e-05
0.00164395
9.29096e-05
0.00154457
0.000105984
0.00142918
0.000117902
0.00129879
0.000128526
0.00115469
0.000137737
0.000998356
0.000145433
0.00083142
0.000151529
0.000655654
0.000155956
0.000472944
0.000158664
0.000285226
9.47423e-05
0.000159625
1.59565e-05
0.00188129
-3.19687e-08
3.20815e-05
0.00183097
4.80151e-05
0.0017776
6.34983e-05
0.00171141
7.83276e-05
0.00162912
9.23205e-05
0.00153058
0.000105313
0.00141618
0.000117155
0.00128695
0.000127712
0.00114413
0.000136866
0.000989201
0.000144514
0.00082377
0.000150572
0.000649594
0.000154971
0.000468542
0.000157661
0.00028253
9.379e-05
0.000158616
1.58555e-05
0.00186547
-3.25545e-08
3.18781e-05
0.00181495
4.77104e-05
0.00176177
6.30953e-05
0.00169603
7.78308e-05
0.00161438
9.17352e-05
0.00151668
0.000104646
0.00140327
0.000116413
0.00127518
0.000126904
0.00113364
0.000136
0.000980107
0.000143601
0.000816172
0.00014962
0.000643578
0.000153992
0.000464175
0.000156665
0.000279865
9.28638e-05
0.000157614
1.57552e-05
0.00184975
-3.31258e-08
3.16759e-05
0.00179903
4.74077e-05
0.00174603
6.2695e-05
0.00168074
7.73371e-05
0.00159974
9.11537e-05
0.00150286
0.000103983
0.00139044
0.000115676
0.00126348
0.000126101
0.00112322
0.00013514
0.000971066
0.000142693
0.000808617
0.000148675
0.000637594
0.00015302
0.000459828
0.000155676
0.000277205
9.19244e-05
0.000156619
1.56556e-05
0.00183412
-3.36827e-08
3.1475e-05
0.00178321
4.71068e-05
0.0017304
6.22973e-05
0.00166555
7.68466e-05
0.00158519
9.05759e-05
0.00148913
0.000103324
0.0013777
0.000114944
0.00125187
0.000125303
0.00111286
0.000134286
0.000962085
0.000141792
0.000801114
0.000147736
0.000631653
0.000152053
0.000455516
0.000154693
0.000274573
9.10086e-05
0.00015563
1.55565e-05
0.0018186
-3.42237e-08
3.12754e-05
0.00176749
4.6808e-05
0.00171487
6.1902e-05
0.00165045
7.63593e-05
0.00157073
9.00018e-05
0.00147548
0.000102669
0.00136503
0.000114216
0.00124032
0.000124511
0.00110256
0.000133437
0.000953157
0.000140896
0.000793653
0.000146803
0.000625744
0.000151093
0.000451223
0.000153716
0.000271948
9.00815e-05
0.000154648
1.54581e-05
0.00180318
-3.47508e-08
3.1077e-05
0.00175187
4.6511e-05
0.00169943
6.15094e-05
0.00163545
7.58751e-05
0.00155637
8.94314e-05
0.00146193
0.000102019
0.00135244
0.000113493
0.00122884
0.000123723
0.00109233
0.000132594
0.000944288
0.000140006
0.000786244
0.000145876
0.000619877
0.00015014
0.000446965
0.000152746
0.000269351
8.91779e-05
0.000153672
1.53604e-05
0.00178785
-3.52616e-08
3.088e-05
0.00173635
4.6216e-05
0.0016841
6.11192e-05
0.00162055
7.5394e-05
0.00154209
8.88647e-05
0.00144846
0.000101373
0.00133993
0.000112775
0.00121744
0.000122941
0.00108217
0.000131756
0.000935472
0.000139122
0.000778876
0.000144955
0.000614041
0.000149192
0.000442726
0.000151782
0.000266759
8.8262e-05
0.000152702
1.52632e-05
0.00177262
-3.57555e-08
3.06842e-05
0.00172093
4.59228e-05
0.00166886
6.07316e-05
0.00160574
7.49161e-05
0.00152791
8.83017e-05
0.00143507
0.000100731
0.0013275
0.000112061
0.00120611
0.000122164
0.00107207
0.000130923
0.000926714
0.000138243
0.000771559
0.00014404
0.000608247
0.00014825
0.000438521
0.000150824
0.000264193
8.73684e-05
0.000151738
1.51667e-05
0.00175749
-3.62254e-08
3.04896e-05
0.0017056
4.56315e-05
0.00165372
6.03465e-05
0.00159102
7.44412e-05
0.00151381
8.77422e-05
0.00142177
0.000100093
0.00131515
0.000111353
0.00119485
0.000121391
0.00106203
0.000130096
0.000918007
0.00013737
0.000764283
0.000143131
0.000602484
0.000147315
0.000434335
0.000149873
0.000261634
8.64624e-05
0.000150781
1.50709e-05
0.00174246
-3.66652e-08
3.02964e-05
0.00169038
4.53421e-05
0.00163867
5.99638e-05
0.0015764
7.39693e-05
0.0014998
8.71864e-05
0.00140855
9.94598e-05
0.00130288
0.000110648
0.00118366
0.000120624
0.00105205
0.000129274
0.000909358
0.000136503
0.000757057
0.000142228
0.000596762
0.000146386
0.000430182
0.000148928
0.000259099
8.558e-05
0.00014983
1.49756e-05
0.00172752
-3.70632e-08
3.01044e-05
0.00167525
4.50546e-05
0.00162372
5.95836e-05
0.00156187
7.35005e-05
0.00148589
8.66342e-05
0.00139542
9.88303e-05
0.00129068
0.000109948
0.00117254
0.000119861
0.00104214
0.000128458
0.000900761
0.000135641
0.000749872
0.000141331
0.000591071
0.000145462
0.000426049
0.000147988
0.00025657
8.4683e-05
0.000148886
1.4881e-05
0.00171267
-3.74112e-08
2.99136e-05
0.00166021
4.4769e-05
0.00160886
5.92059e-05
0.00154743
7.30348e-05
0.00147206
8.60855e-05
0.00138237
9.82048e-05
0.00127856
0.000109253
0.0011615
0.000119104
0.00103229
0.000127647
0.00089222
0.000134785
0.000742736
0.000140439
0.00058542
0.000144545
0.000421947
0.000147055
0.000254065
8.38109e-05
0.000147947
1.4787e-05
0.00169792
-3.76986e-08
2.9724e-05
0.00164528
4.44851e-05
0.0015941
5.88306e-05
0.00153309
7.2572e-05
0.00145831
8.55404e-05
0.0013694
9.75834e-05
0.00126651
0.000108562
0.00115052
0.000118351
0.0010225
0.000126841
0.000883729
0.000133935
0.00073564
0.000139553
0.000579799
0.000143634
0.000417865
0.000146128
0.000251567
8.29229e-05
0.000147015
1.46936e-05
0.00168327
-3.79221e-08
2.95357e-05
0.00163043
4.42032e-05
0.00157943
5.84577e-05
0.00151883
7.21122e-05
0.00144466
8.49988e-05
0.00135651
9.6966e-05
0.00125455
0.000107876
0.00113961
0.000117604
0.00101277
0.00012604
0.000875294
0.000133089
0.000728592
0.000138673
0.000574219
0.000142728
0.000413815
0.000145207
0.000249091
8.20601e-05
0.000146089
1.46008e-05
0.0016687
-3.80791e-08
2.93486e-05
0.00161569
4.3923e-05
0.00156486
5.80872e-05
0.00150467
7.16555e-05
0.00143109
8.44607e-05
0.0013437
9.63525e-05
0.00124265
0.000107194
0.00112876
0.000116861
0.0010031
0.000125244
0.000866909
0.00013225
0.000721585
0.000137799
0.000568668
0.000141829
0.000409783
0.000144292
0.000246623
8.11825e-05
0.000145169
1.45086e-05
0.00165423
-3.81766e-08
2.91628e-05
0.00160103
4.36447e-05
0.00155037
5.77192e-05
0.00149059
7.12016e-05
0.00141761
8.39261e-05
0.00133098
9.57431e-05
0.00123084
0.000106516
0.00111799
0.000116123
0.000993496
0.000124454
0.00085858
0.000131416
0.000714625
0.00013693
0.000563157
0.000140935
0.000405783
0.000143384
0.000244179
8.03318e-05
0.000144255
1.4417e-05
0.00163985
-3.82224e-08
2.89781e-05
0.00158647
4.33681e-05
0.00153598
5.73535e-05
0.00147661
7.07507e-05
0.00140421
8.33949e-05
0.00131833
9.51376e-05
0.00121909
0.000105843
0.00110729
0.000115389
0.000983948
0.000123669
0.000850299
0.000130587
0.000707705
0.000136067
0.000557675
0.000140047
0.000401801
0.000142481
0.000241741
7.9466e-05
0.000143347
1.43261e-05
0.00162557
-3.82328e-08
2.87947e-05
0.001572
4.30934e-05
0.00152168
5.69902e-05
0.00146271
7.03027e-05
0.0013909
8.28672e-05
0.00130577
9.4536e-05
0.00120743
0.000105174
0.00109665
0.000114661
0.000974462
0.000122888
0.000842073
0.000129764
0.000700831
0.00013521
0.000552231
0.000139165
0.000397851
0.000141584
0.000239328
7.86258e-05
0.000142445
1.42357e-05
0.00161137
-3.82224e-08
2.86124e-05
0.00155762
4.28204e-05
0.00150747
5.66292e-05
0.0014489
6.98577e-05
0.00137767
8.23429e-05
0.00129328
9.39383e-05
0.00119583
0.00010451
0.00108607
0.000113937