/*--------------------------------*- C++ -*----------------------------------*\
  =========                 |
  \\      /  F ield         | OpenFOAM: The Open Source CFD Toolbox
   \\    /   O peration     | Website:  https://openfoam.org
    \\  /    A nd           | Version:  6.0
     \\/     M anipulation  |
\*---------------------------------------------------------------------------*/
FoamFile
{
    version     2.0;
    format      ascii;
    class       surfaceScalarField;
    location    "3.5";
    object      phi;
}
// * * * * * * * * * * * * * * * * * * * * * * * * * * * * * * * * * * * * * //

dimensions      [0 3 -1 0 0 0 0];

internalField   nonuniform List<scalar> 
47678
(
2.9808e-05
0.00388594
2.446e-09
5.98453e-05
0.00381843
8.91114e-05
0.00368577
0.000116962
0.00348996
0.000142854
0.00323442
0.000166314
0.0029236
0.000186917
0.00256299
0.000204298
0.00215876
0.000218148
0.00171798
0.000228223
0.00124798
0.000234335
0.000757573
0.00025807
0.00023692
2.96173e-05
0.00385632
5.61539e-09
5.94656e-05
0.00378858
8.85468e-05
0.00365668
0.00011622
0.00346228
0.000141947
0.00320868
0.000165257
0.00290028
0.000185727
0.0025425
0.000202997
0.00214149
0.000216759
0.00170421
0.000226764
0.00123796
0.000232946
0.000751383
0.000255366
0.000235644
2.9428e-05
0.00382688
8.25303e-09
5.90883e-05
0.00375893
8.79859e-05
0.00362778
0.000115484
0.00343478
0.000141048
0.00318311
0.000164209
0.00287712
0.000184548
0.00252216
0.000201707
0.00212433
0.000215382
0.00169053
0.000225316
0.00122803
0.000231478
0.000745221
0.000252715
0.000234136
2.92402e-05
0.00379763
1.05192e-08
5.87135e-05
0.00372945
8.74284e-05
0.00359905
0.000114753
0.00340745
0.000140154
0.0031577
0.000163167
0.0028541
0.000183376
0.00250195
0.000200425
0.00210727
0.000214013
0.00167694
0.000223879
0.00121816
0.000229987
0.000739109
0.00025013
0.000232568
2.9054e-05
0.00376856
1.2414e-08
5.83411e-05
0.00370017
8.68744e-05
0.00357052
0.000114026
0.0033803
0.000139265
0.00313246
0.000162131
0.00283123
0.000182211
0.00248187
0.00019915
0.00209034
0.000212653
0.00166344
0.000222455
0.00120836
0.000228504
0.000733062
0.000247631
0.00023101
2.88691e-05
0.00373968
1.38813e-08
5.79711e-05
0.00367106
8.63238e-05
0.00354216
0.000113303
0.00335331
0.000138382
0.00310737
0.000161102
0.00280851
0.000181053
0.00246191
0.000197883
0.0020735
0.000211301
0.00165001
0.000221043
0.00119861
0.000227038
0.000727063
0.00024519
0.000229476
2.86854e-05
0.00371098
1.49362e-08
5.76034e-05
0.00364215
8.57765e-05
0.00351398
0.000112585
0.00332651
0.000137504
0.00308245
0.000160079
0.00278593
0.000179903
0.00244209
0.000196625
0.00205678
0.000209958
0.00163668
0.000219642
0.00118893
0.00022559
0.000721117
0.000242823
0.000227963
2.8503e-05
0.00368246
1.56333e-08
5.72379e-05
0.00361341
8.52325e-05
0.00348598
0.00011187
0.00329986
0.000136632
0.00305768
0.000159062
0.0027635
0.000178759
0.00242238
0.000195375
0.00204016
0.000208623
0.00162343
0.00021825
0.0011793
0.000224155
0.00071521
0.000240505
0.00022647
2.83218e-05
0.00365412
1.6009e-08
5.68747e-05
0.00358486
8.46919e-05
0.00345816
0.000111161
0.0032734
0.000135764
0.00303308
0.000158052
0.00274121
0.000177623
0.00240281
0.000194132
0.00202365
0.000207297
0.00161026
0.000216868
0.00116973
0.000222731
0.000709348
0.000238242
0.000224998
2.81418e-05
0.00362596
1.61171e-08
5.65137e-05
0.00355649
8.41546e-05
0.00343052
0.000110455
0.00324709
0.000134902
0.00300863
0.000157047
0.00271906
0.000176493
0.00238336
0.000192897
0.00200724
0.000205979
0.00159718
0.000215493
0.00116022
0.000221318
0.00070352
0.000236013
0.000223545
2.79629e-05
0.00359798
1.60326e-08
5.6155e-05
0.00352829
8.36207e-05
0.00340305
0.000109754
0.00322096
0.000134046
0.00298434
0.000156049
0.00269706
0.000175371
0.00236404
0.00019167
0.00199095
0.000204669
0.00158418
0.000214127
0.00115076
0.000219915
0.000697734
0.000233823
0.000222108
2.77852e-05
0.00357018
1.5815e-08
5.57985e-05
0.00350028
8.309e-05
0.00337576
0.000109057
0.00319499
0.000133194
0.0029602
0.000155057
0.00267519
0.000174256
0.00234484
0.000190451
0.00197475
0.000203368
0.00157126
0.00021277
0.00114136
0.000218522
0.000691979
0.000231657
0.000220685
2.76086e-05
0.00354255
1.55112e-08
5.54443e-05
0.00347245
8.25626e-05
0.00334864
0.000108365
0.00316919
0.000132348
0.00293621
0.000154072
0.00265347
0.000173148
0.00232577
0.00018924
0.00195866
0.000202075
0.00155843
0.000211421
0.00113201
0.000217138
0.000686264
0.000229525
0.000219272
2.74332e-05
0.0035151
1.51612e-08
5.50922e-05
0.00344478
8.20385e-05
0.00332169
0.000107677
0.00314355
0.000131507
0.00291238
0.000153092
0.00263188
0.000172047
0.00230681
0.000188037
0.00194266
0.00020079
0.00154567
0.00021008
0.00112272
0.000215762
0.000680578
0.000227414
0.00021787
2.72588e-05
0.00348783
1.47853e-08
5.47423e-05
0.0034173
8.15175e-05
0.00329492
0.000106993
0.00311807
0.000130671
0.0028887
0.000152118
0.00261044
0.000170952
0.00228798
0.000186841
0.00192678
0.000199514
0.001533
0.000208747
0.00111349
0.000214395
0.000674932
0.000225334
0.000216478
2.70857e-05
0.00346073
1.43808e-08
5.43946e-05
0.00338999
8.09998e-05
0.00326831
0.000106313
0.00309276
0.00012984
0.00286517
0.000151151
0.00258912
0.000169865
0.00226926
0.000185653
0.00191099
0.000198245
0.00152041
0.000207423
0.00110431
0.000213037
0.000669315
0.000223271
0.000215096
2.69136e-05
0.0034338
1.39478e-08
5.4049e-05
0.00336286
8.04851e-05
0.00324187
0.000105637
0.00306761
0.000129014
0.0028418
0.00015019
0.00256795
0.000168785
0.00225066
0.000184473
0.0018953
0.000196986
0.0015079
0.000206107
0.00109519
0.000211687
0.000663736
0.000221237
0.000213724
2.67426e-05
0.00340704
1.34815e-08
5.37055e-05
0.00333589
7.99736e-05
0.0032156
0.000104965
0.00304261
0.000128193
0.00281857
0.000149234
0.00254691
0.000167711
0.00223218
0.0001833
0.00187971
0.000195734
0.00149546
0.000204799
0.00108612
0.000210345
0.000658187
0.000219216
0.000212361
2.65726e-05
0.00338046
1.29952e-08
5.33641e-05
0.0033091
7.94651e-05
0.0031895
0.000104297
0.00301778
0.000127378
0.00279549
0.000148285
0.002526
0.000166645
0.00221383
0.000182135
0.00186422
0.00019449
0.00148311
0.0002035
0.00107711
0.000209012
0.000652677
0.000217224
0.000211008
2.64037e-05
0.00335404
1.25236e-08
5.30248e-05
0.00328248
7.89598e-05
0.00316356
0.000103634
0.00299311
0.000126568
0.00277255
0.000147342
0.00250522
0.000165585
0.00219558
0.000180977
0.00184882
0.000193255
0.00147083
0.000202209
0.00106816
0.000207687
0.000647195
0.000215242
0.000209664
2.62359e-05
0.00332779
1.21277e-08
5.26875e-05
0.00325603
7.84574e-05
0.00313779
0.000102974
0.00296859
0.000125762
0.00274977
0.000146404
0.00248458
0.000164532
0.00217745
0.000179827
0.00183353
0.000192027
0.00145863
0.000200926
0.00105926
0.000206371
0.000641752
0.000213288
0.00020833
2.6069e-05
0.00330171
1.18848e-08
5.23523e-05
0.00322974
7.79581e-05
0.00311219
0.000102319
0.00294423
0.000124962
0.00272712
0.000145473
0.00246407
0.000163486
0.00215944
0.000178684
0.00181833
0.000190808
0.0014465
0.000199651
0.00105041
0.000205063
0.000636337
0.00021134
0.000207005
2.59031e-05
0.0032758
1.18835e-08
5.20191e-05
0.00320363
7.74619e-05
0.00308674
0.000101668
0.00292003
0.000124166
0.00270462
0.000144547
0.00244369
0.000162446
0.00214154
0.000177549
0.00180323
0.000189596
0.00143446
0.000198385
0.00104163
0.000203763
0.00063096
0.000209421
0.000205688
2.57382e-05
0.00325005
1.21989e-08
5.16879e-05
0.00317768
7.69686e-05
0.00306146
0.00010102
0.00289597
0.000123376
0.00268226
0.000143628
0.00242344
0.000161413
0.00212375
0.000176421
0.00178822
0.000188392
0.00142249
0.000197126
0.00103289
0.000202472
0.000625611
0.000207505
0.000204381
2.55742e-05
0.00322446
1.28866e-08
5.13586e-05
0.00315189
7.64784e-05
0.00303634
0.000100377
0.00287208
0.000122591
0.00266005
0.000142714
0.00240332
0.000160387
0.00210608
0.0001753
0.00177331
0.000187196
0.00141059
0.000195876
0.00102421
0.000201188
0.0006203
0.000205616
0.000203082
2.54111e-05
0.00319903
1.39628e-08
5.10313e-05
0.00312627
7.59912e-05
0.00301138
9.97378e-05
0.00284833
0.00012181
0.00263798
0.000141806
0.00238332
0.000159367
0.00208852
0.000174186
0.00175849
0.000186008
0.00139877
0.000194633
0.00101558
0.000199913
0.000615017
0.000203731
0.000201792
2.52489e-05
0.00317377
1.54096e-08
5.0706e-05
0.00310081
7.55069e-05
0.00298658
9.91025e-05
0.00282473
0.000121035
0.00261605
0.000140904
0.00236345
0.000158354
0.00207107
0.00017308
0.00174376
0.000184827
0.00138702
0.000193399
0.00100701
0.000198646
0.000609772
0.000201872
0.00020051
2.50876e-05
0.00314866
1.71724e-08
5.03826e-05
0.00307552
7.50257e-05
0.00296194
9.84712e-05
0.00280129
0.000120264
0.00259425
0.000140007
0.00234371
0.000157347
0.00205373
0.000171981
0.00172913
0.000183654
0.00137535
0.000192173
0.00099849
0.000197387
0.000604554
0.000200015
0.000199237
2.49272e-05
0.00312372
1.91792e-08
5.00611e-05
0.00305039
7.45474e-05
0.00293745
9.78438e-05
0.00277799
0.000119499
0.0025726
0.000139117
0.00232409
0.000156347
0.0020365
0.000170888
0.00171459
0.000182489
0.00136375
0.000190954
0.000990026
0.000196136
0.000599373
0.000198184
0.000197972
2.47677e-05
0.00309893
2.13478e-08
4.97416e-05
0.00302541
7.40721e-05
0.00291312
9.72204e-05
0.00275484
0.000118738
0.00255108
0.000138232
0.00230459
0.000155353
0.00201938
0.000169803
0.00170013
0.000181331
0.00135222
0.000189743
0.000981611
0.000194893
0.00059422
0.000196355
0.000196715
2.4609e-05
0.0030743
2.36076e-08
4.9424e-05
0.0030006
7.35997e-05
0.00288894
9.66009e-05
0.00273184
0.000117982
0.0025297
0.000137352
0.00228523
0.000154366
0.00200236
0.000168725
0.00168578
0.00018018
0.00134076
0.00018854
0.000973252
0.000193658
0.000589104
0.000194549
0.000195466
2.44513e-05
0.00304982
2.59016e-08
4.91083e-05
0.00297594
7.31302e-05
0.00286492
9.59854e-05
0.00270899
0.000117231
0.00250845
0.000136479
0.00226598
0.000153385
0.00198546
0.000167653
0.00167151
0.000179037
0.00132938
0.000187345
0.000964941
0.000192431
0.000584014
0.000192747
0.000194226
2.42944e-05
0.00302549
2.8198e-08
4.87945e-05
0.00295144
7.26637e-05
0.00284105
9.53736e-05
0.00268628
0.000116484
0.00248735
0.000135611
0.00224685
0.00015241
0.00196866
0.000166589
0.00165733
0.000177901
0.00131807
0.000186157
0.000956687
0.000191212
0.000578962
0.000190967
0.000192994
2.41383e-05
0.00300132
3.04815e-08
4.84826e-05
0.00292709
7.22e-05
0.00281733
9.47658e-05
0.00266371
0.000115743
0.00246637
0.000134748
0.00222785
0.000151442
0.00195196
0.000165531
0.00164324
0.000176773
0.00130682
0.000184977
0.00094848
0.00019
0.000573935
0.000189191
0.000191769
2.39832e-05
0.00297731
3.27544e-08
4.81727e-05
0.0029029
7.17393e-05
0.00279377
9.41618e-05
0.00264129
0.000115006
0.00244553
0.000133891
0.00220896
0.000150479
0.00193538
0.000164481
0.00162924
0.000175651
0.00129566
0.000183804
0.000940329
0.000188796
0.000568946
0.000187436
0.000190553
2.38289e-05
0.00295344
3.50218e-08
4.78646e-05
0.00287887
7.12814e-05
0.00277035
9.35616e-05
0.00261901
0.000114274
0.00242481
0.00013304
0.0021902
0.000149523
0.00191889
0.000163437
0.00161532
0.000174537
0.00128455
0.000182639
0.000932223
0.0001876
0.000563982
0.000185685
0.000189344
2.36755e-05
0.00292973
3.72909e-08
4.75583e-05
0.00285499
7.08263e-05
0.00274708
9.29651e-05
0.00259687
0.000113546
0.00240423
0.000132193
0.00217155
0.000148573
0.00190251
0.000162399
0.0016015
0.000173431
0.00127352
0.000181482
0.000924174
0.000186412
0.000559055
0.000183957
0.000188143
2.3523e-05
0.00290617
3.95588e-08
4.7254e-05
0.00283125
7.03741e-05
0.00272396
9.23725e-05
0.00257487
0.000112823
0.00238378
0.000131353
0.00215302
0.000147629
0.00188623
0.000161368
0.00158776
0.000172331
0.00126256
0.000180332
0.00091617
0.000185231
0.000554152
0.000182232
0.00018695
2.33714e-05
0.00288276
4.1816e-08
4.69515e-05
0.00280768
6.99247e-05
0.00270099
9.17836e-05
0.00255302
0.000112105
0.00236346
0.000130517
0.00213461
0.000146692
0.00187006
0.000160344
0.00157411
0.000171238
0.00125167
0.000179189
0.000908221
0.000184057
0.000549287
0.000180529
0.000185764
2.32207e-05
0.00285949
4.40399e-08
4.66509e-05
0.00278424
6.94782e-05
0.00267816
9.11984e-05
0.0025313
0.000111391
0.00234327
0.000129687
0.00211631
0.00014576
0.00185399
0.000159327
0.00156054
0.000170152
0.00124084
0.000178053
0.000900317
0.000182891
0.000544446
0.000178828
0.000184586
2.30709e-05
0.00283637
4.62037e-08
4.63521e-05
0.00276096
6.90344e-05
0.00265548
9.06169e-05
0.00250972
0.000110682
0.00232321
0.000128863
0.00209813
0.000144834
0.00183802
0.000158316
0.00154706
0.000169073
0.00123008
0.000176925
0.000892467
0.000181733
0.000539641
0.000177151
0.000183416
2.2922e-05
0.0028134
4.82743e-08
4.60552e-05
0.00273783
6.85935e-05
0.00263294
9.00391e-05
0.00248827
0.000109977
0.00230327
0.000128043
0.00208007
0.000143914
0.00182215
0.000157311
0.00153366
0.000168001
0.00121939
0.000175804
0.000884662
0.000180582
0.00053486
0.000175474
0.000182253
2.2774e-05
0.00279058
5.0223e-08
4.57602e-05
0.00271485
6.81553e-05
0.00261055
8.9465e-05
0.00246696
0.000109277
0.00228346
0.000127229
0.00206212
0.000143
0.00180638
0.000156313
0.00152035
0.000166936
0.00120877
0.00017469
0.00087691
0.000179438
0.000530115
0.000173821
0.000181098
2.26269e-05
0.0027679
5.20241e-08
4.5467e-05
0.002692
6.77199e-05
0.00258829
8.88946e-05
0.00244579
0.000108581
0.00226377
0.00012642
0.00204428
0.000142092
0.0017907
0.000155321
0.00150711
0.000165878
0.00119821
0.000173583
0.000869202
0.000178301
0.000525394
0.000172166
0.00017995
2.24807e-05
0.00274537
5.36632e-08
4.51756e-05
0.00266931
6.72872e-05
0.00256618
8.83277e-05
0.00242475
0.00010789
0.00224421
0.000125616
0.00202655
0.000141189
0.00177513
0.000154336
0.00149397
0.000164827
0.00118772
0.000172483
0.000861548
0.000177172
0.000520708
0.000170536
0.00017881
2.23355e-05
0.00272298
5.51343e-08
4.48861e-05
0.00264676
6.68574e-05
0.00254421
8.77645e-05
0.00240384
0.000107203
0.00222477
0.000124818
0.00200894
0.000140293
0.00175966
0.000153357
0.0014809
0.000163782
0.0011773
0.00017139
0.000853936
0.00017605
0.000516046
0.000168902
0.000177677
2.21911e-05
0.00270073
5.64427e-08
4.45985e-05
0.00262435
6.64302e-05
0.00252238
8.72049e-05
0.00238307
0.000106521
0.00220546
0.000124024
0.00199144
0.000139402
0.00174428
0.000152384
0.00146792
0.000162744
0.00116694
0.000170304
0.000846378
0.000174935
0.000511421
0.000167295
0.000176552
2.20477e-05
0.00267862
5.75996e-08
4.43127e-05
0.00260209
6.60058e-05
0.00250069
8.66489e-05
0.00236242
0.000105843
0.00218626
0.000123236
0.00197404
0.000138517
0.001729
0.000151417
0.00145502
0.000161712
0.00115664
0.000169225
0.000838861
0.000173827
0.000506817
0.000165681
0.000175433
2.19053e-05
0.00265666
5.86218e-08
4.40287e-05
0.00257997
6.55841e-05
0.00247913
8.60965e-05
0.00234191
0.000105169
0.00216719
0.000122452
0.00195676
0.000137637
0.00171382
0.000150457
0.0014422
0.000160687
0.00114642
0.000168153
0.000831397
0.000172727
0.00050225
0.000164093
0.000174322
2.17638e-05
0.00263484
5.95248e-08
4.37465e-05
0.00255798
6.51652e-05
0.00245771
8.55476e-05
0.00232153
0.000104499
0.00214824
0.000121674
0.00193958
0.000136763
0.00169872
0.000149502
0.00142946
0.000159669
0.00113625
0.000167088
0.000823974
0.000171633
0.000497704
0.000162497
0.000173218
2.16232e-05
0.00261316
6.03232e-08
4.34661e-05
0.00253614
6.47489e-05
0.00243643
8.50023e-05
0.00230128
0.000103834
0.00212941
0.000120901
0.00192252
0.000135895
0.00168373
0.000148554
0.0014168
0.000158657
0.00112615
0.00016603
0.000816604
0.000170546
0.000493195
0.000160928
0.000172121
2.14835e-05
0.00259161
6.1026e-08
4.31876e-05
0.00251444
6.43353e-05
0.00241528
8.44604e-05
0.00228115
0.000103173
0.0021107
0.000120132
0.00190556
0.000135032
0.00166883
0.000147612
0.00140422
0.000157651
0.00111611
0.000164978
0.000809274
0.000169466
0.000488706
0.000159351
0.000171031
2.13448e-05
0.00257021
6.16399e-08
4.29109e-05
0.00249287
6.39244e-05
0.00239427
8.39221e-05
0.00226116
0.000102517
0.0020921
0.000119369
0.00188871
0.000134175
0.00165403
0.000146676
0.00139172
0.000156652
0.00110613
0.000163933
0.000801997
0.000168393
0.000484254
0.000157799
0.000169948
2.12071e-05
0.00254894
6.21688e-08
4.2636e-05
0.00247144
6.35162e-05
0.00237339
8.33872e-05
0.00224129
0.000101865
0.00207363
0.00011861
0.00187196
0.000133323
0.00163931
0.000145745
0.0013793
0.000155659
0.00109622
0.000162895
0.000794758
0.000167327
0.00047982
0.000156242
0.000168871
2.10702e-05
0.00252781
6.26197e-08
4.23629e-05
0.00245015
6.31106e-05
0.00235265
8.28558e-05
0.00222155
0.000101216
0.00205527
0.000117857
0.00185533
0.000132477
0.0016247
0.000144821
0.00136696
0.000154673
0.00108637
0.000161863
0.000787572
0.000166267
0.000475424
0.000154709
0.000167802
2.09343e-05
0.00250681
6.3003e-08
4.20916e-05
0.00242899
6.27077e-05
0.00233203
8.23279e-05
0.00220193
0.000100572
0.00203702
0.000117108
0.00183879
0.000131636
0.00161016
0.000143903
0.00135469
0.000153693
0.00107658
0.000160838
0.000780425
0.000165214
0.000471045
0.000153171
0.000166739
2.07994e-05
0.00248595
6.33384e-08
4.18221e-05
0.00240797
6.23073e-05
0.00231155
8.18033e-05
0.00218243
9.99326e-05
0.0020189
0.000116364
0.00182236
0.000130801
0.00159573
0.00014299
0.0013425
0.000152719
0.00106685
0.000159819
0.000773329
0.000164168
0.000466704
0.00015166
0.000165683
2.06654e-05
0.00246522
6.36527e-08
4.15543e-05
0.00238708
6.19096e-05
0.00229119
8.12822e-05
0.00216306
9.92969e-05
0.00200088
0.000115624
0.00180604
0.000129971
0.00158138
0.000142083
0.00133039
0.000151751
0.00105718
0.000158807
0.000766271
0.000163129
0.000462379
0.000150144
0.000164634
2.05323e-05
0.00244462
6.39811e-08
4.12884e-05
0.00236633
6.15145e-05
0.00227097
8.07644e-05
0.00214381
9.86653e-05
0.00198298
0.00011489
0.00178982
0.000129146
0.00156713
0.000141183
0.00131835
0.00015079
0.00104758
0.000157801
0.000759264
0.000162096
0.000458091
0.000148655
0.000163592
2.04001e-05
0.00242416
6.43612e-08
4.10241e-05
0.0023457
6.11219e-05
0.00225087
8.02499e-05
0.00212468
9.80377e-05
0.0019652
0.00011416
0.00177369
0.000128326
0.00155296
0.000140287
0.00130639
0.000149835
0.00103803
0.000156802
0.000752294
0.00016107
0.00045382
0.00014716
0.000162556
2.02688e-05
0.00240383
6.48315e-08
4.07617e-05
0.00232521
6.07319e-05
0.0022309
7.97388e-05
0.00210568
9.74141e-05
0.00194752
0.000113435
0.00175768
0.000127512
0.00153889
0.000139398
0.00129451
0.000148885
0.00102855
0.000155809
0.000745375
0.000160051
0.000449586
0.000145693
0.000161527
2.01384e-05
0.00238362
6.54233e-08
4.05009e-05
0.00230485
6.03445e-05
0.00221105
7.9231e-05
0.00208679
9.67946e-05
0.00192996
0.000112714
0.00174176
0.000126703
0.0015249
0.000138514
0.0012827
0.000147942
0.00101912
0.000154823
0.000738492
0.000159038
0.000445368
0.000144219
0.000160504
2.0009e-05
0.00236355
6.61592e-08
4.02419e-05
0.00228462
5.99595e-05
0.00219134
7.87264e-05
0.00206803
9.6179e-05
0.00191251
0.000111998
0.00172594
0.000125899
0.001511
0.000137636
0.00127096
0.000147005
0.00100975
0.000153842
0.000731661
0.000158031
0.000441187
0.000142774
0.000159488
1.98804e-05
0.0023436
6.70479e-08
3.99846e-05
0.00226451
5.95771e-05
0.00217175
7.82251e-05
0.00204938
9.55674e-05
0.00189517
0.000111287
0.00171022
0.0001251
0.00149719
0.000136763
0.0012593
0.000146074
0.00100044
0.000152868
0.000724864
0.000157031
0.000437022
0.000141318
0.000158479
1.97527e-05
0.00232378
6.80863e-08
3.9729e-05
0.00224454
5.91971e-05
0.00215228
7.7727e-05
0.00203086
9.49597e-05
0.00187794
0.00011058
0.0016946
0.000124306
0.00148347
0.000135896
0.00124771
0.000145148
0.000991198
0.000151901
0.000718118
0.000156037
0.000432895
0.000139893
0.000157476
1.96258e-05
0.00230409
6.92585e-08
3.94751e-05
0.00222469
5.88196e-05
0.00213293
7.72322e-05
0.00201244
9.43559e-05
0.00186081
0.000109877
0.00167908
0.000123517
0.00146982
0.000135035
0.00123619
0.000144229
0.000982003
0.000150939
0.000711406
0.00015505
0.000428782
0.000138451
0.00015648
1.94998e-05
0.00228452
7.05419e-08
3.92229e-05
0.00220497
5.84446e-05
0.00211372
7.67405e-05
0.00199415
9.3756e-05
0.0018438
0.00010918
0.00166366
0.000122734
0.00145628
0.000134179
0.00122475
0.000143316
0.000972873
0.000149984
0.000704744
0.000154069
0.000424707
0.000137041
0.00015549
1.93746e-05
0.00226507
7.19084e-08
3.89723e-05
0.00218537
5.8072e-05
0.00209461
7.62519e-05
0.00197597
9.31599e-05
0.00182689
0.000108486
0.00164834
0.000121955
0.00144281
0.000133329
0.00121338
0.000142408
0.000963793
0.000149034
0.000698116
0.000153094
0.000420645
0.000135613
0.000154507
1.92503e-05
0.00224575
7.33314e-08
3.87233e-05
0.0021659
5.77017e-05
0.00207564
7.57665e-05
0.00195791
9.25676e-05
0.0018101
0.000107797
0.00163311
0.000121181
0.00142943
0.000132484
0.00120208
0.000141506
0.000954778
0.000148091
0.000691538
0.000152126
0.000416621
0.000134217
0.000153529
1.91268e-05
0.00222655
7.47863e-08
3.8476e-05
0.00214655
5.73339e-05
0.00205678
7.52843e-05
0.00193996
9.19791e-05
0.0017934
0.000107113
0.00161798
0.000120413
0.00141613
0.000131644
0.00119085
0.00014061
0.000945812
0.000147154
0.000684991
0.000151164
0.000412609
0.000132802
0.000152558
1.9004e-05
0.00220747
7.62553e-08
3.82302e-05
0.00212732
5.69685e-05
0.00203804
7.48051e-05
0.00192212
9.13944e-05
0.00177681
0.000106433
0.00160294
0.000119649
0.00140292
0.00013081
0.00117969
0.00013972
0.000936909
0.000146223
0.000678496
0.000150208
0.000408635
0.000131418
0.000151594
1.88821e-05
0.00218851
7.77249e-08
3.79861e-05
0.00210822
5.66053e-05
0.00201942
7.43289e-05
0.0019044
9.08134e-05
0.00176033
0.000105757
0.001588
0.00011889
0.00138978
0.000129981
0.0011686
0.000138835
0.000928055
0.000145298
0.00067203
0.000149258
0.000404672
0.000130016
0.000150635
1.8761e-05
0.00216967
7.91879e-08
3.77435e-05
0.00208924
5.62446e-05
0.00200093
7.38559e-05
0.00188679
9.02361e-05
0.00174395
0.000105085
0.00157315
0.000118136
0.00137674
0.000129157
0.00115759
0.000137956
0.000919264
0.000144379
0.000665615
0.000148314
0.000400746
0.000128647
0.000149682
1.86407e-05
0.00215095
8.06391e-08
3.75025e-05
0.00207038
5.58861e-05
0.00198254
7.33858e-05
0.00186929
8.96626e-05
0.00172768
0.000104418
0.0015584
0.000117387
0.00136377
0.000128339
0.00114664
0.000137083
0.000910519
0.000143466
0.00065923
0.000147376
0.00039683
0.000127261
0.000148736
1.85211e-05
0.00213235
8.20756e-08
3.72631e-05
0.00205164
5.55299e-05
0.00196428
7.29188e-05
0.00185191
8.90926e-05
0.00171151
0.000103755
0.00154374
0.000116642
0.00135089
0.000127526
0.00113576
0.000136216
0.000901838
0.000142558
0.000652894
0.000146444
0.000392952
0.000125909
0.000147795
1.84022e-05
0.00211387
8.34921e-08
3.70251e-05
0.00203301
5.5176e-05
0.00194613
7.24547e-05
0.00183463
8.85264e-05
0.00169544
0.000103097
0.00152917
0.000115903
0.00133808
0.000126718
0.00112494
0.000135353
0.000893202
0.000141657
0.000646588
0.000145518
0.000389083
0.000124539
0.000146861
1.82842e-05
0.0020955
8.48832e-08
3.67888e-05
0.00201451
5.48244e-05
0.00192809
7.19936e-05
0.00181746
8.79637e-05
0.00167947
0.000102442
0.0015147
0.000115168
0.00132536
0.000125916
0.0011142
0.000134497
0.000884629
0.000140761
0.000640331
0.000144599
0.000385252
0.000123205
0.000145933
1.81668e-05
0.00207725
8.62391e-08
3.65539e-05
0.00199612
5.4475e-05
0.00191017
7.15355e-05
0.0018004
8.74047e-05
0.0016636
0.000101792
0.00150031
0.000114438
0.00131272
0.000125118
0.00110352
0.000133646
0.000876101
0.000139871
0.000634102
0.000143685
0.00038143
0.000121852
0.00014501
1.80502e-05
0.00205911
8.755e-08
3.63205e-05
0.00197785
5.41278e-05
0.00189237
7.10802e-05
0.00178345
8.68492e-05
0.00164784
0.000101146
0.00148602
0.000113712
0.00130016
0.000124326
0.00109292
0.000132801
0.000867634
0.000138987
0.000627922
0.000142777
0.000377646
0.000120537
0.000144094
1.79344e-05
0.00204109
8.8804e-08
3.60885e-05
0.0019597
5.37829e-05
0.00187467
7.06279e-05
0.00176661
8.62973e-05
0.00163217
0.000100504
0.00147182
0.000112991
0.00128767
0.000123539
0.00108237
0.000131961
0.000859212
0.000138109
0.000621769
0.000141875
0.00037387
0.0001192
0.000143184
1.78192e-05
0.00202318
8.99912e-08
3.58581e-05
0.00194166
5.34401e-05
0.00185709
7.01785e-05
0.00174987
8.57489e-05
0.0016166
9.98661e-05
0.00145771
0.000112275
0.00127527
0.000122757
0.0010719
0.000131126
0.00085085
0.000137236
0.000615666
0.000140979
0.000370133
0.000117902
0.000142279
1.77047e-05
0.00200538
9.11024e-08
3.56291e-05
0.00192374
5.30995e-05
0.00183962
6.9732e-05
0.00173324
8.52041e-05
0.00160113
9.92325e-05
0.00144368
0.000111564
0.00126294
0.00012198
0.00106148
0.000130297
0.000842532
0.000136369
0.000609589
0.000140089
0.000366403
0.000116581
0.000141381
1.7591e-05
0.0019877
9.21332e-08
3.54015e-05
0.00190593
5.27611e-05
0.00182226
6.92883e-05
0.00171672
8.46627e-05
0.00158576
9.86029e-05
0.00142974
0.000110857
0.0012507
0.000121208
0.00105114
0.000129473
0.000834274
0.000135508
0.000603561
0.000139204
0.000362712
0.000115301
0.000140488
1.7478e-05
0.00197013
9.30811e-08
3.51754e-05
0.00188823
5.24249e-05
0.00180501
6.88474e-05
0.0017003
8.41248e-05
0.00157049
9.79773e-05
0.00141589
0.000110154
0.00123852
0.000120441
0.00104085
0.000128655
0.000826059
0.000134652
0.000597558
0.000138325
0.000359026
0.000113995
0.000139601
1.73656e-05
0.00195267
9.39482e-08
3.49507e-05
0.00187065
5.20907e-05
0.00178788
6.84094e-05
0.00168398
8.35904e-05
0.00155531
9.73558e-05
0.00140213
0.000109457
0.00122643
0.000119679
0.00103064
0.000127842
0.000817904
0.000133802
0.000591605
0.000137452
0.000355381
0.000112731
0.00013872
1.72539e-05
0.00193532
9.47376e-08
3.47274e-05
0.00185317
5.17587e-05
0.00177085
6.79741e-05
0.00166777
8.30594e-05
0.00154023
9.67383e-05
0.00138846
0.000108763
0.0012144
0.000118922
0.00102048
0.000127034
0.00080979
0.000132957
0.000585675
0.000136585
0.00035174
0.00011144
0.000137845
1.7143e-05
0.00191809
9.54555e-08
3.45054e-05
0.00183581
5.14288e-05
0.00175393
6.75417e-05
0.00165166
8.25318e-05
0.00152524
9.61248e-05
0.00137487
0.000108074
0.00120246
0.00011817
0.00101039
0.000126231
0.000801735
0.000132118
0.000579795
0.000135723
0.000348139
0.000110192
0.000136976
1.70327e-05
0.00190096
9.61066e-08
3.42849e-05
0.00181856
5.1101e-05
0.00173711
6.7112e-05
0.00163565
8.20076e-05
0.00151035
9.55152e-05
0.00136136
0.00010739
0.00119059
0.000117423
0.00100036
0.000125434
0.000793722
0.000131284
0.000573938
0.000134868
0.000344542
0.000108915
0.000136112
1.69231e-05
0.00188394
9.66976e-08
3.40658e-05
0.00180142
5.07753e-05
0.0017204
6.66851e-05
0.00161974
8.14868e-05
0.00149555
9.49096e-05
0.00134795
0.00010671
0.00117879
0.00011668
0.000990394
0.000124642
0.000785767
0.000130456
0.00056813
0.000134017
0.000340985
0.000107684
0.000135254
1.68141e-05
0.00186703
9.72328e-08
3.3848e-05
0.00178439
5.04517e-05
0.0017038
6.62609e-05
0.00160393
8.09694e-05
0.00148084
9.43079e-05
0.00133461
0.000106035
0.00116707
0.000115943
0.000980486
0.000123855
0.000777852
0.000129633
0.000562345
0.000133172
0.000337431
0.000106421
0.000134402
1.67058e-05
0.00185023
9.77189e-08
3.36316e-05
0.00176746
5.01301e-05
0.0016873
6.58394e-05
0.00158823
8.04553e-05
0.00146623
9.37102e-05
0.00132136
0.000105364
0.00115542
0.00011521
0.000970647
0.000123073
0.000769995
0.000128816
0.000556608
0.000132333
0.000333919
0.000105205
0.000133556
1.65982e-05
0.00183353
9.81615e-08
3.34166e-05
0.00175064
4.98105e-05
0.00167091
6.54206e-05
0.00157262
7.99445e-05
0.00145171
9.31163e-05
0.00130819
0.000104697
0.00114384
0.000114482
0.000960862
0.000122296
0.000762178
0.000128003
0.000550893
0.000131499
0.000330407
0.000103955
0.000132715
1.64913e-05
0.00181694
9.85707e-08
3.32029e-05
0.00173393
4.9493e-05
0.00165462
6.50046e-05
0.00155711
7.9437e-05
0.00143728
9.25262e-05
0.00129511
0.000104035
0.00113234
0.000113759
0.000951144
0.000121525
0.000754418
0.000127197
0.000545227
0.000130671
0.000326938
0.000102755
0.000131879
1.6385e-05
0.00180046
9.8957e-08
3.29906e-05
0.00171733
4.91776e-05
0.00163844
6.45912e-05
0.0015417
7.89328e-05
0.00142294
9.194e-05
0.0012821
0.000103377
0.0011209
0.00011304
0.00094148
0.000120758
0.000746697
0.000126395
0.000539582
0.000129848
0.000323469
0.000101519
0.000131049
1.62794e-05
0.00178408
9.93367e-08
3.27796e-05
0.00170083
4.88641e-05
0.00162236
6.41805e-05
0.00152639
7.84319e-05
0.0014087
9.13577e-05
0.00126918
0.000102723
0.00110954
0.000112326
0.000931883
0.000119996
0.000739032
0.000125599
0.000533986
0.000129031
0.000320041
0.000100333
0.000130225
1.61745e-05
0.00176781
9.97267e-08
3.25699e-05
0.00168444
4.85527e-05
0.00160637
6.37724e-05
0.00151117
7.79343e-05
0.00139454
9.07791e-05
0.00125634
0.000102073
0.00109825
0.000111617
0.000922338
0.00011924
0.000731406
0.000124808
0.00052841
0.000128219
0.000316614
9.91114e-05
0.000129406
1.60702e-05
0.00175164
1.00148e-07
3.23616e-05
0.00166815
4.82432e-05
0.00159049
6.3367e-05
0.00149605
7.74399e-05
0.00138047
9.02043e-05
0.00124358
0.000101428
0.00108703
0.000110913
0.00091286
0.000118488
0.000723836
0.000124022
0.000522882
0.000127413
0.000313229
9.79407e-05
0.000128592
1.59666e-05
0.00173557
1.00622e-07
3.21545e-05
0.00165196
4.79358e-05
0.00157471
6.29642e-05
0.00148102
7.69487e-05
0.00136648
8.96333e-05
0.0012309
0.000100787
0.00107588
0.000110213
0.000903433
0.000117742
0.000716303
0.000123242
0.000517374
0.000126611
0.000309843
9.67325e-05
0.000127784
1.58636e-05
0.00171961
1.01167e-07
3.19489e-05
0.00163588
4.76303e-05
0.00155904
6.2564e-05
0.00146609
7.64607e-05
0.00135259
8.9066e-05
0.0012183
0.00010015
0.0010648
0.000109518
0.000894071
0.000117
0.000708826
0.000122466
0.000511914
0.000125815
0.000306499
9.55764e-05
0.000126982
1.57613e-05
0.00170375
1.01799e-07
3.17445e-05
0.00161989
4.73268e-05
0.00154345
6.21664e-05
0.00145126
7.5976e-05
0.00133878
8.85024e-05
0.00120577
9.95178e-05
0.00105378
0.000108827
0.000884761
0.000116263
0.000701386
0.000121696
0.000506473
0.000125025
0.000303153
9.43817e-05
0.000126184
1.56596e-05
0.00168799
1.02531e-07
3.15414e-05
0.00160401
4.70253e-05
0.00152797
6.17714e-05
0.00143651
7.54944e-05
0.00132506
8.79426e-05
0.00119333
9.88894e-05
0.00104284
0.000108141
0.000875515
0.000115531
0.000694
0.000120931
0.00050108
0.000124239
0.00029985
9.32404e-05
0.000125392
1.55586e-05
0.00167233
1.03369e-07
3.13397e-05
0.00158823
4.67258e-05
0.00151259
6.1379e-05
0.00142186
7.50159e-05
0.00131143
8.73864e-05
0.00118096
9.82651e-05