1.275 	2.15223e-18 	-2.76991e-20 	0.622103 	-0.0127388 	-5.05904e-23
1.825 	2.15223e-18 	-1.39322e-20 	0.779506 	-0.00517151 	-3.4394e-22
2.375 	2.15223e-18 	-2.66896e-23 	0.907059 	-0.00265655 	-5.73265e-23
