1.45 	0 	0 	-0.291583
2.35 	0 	0 	-0.0662987
