1.45 	0 	0 	-0.306242
2.35 	0 	0 	-0.132447
