/*--------------------------------*- C++ -*----------------------------------*\
  =========                 |
  \\      /  F ield         | OpenFOAM: The Open Source CFD Toolbox
   \\    /   O peration     | Website:  https://openfoam.org
    \\  /    A nd           | Version:  6.0
     \\/     M anipulation  |
\*---------------------------------------------------------------------------*/
FoamFile
{
    version     2.0;
    format      ascii;
    class       volVectorField;
    location    "0.5";
    object      U;
}
// * * * * * * * * * * * * * * * * * * * * * * * * * * * * * * * * * * * * * //

dimensions      [0 1 -1 0 0 0 0];

internalField   nonuniform List<vector> 
200
(
(0.000545229 -0.000618159 0)
(0.000945486 -0.000301 0)
(0.000190646 3.55351e-05 0)
(-0.0012161 0.000165366 0)
(-0.00298909 0.000241206 0)
(-0.00529164 0.000398548 0)
(-0.00863016 0.000765035 0)
(-0.0138842 0.00155411 0)
(-0.0224587 0.00315666 0)
(-0.0363271 0.00611539 0)
(-0.0575434 0.0107505 0)
(-0.0868794 0.0163477 0)
(-0.121573 0.0204927 0)
(-0.153444 0.0198601 0)
(-0.170717 0.0125785 0)
(-0.163791 -0.000215579 0)
(-0.130291 -0.0144278 0)
(-0.0773853 -0.0227577 0)
(-0.0232093 -0.0163395 0)
(0.001206 0.000841607 0)
(-9.71761e-05 -0.00089599 0)
(-0.0021049 0.00109623 0)
(-0.00695994 0.00276318 0)
(-0.0134072 0.00375311 0)
(-0.0211699 0.00478671 0)
(-0.0310097 0.00654926 0)
(-0.0444009 0.0097225 0)
(-0.0634545 0.0151729 0)
(-0.0906865 0.0238544 0)
(-0.128047 0.0359488 0)
(-0.174769 0.0491941 0)
(-0.225299 0.0580608 0)
(-0.270043 0.0559951 0)
(-0.298833 0.0392715 0)
(-0.303889 0.00853242 0)
(-0.280962 -0.0317793 0)
(-0.229749 -0.0723833 0)
(-0.154976 -0.0956013 0)
(-0.0698026 -0.0757334 0)
(-0.00991928 -0.010969 0)
(-0.00147662 0.00140789 0)
(-0.0075306 0.00728122 0)
(-0.0180441 0.0113068 0)
(-0.0305239 0.0140515 0)
(-0.0447234 0.0173687 0)
(-0.0618711 0.0228539 0)
(-0.0837569 0.0318461 0)
(-0.11229 0.0452995 0)
(-0.148688 0.0629165 0)
(-0.192182 0.0817287 0)
(-0.238852 0.0955412 0)
(-0.282038 0.0967885 0)
(-0.314894 0.0799986 0)
(-0.332882 0.0438209 0)
(-0.333548 -0.00980197 0)
(-0.314651 -0.0763397 0)
(-0.273312 -0.14547 0)
(-0.20721 -0.193622 0)
(-0.118693 -0.176723 0)
(-0.0273161 -0.0527066 0)
(-0.003223 0.00727154 0)
(-0.014007 0.0192071 0)
(-0.0304668 0.025875 0)
(-0.0483073 0.0303365 0)
(-0.0670137 0.0360441 0)
(-0.0877266 0.045367 0)
(-0.111636 0.0597108 0)
(-0.139526 0.0791619 0)
(-0.171208 0.101514 0)
(-0.204914 0.1215 0)
(-0.237116 0.131599 0)
(-0.263672 0.124854 0)
(-0.282064 0.0977407 0)
(-0.292261 0.050344 0)
(-0.294765 -0.0158901 0)
(-0.287954 -0.0990899 0)
(-0.266836 -0.19304 0)
(-0.223747 -0.276129 0)
(-0.15131 -0.291253 0)
(-0.0461831 -0.132706 0)
(-0.0052794 0.0171862 0)
(-0.0209983 0.036872 0)
(-0.0427007 0.0454072 0)
(-0.0638501 0.0501919 0)
(-0.0834552 0.0565701 0)
(-0.102215 0.0673545 0)
(-0.120487 0.0836571 0)
(-0.138319 0.104708 0)
(-0.155362 0.127182 0)
(-0.170671 0.145116 0)
(-0.182717 0.151359 0)
(-0.190267 0.140334 0)
(-0.193852 0.10999 0)
(-0.195859 0.0608955 0)
(-0.198645 -0.00661175 0)
(-0.202231 -0.0941241 0)
(-0.202256 -0.202567 0)
(-0.188622 -0.319896 0)
(-0.145814 -0.388586 0)
(-0.0505609 -0.248495 0)
(-0.00790858 0.0317036 0)
(-0.0288327 0.0598795 0)
(-0.0546329 0.0680928 0)
(-0.0763829 0.0704421 0)
(-0.0930371 0.0743268 0)
(-0.105118 0.082739 0)
(-0.112484 0.0965861 0)
(-0.11509 0.11483 0)
(-0.113263 0.134015 0)
(-0.107651 0.148503 0)
(-0.0990422 0.152064 0)
(-0.0886225 0.140268 0)
(-0.0786816 0.111804 0)
(-0.0725258 0.0672698 0)
(-0.0733766 0.00637179 0)
(-0.0828442 -0.0747198 0)
(-0.0989922 -0.183446 0)
(-0.11265 -0.321409 0)
(-0.104127 -0.445058 0)
(-0.0298541 -0.366675 0)
(-0.0119567 0.0521854 0)
(-0.0390445 0.0877871 0)
(-0.0674946 0.091687 0)
(-0.0863077 0.0880002 0)
(-0.0962877 0.0858324 0)
(-0.0988016 0.0880729 0)
(-0.0936659 0.0955294 0)
(-0.0809082 0.107411 0)
(-0.0613732 0.120907 0)
(-0.0369093 0.131365 0)
(-0.0101492 0.133643 0)
(0.0158068 0.123979 0)
(0.0374169 0.101048 0)
(0.0510426 0.0649043 0)
(0.0532715 0.0147889 0)
(0.0422111 -0.0539684 0)
(0.0171668 -0.151769 0)
(-0.0158754 -0.2915 0)
(-0.0399354 -0.452246 0)
(0.0112118 -0.449032 0)
(-0.019723 0.0819491 0)
(-0.0543179 0.120986 0)
(-0.0816169 0.112532 0)
(-0.0867063 0.0964957 0)
(-0.081775 0.0855506 0)
(-0.0703841 0.0798553 0)
(-0.0523108 0.0792078 0)
(-0.0272226 0.0830773 0)
(0.00452907 0.0896417 0)
(0.0414651 0.0956539 0)
(0.0807314 0.0973603 0)
(0.118714 0.0916188 0)
(0.150999 0.0769811 0)
(0.173829 0.0527038 0)
(0.182557 0.017707 0)
(0.175452 -0.0328175 0)
(0.147682 -0.108862 0)
(0.102883 -0.228994 0)
(0.0476541 -0.397086 0)
(0.0721616 -0.46029 0)
(-0.0762383 0.156639 0)
(-0.0852545 0.14082 0)
(-0.0466526 0.0992058 0)
(-0.00811464 0.0779803 0)
(0.0276546 0.0645317 0)
(0.061137 0.0550648 0)
(0.0943062 0.049168 0)
(0.128984 0.0467323 0)
(0.1663 0.0470463 0)
(0.206847 0.0485173 0)
(0.249107 0.0492314 0)
(0.291358 0.0470901 0)
(0.328638 0.041016 0)
(0.35878 0.0298459 0)
(0.373603 0.0129079 0)
(0.372922 -0.0133751 0)
(0.342281 -0.0555036 0)
(0.288109 -0.129717 0)
(0.194311 -0.26184 0)
(0.174458 -0.356919 0)
(0.208286 0.117782 0)
(0.252679 0.103679 0)
(0.337179 0.0757109 0)
(0.409212 0.0568462 0)
(0.462927 0.0441709 0)
(0.504613 0.0349533 0)
(0.539281 0.0281325 0)
(0.57034 0.0232278 0)
(0.599488 0.0199283 0)
(0.628751 0.0177371 0)
(0.657239 0.0162228 0)
(0.685896 0.0146849 0)
(0.709676 0.0127791 0)
(0.730104 0.00989068 0)
(0.736173 0.00577797 0)
(0.73334 -0.000642593 0)
(0.696775 -0.0112114 0)
(0.64154 -0.0301975 0)
(0.504458 -0.0666429 0)
(0.387412 -0.119888 0)
)
;

boundaryField
{
    movingWall
    {
        type            fixedValue;
        value           uniform (1 0 0);
    }
    fixedWalls
    {
        type            noSlip;
    }
    frontAndBack
    {
        type            empty;
    }
}


// ************************************************************************* //
