1.275 	2.15223e-18 	-2.76991e-20 	-0.0328696 	-0.000497541 	-2.02167e-22
1.825 	2.15223e-18 	-1.39322e-20 	-0.00724699 	-0.00289373 	1.81334e-21
2.375 	2.15223e-18 	-2.66896e-23 	0.122841 	-0.00345609 	-7.55193e-22
