1.45 	0 	0 	-0.00813434 	-0.00258574 	1.65345e-20
2.35 	0 	0 	0.0621384 	-0.00662467 	9.88733e-21
