1.45 	0 	0 	-0.00796402 	-0.00257745 	3.79898e-21
2.35 	0 	0 	0.0616548 	-0.00664248 	2.30882e-21
