1.45 	0 	0 	-0.292345
2.35 	0 	0 	-0.127633
