1.45 	0 	0 	0.00508026 	-0.00395415 	3.9447e-21
2.35 	0 	0 	0.120104 	-0.00868186 	1.87614e-21
