1.45 	0 	0 	-0.302876
2.35 	0 	0 	-0.134547
