1.45 	0 	0 	0.000649027 	-0.0034113 	3.97029e-21
2.35 	0 	0 	0.097786 	-0.00791943 	2.14965e-21
