/*--------------------------------*- C++ -*----------------------------------*\
  =========                 |
  \\      /  F ield         | OpenFOAM: The Open Source CFD Toolbox
   \\    /   O peration     | Website:  https://openfoam.org
    \\  /    A nd           | Version:  6.0
     \\/     M anipulation  |
\*---------------------------------------------------------------------------*/
FoamFile
{
    version     2.0;
    format      ascii;
    class       surfaceScalarField;
    location    "0.5";
    object      phi;
}
// * * * * * * * * * * * * * * * * * * * * * * * * * * * * * * * * * * * * * //

dimensions      [0 3 -1 0 0 0 0];

internalField   nonuniform List<scalar> 
3120
(
2.53555e-09
-2.54748e-09
4.09654e-09
-1.56099e-09
2.25385e-09
1.84267e-09
-3.5539e-09
5.80773e-09
-1.31366e-08
9.58272e-09
-2.59856e-08
1.28489e-08
-4.14613e-08
1.54757e-08
-5.88874e-08
1.74261e-08
-7.75961e-08
1.87087e-08
-9.69507e-08
1.93546e-08
-1.16357e-07
1.94061e-08
-1.35268e-07
1.89116e-08
-1.53191e-07
1.79222e-08
-1.69681e-07
1.64907e-08
-1.84352e-07
1.46704e-08
-1.96867e-07
1.2515e-08
-2.06946e-07
1.00787e-08
-2.14362e-07
7.41666e-09
-2.18947e-07
4.58506e-09
-2.20589e-07
1.64177e-09
-2.19236e-07
-1.35335e-09
-2.14897e-07
-4.33822e-09
-2.07649e-07
-7.24839e-09
-1.97632e-07
-1.00173e-08
-1.85055e-07
-1.25764e-08
-1.70199e-07
-1.48564e-08
-1.53412e-07
-1.67876e-08
-1.3511e-07
-1.83015e-08
-1.15777e-07
-1.93327e-08
-9.59572e-08
-1.98201e-08
-7.62477e-08
-1.97095e-08
-5.72917e-08
-1.89562e-08
-3.97638e-08
-1.75282e-08
-2.43517e-08
-1.54123e-08
-1.17272e-08
-1.26243e-08
-2.49611e-09
-9.23066e-09
2.89743e-09
-5.39327e-09
4.35766e-09
-1.46045e-09
2.56105e-09
1.79593e-09
2.5604e-09
1.6155e-09
-4.16299e-09
-1.17052e-09
1.22499e-09
-1.17151e-08
1.23873e-08
-3.10747e-08
2.51673e-08
-5.90484e-08
3.75564e-08
-9.46926e-08
4.84932e-08
-1.36658e-07
5.7441e-08
-1.83405e-07
6.41728e-08
-2.33333e-07
6.8637e-08
-2.84862e-07
7.08832e-08
-3.36476e-07
7.10207e-08
-3.86759e-07
6.91951e-08
-4.3441e-07
6.55732e-08
-4.78255e-07
6.03356e-08
-5.17256e-07
5.36707e-08
-5.50513e-07
4.5773e-08
-5.77276e-07
3.68417e-08
-5.96941e-07
2.70808e-08
-6.09056e-07
1.67e-08
-6.13329e-07
5.915e-09
-6.09631e-07
-5.05136e-09
-5.98e-07
-1.59687e-08
-5.78649e-07
-2.65994e-08
-5.51967e-07
-3.66994e-08
-5.18524e-07
-4.60198e-08
-4.7907e-07
-5.43102e-08
-4.34536e-07
-6.13221e-08
-3.86023e-07
-6.68145e-08
-3.34796e-07
-7.05599e-08
-2.82264e-07
-7.23522e-08
-2.29957e-07
-7.20163e-08
-1.79494e-07
-6.94195e-08
-1.32535e-07
-6.44873e-08
-9.07201e-08
-5.72275e-08
-5.5577e-08
-4.77679e-08
-2.83824e-08
-3.64254e-08
-9.94655e-09
-2.38286e-08
-2.87496e-10
-1.11187e-08
1.8548e-09
-3.45885e-10
4.41461e-09
-1.66746e-09
-2.49555e-09
-1.2118e-08
1.16755e-08
-3.40929e-08
3.43621e-08
-6.84556e-08
5.953e-08
-1.14793e-07
8.38935e-08
-1.71818e-07
1.05519e-07
-2.37699e-07
1.23322e-07
-3.10297e-07
1.36771e-07
-3.87345e-07
1.45684e-07
-4.66556e-07
1.50095e-07
-5.45712e-07
1.50176e-07
-6.2271e-07
1.46193e-07
-6.95603e-07
1.38466e-07
-7.62624e-07
1.27357e-07
-8.22203e-07
1.1325e-07
-8.7298e-07
9.65491e-08
-9.1381e-07
7.76722e-08
-9.4378e-07
5.70504e-08
-9.62207e-07
3.51277e-08
-9.68655e-07
1.23621e-08
-9.62932e-07
-1.0774e-08
-9.45108e-07
-3.37933e-08
-9.15512e-07
-5.61947e-08
-8.74746e-07
-7.74658e-08
-8.23679e-07
-9.70869e-08
-7.63452e-07
-1.14537e-07
-6.95469e-07
-1.29305e-07
-6.21388e-07
-1.40896e-07
-5.43096e-07
-1.48852e-07
-4.62686e-07
-1.52762e-07
-3.82412e-07
-1.52291e-07
-3.04632e-07
-1.47199e-07
-2.3174e-07
-1.37379e-07
-1.6606e-07
-1.22908e-07
-1.09716e-07
-1.04112e-07
-6.44523e-08
-8.169e-08
-3.13848e-08
-5.68963e-08
-1.06923e-08
-3.18107e-08
-1.23752e-09
-9.79988e-09
3.17694e-09
-5.56977e-09
3.0742e-09
-2.49812e-08
3.10868e-08
-5.96925e-08
6.90734e-08
-1.0988e-07
1.09717e-07
-1.74652e-07
1.48666e-07
-2.52303e-07
1.8317e-07
-3.4056e-07
2.11579e-07
-4.36805e-07
2.33017e-07
-5.38249e-07
2.47128e-07
-6.42061e-07
2.53907e-07
-7.45472e-07
2.53587e-07
-8.45841e-07
2.46562e-07
-9.40707e-07
2.33332e-07
-1.02783e-06
2.14477e-07
-1.1052e-06
1.90624e-07
-1.17109e-06
1.62439e-07
-1.22404e-06
1.30619e-07
-1.26287e-06
9.58852e-08
-1.28673e-06
5.89818e-08
-1.29504e-06
2.06782e-08
-1.28758e-06
-1.82325e-08
-1.26444e-06
-5.69337e-08
-1.22605e-06
-9.45875e-08
-1.17318e-06
-1.3034e-07
-1.10694e-06
-1.63326e-07
-1.02879e-06
-1.92687e-07
-9.40517e-07
-2.17577e-07
-8.44222e-07
-2.37191e-07
-7.42291e-07
-2.50783e-07
-6.37356e-07
-2.57698e-07
-5.32238e-07
-2.57409e-07
-4.29876e-07
-2.49561e-07
-3.33232e-07
-2.34023e-07
-2.45169e-07
-2.1097e-07
-1.68301e-07
-1.80979e-07
-1.04807e-07
-1.45185e-07
-5.62027e-08
-1.05501e-07
-2.31031e-08
-6.49104e-08
-4.98688e-09
-2.79157e-08
-1.80969e-09
-9.47014e-09
1.25443e-08
-3.81798e-08
5.97965e-08
-8.60881e-08
1.16982e-07
-1.52409e-07
1.76038e-07
-2.35573e-07
2.3183e-07
-3.33343e-07
2.80939e-07
-4.42979e-07
3.21214e-07
-5.61415e-07
3.51452e-07
-6.85413e-07
3.71126e-07
-8.11696e-07
3.8019e-07
-9.37047e-07
3.78938e-07
-1.05839e-06
3.67907e-07
-1.17286e-06
3.478e-07
-1.27782e-06
3.19442e-07
-1.37094e-06
2.83741e-07
-1.45017e-06
2.41669e-07
-1.5138e-06
1.94247e-07
-1.56045e-06
1.42536e-07
-1.5891e-06
8.76351e-08
-1.5991e-06
3.06803e-08
-1.59018e-06
-2.71582e-08
-1.56244e-06
-8.46765e-08
-1.51638e-06
-1.40641e-07
-1.45292e-06
-1.93798e-07
-1.37337e-06
-2.4288e-07
-1.27943e-06
-2.8663e-07
-1.17319e-06
-3.23819e-07
-1.0571e-06
-3.53277e-07
-9.33952e-07
-3.73929e-07
-8.06811e-07
-3.8484e-07
-6.78956e-07
-3.85265e-07
-5.53801e-07
-3.74716e-07
-4.34785e-07
-3.53039e-07
-3.25246e-07
-3.20509e-07
-2.28262e-07
-2.77962e-07
-1.46486e-07
-2.26962e-07
-8.19529e-08
-1.70034e-07
-3.59197e-08
-1.10944e-07
-8.75721e-09
-5.50782e-08
-1.05666e-08
-1.31647e-08
2.5709e-08
-5.10354e-08
9.7667e-08
-1.1211e-07
1.78056e-07
-1.94528e-07
2.58457e-07
-2.95916e-07
3.33219e-07
-4.13409e-07
3.98431e-07
-5.43746e-07
4.51551e-07
-6.83403e-07
4.9111e-07
-8.28721e-07
5.16444e-07
-9.76022e-07
5.27491e-07
-1.12171e-06
5.24626e-07
-1.26235e-06
5.08548e-07
-1.39474e-06
4.80186e-07
-1.51594e-06
4.40639e-07
-1.62332e-06
3.91128e-07
-1.71462e-06
3.32964e-07
-1.7879e-06
2.6753e-07
-1.84163e-06
1.96268e-07
-1.87467e-06
1.20673e-07
-1.88628e-06
4.22887e-08
-1.87615e-06
-3.72916e-08
-1.84439e-06
-1.16432e-07
-1.79157e-06
-1.93458e-07
-1.7187e-06
-2.66668e-07
-1.62724e-06
-3.34348e-07
-1.51907e-06
-3.94795e-07
-1.39654e-06
-4.46351e-07
-1.26238e-06
-4.87439e-07
-1.11969e-06
-5.16615e-07
-9.71905e-07
-5.32626e-07
-8.22689e-07
-5.34481e-07
-6.75872e-07
-5.21534e-07
-5.35329e-07
-4.93582e-07
-4.04855e-07
-4.50983e-07
-2.88018e-07
-3.94799e-07
-1.88003e-07
-3.26976e-07
-1.07473e-07
-2.50564e-07
-4.8459e-08
-1.69959e-07
-1.2338e-08
-9.11995e-08
-2.29045e-08
-1.66135e-08
4.23224e-08
-6.33215e-08
1.44375e-07
-1.37294e-07
2.52028e-07
-2.35585e-07
3.56748e-07
-3.54953e-07
4.52586e-07
-4.91832e-07
5.35311e-07
-6.42391e-07
6.0211e-07
-8.02619e-07
6.51338e-07
-9.68433e-07
6.82258e-07
-1.13578e-06
6.94834e-07
-1.30071e-06
6.8956e-07
-1.45949e-06
6.67327e-07
-1.60862e-06
6.2932e-07
-1.74493e-06
5.76942e-07
-1.86555e-06
5.11753e-07
-1.96802e-06
4.35435e-07
-2.05026e-06
3.49765e-07
-2.11058e-06
2.56595e-07
-2.14776e-06
1.57848e-07
-2.16098e-06
5.55102e-08
-2.1499e-06
-4.83726e-08
-2.11463e-06
-1.51697e-07
-2.05578e-06
-2.52314e-07
-1.97441e-06
-3.48037e-07
-1.87209e-06
-4.36666e-07
-1.75087e-06
-5.16017e-07
-1.61326e-06
-5.83961e-07
-1.46222e-06
-6.38475e-07
-1.30113e-06
-6.77703e-07
-1.13372e-06
-7.00036e-07
-9.64008e-07
-7.04197e-07
-7.96202e-07
-6.8934e-07
-6.34608e-07
-6.55176e-07
-4.83494e-07
-6.02097e-07
-3.46955e-07
-5.31338e-07
-2.28781e-07
-4.4515e-07
-1.3234e-07
-3.47005e-07
-6.05092e-08
-2.4179e-07
-1.56912e-08
-1.36018e-07
-3.85957e-08
-1.98454e-08
6.21678e-08
-7.50423e-08
1.99572e-07
-1.61576e-07
3.38562e-07
-2.75451e-07
4.70623e-07
-4.12533e-07
5.89668e-07
-5.68514e-07
6.91291e-07
-7.38944e-07
7.7254e-07
-9.19298e-07
8.31691e-07
-1.10505e-06
8.68014e-07
-1.29178e-06
8.81563e-07
-1.47522e-06
8.72999e-07
-1.65135e-06
8.4345e-07
-1.81642e-06
7.94393e-07
-1.96704e-06
7.27565e-07
-2.10019e-06
6.44899e-07
-2.21323e-06
5.48474e-07
-2.30395e-06
4.40484e-07
-2.37057e-06
3.23218e-07
-2.41177e-06
1.99047e-07
-2.42668e-06
7.04234e-08
-2.41492e-06
-6.01301e-08
-2.3766e-06
-1.90021e-07
-2.31232e-06
-3.16597e-07
-2.22319e-06
-4.37162e-07
-2.11086e-06
-5.49001e-07
-1.97746e-06
-6.49413e-07
-1.82566e-06
-7.35762e-07
-1.6586e-06
-8.05536e-07
-1.47987e-06
-8.56428e-07
-1.29349e-06
-8.86422e-07
-1.10378e-06
-8.93902e-07
-9.15347e-07
-8.77774e-07
-7.32924e-07
-8.37599e-07
-5.61281e-07
-7.73741e-07
-4.0509e-07
-6.8753e-07
-2.68804e-07
-5.81436e-07
-1.56556e-07
-4.59253e-07
-7.21047e-08
-3.2624e-07
-1.88534e-08
-1.89269e-07
-5.74492e-08
-2.29128e-08
8.50806e-08
-8.63031e-08
2.62962e-07
-1.85092e-07
4.3735e-07
-3.14278e-07
5.99809e-07
-4.68834e-07
7.44224e-07
-6.43684e-07
8.66142e-07
-8.33729e-07
9.62586e-07
-1.0339e-06
1.03186e-06
-1.23922e-06
1.07333e-06
-1.44488e-06
1.08723e-06
-1.64631e-06
1.07443e-06
-1.83922e-06
1.03636e-06
-2.01966e-06
9.74832e-07
-2.18405e-06
8.91957e-07
-2.32922e-06
7.90067e-07
-2.45241e-06
6.71665e-07
-2.55131e-06
5.39384e-07
-2.62406e-06
3.95967e-07
-2.66926e-06
2.44251e-07
-2.68601e-06
8.71657e-08
-2.67386e-06
-7.22743e-08
-2.63291e-06
-2.30972e-07
-2.56375e-06
-3.85758e-07
-2.46751e-06
-5.33405e-07
-2.34585e-06
-6.70658e-07
-2.20099e-06
-7.9427e-07
-2.03569e-06
-9.01063e-07
-1.85323e-06
-9.87996e-07
-1.6574e-06
-1.05226e-06
-1.45246e-06
-1.09137e-06
-1.24304e-06
-1.10332e-06
-1.03413e-06
-1.08669e-06
-8.30918e-07
-1.04081e-06
-6.3871e-07
-9.65949e-07
-4.62802e-07
-8.63438e-07
-3.08365e-07
-7.35874e-07
-1.80343e-07
-5.87275e-07
-8.3394e-08
-4.23189e-07
-2.18892e-08
-2.50774e-07
-7.93385e-08
-2.58715e-08
1.10952e-07
-9.72453e-08
3.34336e-07
-2.0806e-07
5.48165e-07
-3.52349e-07
7.44098e-07
-5.24197e-07
9.16072e-07
-7.17745e-07
1.05969e-06
-9.27219e-07
1.17206e-06
-1.14698e-06
1.25162e-06
-1.37159e-06
1.29794e-06
-1.59585e-06
1.31149e-06
-1.81488e-06
1.29346e-06
-2.02415e-06
1.24563e-06
-2.21952e-06
1.1702e-06
-2.39726e-06
1.06969e-06
-2.55407e-06
9.46879e-07
-2.68711e-06
8.04704e-07
-2.79399e-06
6.4626e-07
-2.87278e-06
4.74757e-07
-2.92203e-06
2.93506e-07
-2.94079e-06
1.0592e-07
-2.92857e-06
-8.44891e-08
-2.88543e-06
-2.74116e-07
-2.81192e-06
-4.59263e-07
-2.70917e-06
-6.36162e-07
-2.57883e-06
-8.00997e-07
-2.42315e-06
-9.49952e-07
-2.24494e-06
-1.07927e-06
-2.0476e-06
-1.18534e-06
-1.83508e-06
-1.26478e-06
-1.61186e-06
-1.31459e-06
-1.38288e-06
-1.33229e-06
-1.15351e-06
-1.31606e-06
-9.29414e-07
-1.2649e-06
-7.16478e-07
-1.17888e-06
-5.20667e-07
-1.05925e-06
-3.47918e-07
-9.08623e-07
-2.04026e-07
-7.31166e-07
-9.45707e-08
-5.32645e-07
-2.48694e-08
-3.20475e-07
-1.04208e-07
-2.87735e-08
1.39726e-07
-1.08016e-07
4.13578e-07
-2.30727e-07
6.70876e-07
-3.9e-07
9.0337e-07
-5.79031e-07
1.1051e-06
-7.91163e-07
1.27182e-06
-1.01993e-06
1.40082e-06
-1.2591e-06
1.4908e-06
-1.50276e-06
1.5416e-06
-1.74533e-06
1.55405e-06
-1.98162e-06
1.52975e-06
-2.20688e-06
1.47089e-06
-2.41679e-06
1.38011e-06
-2.6075e-06
1.2604e-06
-2.77562e-06
1.115e-06
-2.91824e-06
9.47329e-07
-3.03293e-06
7.60948e-07
-3.11772e-06
5.5954e-07
-3.1711e-06
3.46894e-07
-3.19209e-06
1.26904e-07
-3.18015e-06
-9.64277e-08
-3.13528e-06
-3.18988e-07
-3.05799e-06
-5.36554e-07
-2.94934e-06
-7.44809e-07
-2.81097e-06
-9.39366e-07
-2.64511e-06
-1.11582e-06
-2.45459e-06
-1.26979e-06
-2.24287e-06
-1.39705e-06
-2.01404e-06
-1.49361e-06
-1.77278e-06
-1.55586e-06
-1.52433e-06
-1.58074e-06
-1.27445e-06
-1.56594e-06
-1.0293e-06
-1.51005e-06
-7.95368e-07
-1.41281e-06
-5.79345e-07
-1.27527e-06
-3.87981e-07
-1.09999e-06
-2.27971e-07
-8.91176e-07
-1.05841e-07
-6.54775e-07
-2.78636e-08
-3.98452e-07
-1.32071e-07
-3.16652e-08
1.71391e-07
-1.18753e-07
5.00665e-07
-2.53337e-07
8.0546e-07
-4.27567e-07
1.0776e-06
-6.33746e-07
1.31128e-06
-8.644e-07
1.50248e-06
-1.11235e-06
1.64877e-06
-1.37077e-06
1.74921e-06
-1.63324e-06
1.80407e-06
-1.8938e-06
1.81462e-06
-2.14699e-06
1.78294e-06
-2.38782e-06
1.71172e-06
-2.61184e-06
1.60413e-06
-2.8151e-06
1.46367e-06
-2.99417e-06
1.29407e-06
-3.1461e-06
1.09925e-06
-3.26842e-06
8.83266e-07
-3.35914e-06
6.50264e-07
-3.41675e-06
4.04504e-07
-3.4402e-06
1.50353e-07
-3.42891e-06
-1.0771e-07
-3.38282e-06
-3.65078e-07
-3.30236e-06
-6.17013e-07
-3.18852e-06
-8.58654e-07
-3.04285e-06
-1.08504e-06
-2.86752e-06
-1.29114e-06
-2.66536e-06
-1.47195e-06
-2.43985e-06
-1.62256e-06
-2.19515e-06
-1.7383e-06
-1.93614e-06
-1.81487e-06
-1.66833e-06
-1.84855e-06
-1.39787e-06
-1.8364e-06
-1.13144e-06
-1.77649e-06
-8.76172e-07
-1.66808e-06
-6.39512e-07
-1.51193e-06
-4.29088e-07
-1.31041e-06
-2.52545e-07
-1.06772e-06
-1.17407e-07
-7.89913e-07
-3.09366e-08
-4.84923e-07
-1.63008e-07
-3.45867e-08
2.05977e-07
-1.29581e-07
5.95659e-07
-2.76112e-07
9.51991e-07
-4.65367e-07
1.26685e-06
-6.88726e-07
1.53464e-06
-9.37877e-07
1.75163e-06
-1.2049e-06
1.9158e-06
-1.48237e-06
2.02668e-06
-1.76335e-06
2.08506e-06
-2.04152e-06
2.09279e-06
-2.31113e-06
2.05254e-06
-2.56702e-06
1.96761e-06
-2.80461e-06
1.84173e-06
-3.01992e-06
1.67897e-06
-3.20946e-06
1.48362e-06
-3.37031e-06
1.2601e-06
-3.50001e-06
1.01296e-06
-3.59656e-06
7.46823e-07
-3.65846e-06
4.664e-07
-3.68461e-06
1.76505e-07
-3.6744e-06
-1.17925e-07
-3.62766e-06
-4.11816e-07
-3.54474e-06
-6.99935e-07
-3.4265e-06
-9.76891e-07
-3.27439e-06
-1.23715e-06
-3.09048e-06
-1.47505e-06
-2.8775e-06
-1.68493e-06
-2.63892e-06
-1.86115e-06
-2.37895e-06
-1.99827e-06
-2.1026e-06
-2.09122e-06
-1.81563e-06
-2.13552e-06
-1.52457e-06
-2.12746e-06
-1.23664e-06
-2.06442e-06
-9.59639e-07
-1.94509e-06
-7.01825e-07
-1.76974e-06
-4.71758e-07
-1.54048e-06
-2.78107e-07
-1.26137e-06
-1.29464e-07
-9.38555e-07
-3.41491e-08
-5.80238e-07
-1.97157e-07
-3.75733e-08
2.43551e-07
-1.40615e-07
6.98701e-07
-2.99259e-07
1.11064e-06
-5.03684e-07
1.47128e-06
-7.4431e-07
1.77527e-06
-1.01195e-06
2.01926e-06
-1.29792e-06
2.20177e-06
-1.59416e-06
2.32291e-06
-1.89326e-06
2.38415e-06
-2.1885e-06
2.38804e-06
-2.4739e-06
2.33794e-06
-2.74414e-06
2.23785e-06
-2.99458e-06
2.09217e-06
-3.22121e-06
1.9056e-06
-3.42059e-06
1.683e-06
-3.58983e-06
1.42934e-06
-3.72652e-06
1.14965e-06
-3.82872e-06
8.49019e-07
-3.8949e-06
5.32586e-07
-3.92398e-06
2.05585e-07
-3.91528e-06
-1.26633e-07
-3.86853e-06
-4.58558e-07
-3.78397e-06
-7.84498e-07
-3.66231e-06
-1.09856e-06
-3.50482e-06
-1.39464e-06
-3.31341e-06
-1.66646e-06
-3.09068e-06
-1.90766e-06
-2.84e-06
-2.11182e-06
-2.56557e-06
-2.27269e-06
-2.27248e-06
-2.38431e-06
-1.96672e-06
-2.44128e-06
-1.65517e-06
-2.43901e-06
-1.34558e-06
-2.37401e-06
-1.04644e-06
-2.24422e-06
-7.66889e-07
-2.0493e-06
-5.16479e-07
-1.79089e-06
-3.04995e-07
-1.47285e-06
-1.42194e-07
-1.10136e-06
-3.75574e-08
-6.84874e-07
-2.34714e-07
-4.0657e-08
2.84208e-07
-1.51957e-07
8.10001e-07
-3.22963e-07
1.28164e-06
-5.42776e-07
1.69109e-06
-8.00793e-07
2.03328e-06
-1.0869e-06
2.30537e-06
-1.39163e-06
2.5065e-06
-1.70625e-06
2.63754e-06
-2.02288e-06
2.70078e-06
-2.33446e-06
2.69962e-06
-2.63477e-06
2.63825e-06
-2.9184e-06
2.52148e-06
-3.18069e-06
2.35446e-06
-3.41767e-06
2.14258e-06
-3.626e-06
1.89133e-06
-3.80287e-06
1.60622e-06
-3.94599e-06
1.29277e-06
-4.05348e-06
9.56508e-07
-4.12387e-06
6.02975e-07
-4.15606e-06
2.37774e-07
-4.14932e-06
-1.33373e-07
-4.1033e-06
-5.0458e-07
-4.01805e-06
-8.6974e-07
-3.89412e-06
-1.22249e-06
-3.73254e-06
-1.55621e-06
-3.53501e-06
-1.864e-06
-3.3039e-06
-2.13877e-06
-3.04242e-06
-2.37331e-06
-2.75467e-06
-2.56044e-06
-2.44575e-06
-2.69323e-06
-2.12181e-06
-2.76522e-06
-1.79006e-06
-2.77075e-06
-1.45877e-06
-2.7053e-06
-1.13715e-06
-2.56584e-06
-8.35247e-07
-2.3512e-06
-5.63705e-07
-2.06243e-06
-3.33528e-07
-1.70303e-06
-1.5577e-07
-1.27911e-06
-4.1215e-08
-7.99429e-07
-2.75929e-07
-4.38685e-08
3.28076e-07
-1.63707e-07
9.2984e-07
-3.47402e-07
1.46534e-06
-5.8288e-07
1.92657e-06
-8.58428e-07
2.30883e-06
-1.16294e-06
2.60989e-06
-1.48612e-06
2.82968e-06
-1.81858e-06
2.97e-06
-2.15194e-06
3.03414e-06
-2.47882e-06
3.0265e-06
-2.79284e-06
2.95227e-06
-3.08855e-06
2.81718e-06
-3.36133e-06
2.62724e-06
-3.60734e-06
2.38859e-06
-3.82339e-06
2.10738e-06
-4.00685e-06
1.78968e-06
-4.15558e-06
1.44149e-06
-4.26782e-06
1.06875e-06
-4.34218e-06
6.77342e-07
-4.3776e-06
2.73192e-07
-4.37329e-06
-1.37681e-07
-4.32879e-06
-5.49077e-07
-4.24399e-06
-9.54545e-07
-4.11917e-06
-1.34732e-06
-3.9551e-06
-1.72028e-06
-3.75316e-06
-2.06594e-06
-3.51544e-06
-2.37649e-06
-3.24486e-06
-2.64389e-06
-2.94534e-06
-2.85996e-06
-2.6219e-06
-3.01667e-06
-2.28075e-06
-3.10637e-06
-1.92939e-06
-3.12212e-06
-1.57656e-06
-3.05813e-06
-1.23222e-06
-2.91018e-06
-9.07374e-07
-2.67605e-06
-6.13852e-07
-2.35595e-06
-3.6401e-07
-1.95287e-06
-1.70362e-07
-1.47276e-06
-4.51742e-08
-9.24617e-07
-3.21104e-07
-4.72393e-08
3.75315e-07
-1.75965e-07
1.05857e-06
-3.72753e-07
1.66212e-06
-6.24223e-07
2.17804e-06
-9.17443e-07
2.60205e-06
-1.24024e-06
2.93268e-06
-1.58141e-06
3.17085e-06
-1.93091e-06
3.3195e-06
-2.27988e-06
3.38311e-06
-2.62066e-06
3.36728e-06
-2.94678e-06
3.27839e-06
-3.25281e-06
3.12321e-06
-3.53428e-06
2.90872e-06
-3.78756e-06
2.64187e-06
-4.00969e-06
2.32951e-06
-4.19831e-06
1.97829e-06
-4.3515e-06
1.59467e-06
-4.46769e-06
1.18494e-06
-4.54563e-06
7.55282e-07
-4.58429e-06
3.11853e-07
-4.58287e-06
-1.39105e-07
-4.54078e-06
-5.91168e-07
-4.4577e-06
-1.03763e-06
-4.33363e-06
-1.47138e-06
-4.16901e-06
-1.8849e-06
-3.96481e-06
-2.27014e-06
-3.72271e-06
-2.6186e-06
-3.44525e-06
-2.92134e-06
-3.13604e-06
-3.16918e-06
-2.79988e-06
-3.35283e-06
-2.44297e-06
-3.46328e-06
-2.07297e-06
-3.49211e-06
-1.69907e-06
-3.43202e-06
-1.33196e-06
-3.27729e-06
-9.83666e-07
-3.02435e-06
-6.67299e-07
-2.67232e-06
-3.96731e-07
-2.22344e-06
-1.86134e-07
-1.68336e-06
-4.94876e-08
-1.06126e-06
-3.70591e-07
-5.08051e-08
4.2612e-07
-1.88846e-07
1.19661e-06
-3.99212e-07
1.87249e-06
-6.67046e-07
2.44587e-06
-9.78054e-07
2.91306e-06
-1.31888e-06
3.27351e-06
-1.67739e-06
3.52936e-06
-2.04282e-06
3.68493e-06
-2.40587e-06
3.74616e-06
-2.75869e-06
3.7201e-06
-3.09477e-06
3.61446e-06
-3.40882e-06
3.43726e-06
-3.69662e-06
3.19652e-06
-3.95486e-06
2.90011e-06
-4.18094e-06
2.55559e-06
-4.37284e-06
2.17019e-06
-4.52895e-06
1.75079e-06
-4.64798e-06
1.30398e-06
-4.72886e-06
8.36157e-07
-4.77064e-06
3.53637e-07
-4.77252e-06
-1.37229e-07
-4.73378e-06
-6.29902e-07
-4.65389e-06
-1.11752e-06
-4.53251e-06
-1.59276e-06
-4.36966e-06
-2.04775e-06
-4.16581e-06
-2.47398e-06
-3.92213e-06
-2.86228e-06
-3.64063e-06
-3.20284e-06
-3.32444e-06
-3.48536e-06
-2.97802e-06
-3.69925e-06
-2.60738e-06
-3.83392e-06
-2.22025e-06
-3.87925e-06
-1.82617e-06
-3.8261e-06
-1.43654e-06
-3.66692e-06
-1.06444e-06
-3.39645e-06
-7.24398e-07
-3.01236e-06
-4.31979e-07
-2.51586e-06
-2.03256e-07
-1.91208e-06
-5.42107e-08
-1.21031e-06
-4.24802e-07
-5.46096e-08
4.8073e-07
-2.02486e-07
1.34448e-06
-4.27007e-07
2.09701e-06
-7.11623e-07
2.73049e-06
-1.04049e-06
3.24193e-06
-1.39895e-06
3.63196e-06
-1.77383e-06
3.90425e-06
-2.15369e-06
4.06479e-06
-2.52882e-06
4.12129e-06
-2.89122e-06
4.0825e-06
-3.23448e-06
3.95772e-06
-3.55357e-06
3.75635e-06
-3.84468e-06
3.48763e-06
-4.10493e-06
3.16036e-06
-4.3322e-06
2.78287e-06
-4.52495e-06
2.36294e-06
-4.68199e-06
1.90782e-06
-4.80236e-06
1.42435e-06
-4.88525e-06
9.19043e-07
-4.92985e-06
3.98241e-07
-4.93538e-06
-1.31706e-07
-4.90101e-06
-6.64274e-07
-4.82594e-06
-1.19258e-06
-4.70948e-06
-1.70922e-06
-4.55114e-06
-2.20609e-06
-4.35082e-06
-2.67431e-06
-4.10899e-06
-3.1041e-06
-3.82701e-06
-3.48482e-06
-3.50735e-06
-3.80503e-06
-3.1539e-06
-4.05269e-06
-2.77232e-06
-4.2155e-06
-2.37023e-06
-4.28134e-06
-1.95742e-06
-4.2389e-06
-1.54593e-06
-4.07841e-06
-1.14993e-06
-3.79245e-06
-7.85475e-07
-3.37682e-06
-4.70044e-07
-2.83129e-06
-2.21912e-07
-2.16022e-06
-5.94041e-08
-1.37282e-06
-4.84206e-07
-5.87091e-08
5.39439e-07
-2.17059e-07
1.50283e-06
-4.56428e-07
2.33638e-06
-7.58289e-07
3.03235e-06
-1.10502e-06
3.58866e-06
-1.48049e-06
4.00743e-06
-1.87044e-06
4.2942e-06
-2.26271e-06
4.45706e-06
-2.64725e-06
4.50583e-06
-3.01605e-06
4.4513e-06
-3.36294e-06
4.3046e-06
-3.68331e-06
4.07673e-06
-3.9739e-06
3.77821e-06
-4.23246e-06
3.41891e-06
-4.45748e-06
3.0079e-06
-4.64803e-06
2.55348e-06
-4.80344e-06
2.06323e-06
-4.92321e-06
1.54413e-06
-5.00684e-06
1.00267e-06
-5.05374e-06
4.45138e-07
-5.06316e-06
-1.22291e-07
-5.03418e-06
-6.93254e-07
-4.96575e-06
-1.26101e-06
-4.85675e-06
-1.81822e-06
-4.70613e-06
-2.35671e-06
-4.51308e-06
-2.86736e-06
-4.27728e-06
-3.3399e-06
-3.99921e-06
-3.76289e-06
-3.68047e-06
-4.12377e-06
-3.32419e-06
-4.40897e-06
-2.9354e-06
-4.60429e-06
-2.52139e-06
-4.69534e-06
-2.09204e-06
-4.66826e-06
-1.65991e-06
-4.51054e-06
-1.24028e-06
-4.21209e-06
-8.50837e-07
-3.76625e-06
-5.11236e-07
-3.17089e-06
-2.42302e-07
-2.42915e-06
-6.5138e-08
-1.54998e-06
-5.49344e-07
-6.3179e-08
6.02618e-07
-2.32797e-07
1.67245e-06
-4.87853e-07
2.59144e-06
-8.07477e-07
3.35198e-06
-1.17198e-06
3.95316e-06
-1.56355e-06
4.39901e-06
-1.96677e-06
4.69742e-06
-2.36878e-06
4.85907e-06
-2.7593e-06
4.89635e-06
-3.13044e-06
4.82245e-06
-3.47647e-06
4.65063e-06
-3.79341e-06
4.39368e-06
-4.07875e-06
4.06355e-06
-4.33103e-06
3.67119e-06
-4.54957e-06
3.22644e-06
-4.73414e-06
2.73806e-06
-4.88477e-06
2.21386e-06
-5.00148e-06
1.66084e-06
-5.0842e-06
1.08539e-06
-5.13259e-06
4.93523e-07
-5.14599e-06
-1.08885e-07
-5.12343e-06
-7.15817e-07
-5.06358e-06
-1.32086e-06
-4.96488e-06
-1.91691e-06
-4.82565e-06
-2.49595e-06
-4.64427e-06
-3.04874e-06
-4.41946e-06
-3.56471e-06
-4.15064e-06
-4.03172e-06
-3.83829e-06
-4.43611e-06
-3.48449e-06
-4.76278e-06
-3.09335e-06
-4.99543e-06
-2.67156e-06
-5.11713e-06
-2.2288e-06
-5.11102e-06
-1.77801e-06
-4.96133e-06
-1.33552e-06
-4.65458e-06
-9.20787e-07
-4.18098e-06
-5.55898e-07
-3.53578e-06
-2.64663e-07
-2.72038e-06
-7.14964e-08
-1.74315e-06
-6.2084e-07
-6.81229e-08
6.70741e-07
-2.50013e-07
1.85434e-06
-5.21787e-07
2.86321e-06
-8.59755e-07
3.68994e-06
-1.24178e-06
4.33518e-06
-1.64817e-06
4.8054e-06
-2.06224e-06
5.11149e-06
-2.4705e-06
5.26733e-06
-2.86258e-06
5.28842e-06
-3.23094e-06
5.19081e-06
-3.57051e-06
4.9902e-06
-3.87821e-06
4.70138e-06
-4.15251e-06
4.33785e-06
-4.39297e-06
3.91165e-06
-4.59988e-06
3.43335e-06
-4.77394e-06
2.91212e-06
-4.91595e-06
2.35587e-06
-5.0266e-06
1.77149e-06
-5.1063e-06
1.16509e-06
-5.15506e-06
5.42277e-07
-5.17237e-06
-9.15761e-08
-5.1572e-06
-7.30988e-07
-5.10799e-06
-1.37007e-06
-5.02271e-06
-2.00219e-06
-4.89899e-06
-2.61966e-06
-4.73432e-06
-3.21342e-06
-4.52631e-06
-3.77271e-06
-4.2731e-06
-4.28492e-06
-3.97382e-06
-4.7354e-06
-3.62912e-06
-5.10747e-06
-3.24187e-06
-5.38268e-06
-2.81775e-06
-5.54125e-06
-2.36591e-06
-5.56286e-06
-1.89943e-06
-5.42781e-06
-1.43557e-06
-5.11845e-06
-9.95626e-07
-4.62092e-06
-6.04428e-07
-3.92698e-06
-2.89283e-07
-3.03553e-06
-7.85843e-08
-1.95384e-06
-6.99425e-07
-7.3684e-08
7.44425e-07
-2.69134e-07
2.04979e-06
-5.58907e-07
3.15298e-06
-9.15866e-07
4.0469e-06
-1.31496e-06
4.73428e-06
-1.73436e-06
5.2248e-06
-2.15605e-06
5.53318e-06
-2.56602e-06
5.67729e-06
-2.95402e-06
5.67643e-06
-3.31318e-06
5.54997e-06
-3.63941e-06
5.31642e-06
-3.9308e-06
4.99277e-06
-4.18709e-06
4.59414e-06
-4.4091e-06
4.13366e-06
-4.59832e-06
3.62257e-06
-4.7565e-06
3.0703e-06
-4.88536e-06
2.48473e-06
-4.98635e-06
1.87248e-06
-5.06047e-06
1.23922e-06
-5.10812e-06
5.89927e-07
-5.12901e-06
-7.06851e-08
-5.12211e-06
-7.37886e-07
-5.08564e-06
-1.40654e-06
-5.01712e-06
-2.07072e-06
-4.91346e-06
-2.72332e-06
-4.77117e-06
-3.3557e-06
-4.58664e-06
-3.95724e-06
-4.35652e-06
-4.51504e-06
-4.07829e-06
-5.01364e-06
-3.75084e-06
-5.43492e-06
-3.37532e-06
-5.7582e-06
-2.95597e-06
-5.96061e-06
-2.50092e-06
-6.01791e-06
-2.023e-06
-5.90573e-06
-1.54019e-06
-5.60126e-06
-1.07567e-06
-5.08544e-06
-6.57309e-07
-4.34534e-06
-3.16528e-07
-3.37631e-06
-8.65383e-08
-2.18383e-06
-7.85963e-07
-8.00626e-08
8.24488e-07
-2.90747e-07
2.26048e-06
-6.00124e-07
3.46236e-06
-9.76777e-07
4.42356e-06
-1.39216e-06
5.14966e-06
-1.82202e-06
5.65466e-06
-2.24702e-06
5.95818e-06
-2.65281e-06
6.08309e-06
-3.02963e-06
6.05325e-06
-3.37163e-06
5.89197e-06
-3.6761e-06
5.62089e-06
-3.9427e-06
5.25937e-06
-4.17274e-06
4.82418e-06
-4.36857e-06
4.32949e-06
-4.53305e-06
3.78705e-06
-4.66914e-06
3.20639e-06
-4.77962e-06
2.59521e-06
-4.86678e-06
1.95965e-06
-4.93228e-06
1.30471e-06
-4.97699e-06
6.3463e-07
-5.00087e-06
-4.67994e-08
-5.00297e-06
-7.35792e-07
-4.98132e-06
-1.42818e-06
-4.93302e-06
-2.11901e-06
-4.85429e-06
-2.80206e-06
-4.74062e-06
-3.46937e-06
-4.58707e-06
-4.11079e-06
-4.38865e-06
-4.71346e-06
-4.14087e-06
-5.26142e-06
-3.84048e-06
-5.7353e-06
-3.48643e-06
-6.11225e-06
-3.08089e-06
-6.36615e-06
-2.6304e-06
-6.46841e-06
-2.14697e-06
-6.38915e-06
-1.64893e-06
-6.0993e-06
-1.16124e-06
-5.57313e-06
-7.1514e-07
-4.79144e-06
-3.46875e-07
-3.74458e-06
-9.55407e-08
-2.43517e-06
-8.81504e-07
-8.75403e-08
9.12028e-07
-3.15657e-07
2.48859e-06
-6.46651e-07
3.79335e-06
-1.04372e-06
4.82063e-06
-1.47412e-06
5.58006e-06
-1.91087e-06
6.09141e-06
-2.33342e-06
6.38073e-06
-2.72743e-06
6.4771e-06
-3.0841e-06
6.40991e-06
-3.39914e-06
6.20701e-06
-3.67172e-06
5.89348e-06
-3.9035e-06
5.49115e-06
-4.09771e-06
5.01839e-06
-4.25847e-06
4.49025e-06
-4.39021e-06
3.91879e-06
-4.49726e-06
3.31344e-06
-4.5835e-06
2.68145e-06
-4.65214e-06
2.02829e-06
-4.70555e-06
1.35812e-06
-4.7451e-06
6.74182e-07
-4.7711e-06
-2.08009e-08
-4.78269e-06
-7.24199e-07
-4.77783e-06
-1.43305e-06
-4.75324e-06
-2.1436e-06
-4.70451e-06
-2.85079e-06
-4.62613e-06
-3.54775e-06
-4.5118e-06
-4.22512e-06
-4.35473e-06
-4.87053e-06
-4.14825e-06
-5.4679e-06
-3.88657e-06
-5.99698e-06
-3.56585e-06
-6.43296e-06
-3.18552e-06
-6.74649e-06
-2.74971e-06
-6.90422e-06
-2.26886e-06
-6.87e-06
-1.76102e-06
-6.60714e-06
-1.25268e-06
-6.08147e-06
-7.78689e-07
-5.26543e-06
-3.80965e-07
-4.1423e-06
-1.05843e-07
-2.71029e-06
-9.87346e-07
-9.65167e-08
1.00854e-06
-3.44975e-07
2.73705e-06
-7.00095e-07
4.14847e-06
-1.11822e-06
5.23875e-06
-1.56154e-06
6.02338e-06
-2.00015e-06
6.53002e-06
-2.41253e-06
6.79311e-06
-2.78494e-06
6.84951e-06
-3.11023e-06
6.7352e-06
-3.38636e-06
6.48314e-06
-3.61502e-06
6.12214e-06
-3.80032e-06
5.67645e-06
-3.94777e-06
5.16585e-06
-4.06353e-06
4.60601e-06
-4.15374e-06
4.009e-06
-4.22415e-06
3.38385e-06
-4.2798e-06
2.7371e-06
-4.32483e-06
2.07332e-06
-4.36233e-06
1.39562e-06
-4.39421e-06
7.06063e-07
-4.42114e-06
6.13007e-09
-4.44246e-06
-7.02882e-07
-4.4561e-06
-1.41941e-06
-4.45856e-06
-2.14114e-06
-4.44488e-06
-2.86448e-06
-4.40867e-06
-3.58395e-06
-4.3423e-06
-4.29149e-06
-4.23717e-06
-4.97567e-06
-4.08421e-06
-5.62086e-06
-3.87474e-06
-6.20645e-06
-3.60158e-06
-6.70612e-06
-3.26057e-06
-7.08751e-06
-2.85246e-06
-7.31232e-06
-2.38505e-06
-7.33742e-06
-1.87517e-06
-7.11702e-06
-1.35029e-06
-6.60636e-06
-8.48947e-07
-5.76677e-06
-4.19674e-07
-4.57157e-06
-1.17799e-07
-3.01217e-06
-1.10515e-06
-1.07567e-07
1.11611e-06
-3.80234e-07
3.00972e-06
-7.62556e-07
4.5308e-06
-1.20205e-06
5.67825e-06
-1.6549e-06
6.47623e-06
-2.08821e-06
6.96333e-06
-2.48005e-06
7.18496e-06
-2.8182e-06
7.18766e-06
-3.09813e-06
7.01513e-06
-3.32096e-06
6.70597e-06
-3.49159e-06
6.29277e-06
-3.61712e-06
5.80198e-06
-3.70571e-06
5.25443e-06
-3.76568e-06
4.66598e-06
-3.80499e-06
4.04831e-06
-3.8308e-06
3.40966e-06
-3.84928e-06
2.75558e-06
-3.86544e-06
2.08948e-06
-3.88303e-06
1.41322e-06
-3.90451e-06
7.27541e-07
-3.93092e-06
3.254e-08
-3.96185e-06
-6.71949e-07
-3.99535e-06
-1.38591e-06
-4.02783e-06
-2.10866e-06
-4.05396e-06
-2.83834e-06
-4.06668e-06
-3.57123e-06
-4.05719e-06
-4.30098e-06
-4.01515e-06
-5.01771e-06
-3.92909e-06
-5.70692e-06
-3.78714e-06
-6.3484e-06
-3.57822e-06
-6.91504e-06
-3.29374e-06
-7.37199e-06
-2.92986e-06
-7.67619e-06
-2.49031e-06
-7.77697e-06
-1.98931e-06
-7.61802e-06
-1.45425e-06
-7.14142e-06
-9.27188e-07
-6.29383e-06
-4.64224e-07
-5.03454e-06
-1.31922e-07
-3.34447e-06
-1.23707e-06
-1.21532e-07
1.23764e-06
-4.23564e-07
3.31175e-06
-8.36732e-07
4.94396e-06
-1.29716e-06
6.13868e-06
-1.75402e-06
6.93309e-06
-2.17173e-06
7.38104e-06
-2.52907e-06
7.5423e-06
-2.81668e-06
7.47527e-06
-3.03401e-06
7.23246e-06
-3.18644e-06
6.8584e-06
-3.28288e-06
6.3892e-06
-3.33393e-06
5.85303e-06
-3.35062e-06
5.27112e-06
-3.34357e-06
4.65893e-06
-3.32246e-06
4.0272e-06
-3.29578e-06
3.38298e-06
-3.27065e-06
2.73045e-06
-3.25281e-06
2.07164e-06
-3.2466e-06
1.407e-06
-3.25489e-06
7.35832e-07
-3.27912e-06
5.67684e-08
-3.31918e-06
-6.3188e-07
-3.37337e-06
-1.33172e-06
-3.43819e-06
-2.04384e-06
-3.50824e-06
-2.76829e-06
-3.57607e-06
-3.5034e-06
-3.63203e-06
-4.24502e-06
-3.66433e-06
-4.98541e-06
-3.65921e-06
-5.71204e-06
-3.60157e-06
-6.40604e-06
-3.47601e-06
-7.0406e-06
-3.26863e-06
-7.57937e-06
-2.96964e-06
-7.97518e-06
-2.57687e-06
-8.16974e-06
-2.09993e-06
-8.09497e-06
-1.56439e-06
-7.67695e-06
-1.01502e-06
-6.8432e-06
-5.16331e-07
-5.53322e-06
-1.48977e-07
-3.71182e-06
-1.38604e-06
-1.39672e-07
1.37732e-06
-4.77936e-07
3.65002e-06
-9.25993e-07
5.39202e-06
-1.40528e-06
6.61797e-06
-1.85719e-06
7.385e-06
-2.24448e-06
7.76833e-06
-2.5485e-06
7.84631e-06
-2.76479e-06
7.69156e-06
-2.89853e-06
7.3662e-06
-2.96065e-06
6.92053e-06
-2.96489e-06
6.39344e-06
-2.92575e-06
5.81389e-06
-2.85723e-06
5.20261e-06
-2.77211e-06
4.57381e-06
-2.68159e-06
3.93668e-06
-2.59518e-06
3.29656e-06
-2.52069e-06
2.65596e-06
-2.46434e-06
2.0153e-06
-2.43081e-06
1.37347e-06
-2.42332e-06
7.2834e-07
-2.44361e-06
7.70638e-08
-2.49195e-06
-5.83547e-07
-2.56696e-06
-1.25671e-06
-2.66553e-06
-1.94528e-06
-2.78249e-06
-2.65132e-06
-2.91043e-06
-3.37547e-06
-3.03935e-06
-4.11609e-06
-3.15651e-06
-4.86826e-06
-3.2463e-06
-5.62224e-06
-3.29061e-06
-6.36173e-06
-3.26956e-06
-7.06165e-06
-3.16326e-06
-7.68568e-06
-2.95452e-06
-8.18392e-06
-2.63309e-06
-8.49116e-06
-2.20117e-06
-8.5269e-06
-1.67972e-06
-8.1984e-06
-1.11437e-06
-7.40855e-06
-5.78434e-07
-6.06916e-06
-1.7013e-07
-4.12012e-06
-1.55617e-06
-1.63929e-07
1.54124e-06
-5.47499e-07
4.03359e-06
-1.03432e-06
5.87884e-06
-1.52716e-06
7.11081e-06
-1.95962e-06
7.81746e-06
-2.29508e-06
8.10378e-06
-2.52054e-06
8.07177e-06
-2.63932e-06
7.81033e-06
-2.66448e-06
7.39136e-06
-2.61386e-06
6.86991e-06
-2.50669e-06
6.28626e-06
-2.36151e-06
5.66871e-06
-2.1951e-06
5.0362e-06
-2.02203e-06
4.40074e-06
-1.85453e-06
3.76918e-06