1.45 	0 	0 	-0.294026
2.35 	0 	0 	-0.129075
