# Probe 0 (1 0 0)
# Probe 1 (7 0 0)
#       Probe             0             1
#        Time
         0.01             (0.744836 -0.0228704 1.14314e-18)             (0.998324 -7.81718e-05 2.15788e-21)
         0.02             (0.740727 -0.0237738 9.76482e-21)             (0.998314 -6.09412e-05 1.15555e-22)
         0.03             (0.72868 -0.0246759 6.75451e-21)             (0.998232 -6.13489e-05 1.07468e-22)
         0.04             (0.717845 -0.0254911 4.14026e-21)             (0.998176 -6.0674e-05 9.76682e-23)
         0.05             (0.707821 -0.0262574 2.47894e-21)             (0.998125 -5.99306e-05 7.79497e-23)
         0.06             (0.698412 -0.0269872 1.49687e-21)             (0.99808 -5.92468e-05 6.57627e-23)
         0.07             (0.689466 -0.0276942 9.19252e-22)             (0.998039 -5.88742e-05 5.58441e-23)
         0.08             (0.680877 -0.0283856 5.66252e-22)             (0.998002 -5.86804e-05 4.80847e-23)
         0.09             (0.672557 -0.0290665 3.54091e-22)             (0.997967 -5.85957e-05 4.18968e-23)
          0.1             (0.664442 -0.0297397 2.16096e-22)             (0.997934 -5.86068e-05 3.69527e-23)
         0.11             (0.656484 -0.0304062 1.185e-22)             (0.997903 -5.87034e-05 3.29478e-23)
         0.12             (0.648643 -0.0310663 4.26362e-23)             (0.997872 -5.88762e-05 2.967e-23)
         0.13             (0.640891 -0.0317193 -2.12204e-23)             (0.997843 -5.91134e-05 2.696e-23)
         0.14             (0.633203 -0.0323642 -7.75848e-23)             (0.997815 -5.94064e-05 2.46955e-23)
         0.15             (0.625562 -0.0329995 -1.27983e-22)             (0.997787 -5.97456e-05 2.27841e-23)
         0.16             (0.617955 -0.0336236 -1.72304e-22)             (0.99776 -6.01294e-05 2.11533e-23)
         0.17             (0.610371 -0.0342345 -2.09675e-22)             (0.997733 -6.05426e-05 1.97475e-23)
         0.18             (0.602805 -0.0348305 -2.3892e-22)             (0.997707 -6.09876e-05 1.85233e-23)
         0.19             (0.59525 -0.0354098 -2.58816e-22)             (0.997681 -6.14595e-05 1.74463e-23)
          0.2             (0.587706 -0.0359704 -2.67753e-22)             (0.997655 -6.192e-05 1.64908e-23)
         0.21             (0.580171 -0.036511 -2.65908e-22)             (0.997629 -6.24062e-05 1.56349e-23)
         0.22             (0.572647 -0.0370299 -2.51981e-22)             (0.997604 -6.29106e-05 1.486e-23)
         0.23             (0.565135 -0.037526 -2.25407e-22)             (0.997579 -6.34282e-05 1.41537e-23)
         0.24             (0.557639 -0.037998 -1.8588e-22)             (0.997554 -6.39585e-05 1.3505e-23)
         0.25             (0.550161 -0.0384451 -1.3327e-22)             (0.997529 -6.44982e-05 1.29053e-23)
         0.26             (0.542707 -0.0388665 -6.75977e-23)             (0.997504 -6.50487e-05 1.23473e-23)
         0.27             (0.535281 -0.039262 1.11574e-23)             (0.99748 -6.5631e-05 1.18359e-23)
         0.28             (0.527888 -0.0396307 1.02252e-22)             (0.997455 -6.6222e-05 1.13459e-23)
         0.29             (0.520532 -0.0399726 2.05522e-22)             (0.997431 -6.68178e-05 1.08839e-23)
          0.3             (0.513219 -0.0402874 3.20582e-22)             (0.997407 -6.74181e-05 1.0446e-23)
         0.31             (0.505953 -0.0405753 4.4693e-22)             (0.997382 -6.8022e-05 1.00305e-23)
         0.32             (0.49874 -0.0408366 5.84e-22)             (0.997358 -6.86303e-05 9.6354e-24)
         0.33             (0.491584 -0.0410716 7.31199e-22)             (0.997334 -6.92428e-05 9.25626e-24)
         0.34             (0.48449 -0.0412807 8.87878e-22)             (0.99731 -6.98542e-05 8.89599e-24)
         0.35             (0.477461 -0.0414644 1.05342e-21)             (0.997286 -7.04649e-05 8.55058e-24)
         0.36             (0.470503 -0.0416235 1.22718e-21)             (0.997262 -7.10773e-05 8.21961e-24)
         0.37             (0.463618 -0.0417583 1.40902e-21)             (0.997238 -7.1671e-05 7.89207e-24)
         0.38             (0.456811 -0.0418697 1.5974e-21)             (0.997214 -7.22695e-05 7.58793e-24)
         0.39             (0.450084 -0.0419588 1.79168e-21)             (0.99719 -7.28872e-05 7.30004e-24)
          0.4             (0.443439 -0.0420259 1.99263e-21)             (0.997167 -7.34865e-05 7.01055e-24)
         0.41             (0.436881 -0.0420721 2.19834e-21)             (0.997143 -7.40974e-05 6.74142e-24)
         0.42             (0.43041 -0.0420981 2.40865e-21)             (0.997119 -7.47052e-05 6.47961e-24)
         0.43             (0.42403 -0.042105 2.62249e-21)             (0.997095 -7.53304e-05 6.23353e-24)
         0.44             (0.41774 -0.0420935 2.84046e-21)             (0.997071 -7.59578e-05 5.99062e-24)
         0.45             (0.411544 -0.0420644 3.06153e-21)             (0.997047 -7.65872e-05 5.75779e-24)
         0.46             (0.405442 -0.0420186 3.28481e-21)             (0.997023 -7.72134e-05 5.53176e-24)
         0.47             (0.399434 -0.0419567 3.50939e-21)             (0.997 -7.78428e-05 5.29667e-24)
         0.48             (0.393522 -0.0418798 3.73736e-21)             (0.996976 -7.84806e-05 5.07911e-24)
         0.49             (0.387706 -0.0417886 3.96685e-21)             (0.996952 -7.91206e-05 4.88213e-24)
          0.5             (0.381985 -0.0416839 4.19726e-21)             (0.996928 -7.97632e-05 4.6927e-24)
         0.51             (0.376361 -0.0415665 4.42832e-21)             (0.996904 -8.04089e-05 4.51018e-24)
         0.52             (0.370833 -0.0414371 4.65972e-21)             (0.99688 -8.10576e-05 4.3342e-24)
         0.53             (0.3654 -0.0412964 4.89116e-21)             (0.996856 -8.17095e-05 4.16438e-24)
         0.54             (0.360062 -0.0411451 5.12237e-21)             (0.996831 -8.23648e-05 4.00039e-24)
         0.55             (0.354818 -0.0409839 5.35311e-21)             (0.996807 -8.30236e-05 3.84192e-24)
         0.56             (0.349668 -0.0408133 5.58314e-21)             (0.996783 -8.3686e-05 3.68867e-24)
         0.57             (0.344611 -0.0406341 5.81225e-21)             (0.996759 -8.43521e-05 3.54037e-24)
         0.58             (0.339645 -0.0404468 6.04023e-21)             (0.996734 -8.5022e-05 3.39676e-24)
         0.59             (0.334771 -0.0402519 6.26691e-21)             (0.99671 -8.56958e-05 3.25759e-24)
          0.6             (0.329985 -0.0400501 6.49212e-21)             (0.996685 -8.63735e-05 3.12262e-24)
         0.61             (0.325288 -0.0398417 6.71572e-21)             (0.996661 -8.70553e-05 2.99164e-24)
         0.62             (0.320677 -0.0396274 6.93756e-21)             (0.996636 -8.77413e-05 2.86442e-24)
         0.63             (0.316152 -0.0394075 7.15752e-21)             (0.996611 -8.84314e-05 2.74077e-24)
         0.64             (0.311711 -0.0391825 7.37549e-21)             (0.996586 -8.91259e-05 2.62048e-24)
         0.65             (0.307353 -0.0389529 7.59137e-21)             (0.996561 -8.98246e-05 2.50337e-24)
         0.66             (0.303076 -0.0387189 7.80507e-21)             (0.996536 -9.05278e-05 2.38926e-24)
         0.67             (0.298879 -0.0384811 8.01652e-21)             (0.996511 -9.12354e-05 2.27797e-24)
         0.68             (0.29476 -0.0382397 8.22563e-21)             (0.996486 -9.19476e-05 2.16934e-24)
         0.69             (0.290717 -0.0379951 8.43236e-21)             (0.996461 -9.26644e-05 2.06322e-24)
          0.7             (0.286757 -0.0377479 8.61112e-21)             (0.996435 -9.33781e-05 1.93098e-24)
         0.71             (0.282869 -0.0374981 8.81499e-21)             (0.99641 -9.41073e-05 1.9616e-24)
         0.72             (0.279053 -0.037246 9.01307e-21)             (0.996384 -9.4839e-05 1.87824e-24)
         0.73             (0.275308 -0.0369919 9.2096e-21)             (0.996359 -9.55764e-05 1.77775e-24)
         0.74             (0.27163 -0.0367361 9.40354e-21)             (0.996333 -9.63196e-05 1.67936e-24)
         0.75             (0.268019 -0.0364788 9.59488e-21)             (0.996307 -9.70662e-05 1.58214e-24)
         0.76             (0.264474 -0.0362203 9.7837e-21)             (0.996281 -9.78147e-05 1.48485e-24)
         0.77             (0.260992 -0.0359606 9.96979e-21)             (0.996255 -9.85685e-05 1.38987e-24)
         0.78             (0.257573 -0.0357002 1.01533e-20)             (0.996229 -9.93271e-05 1.29764e-24)
         0.79             (0.254214 -0.035439 1.03341e-20)             (0.996203 -0.000100091 1.20679e-24)
          0.8             (0.250915 -0.0351773 1.05123e-20)             (0.996176 -0.00010086 1.11723e-24)
         0.81             (0.247674 -0.0349152 1.06879e-20)             (0.996149 -0.000101634 1.02885e-24)
         0.82             (0.244489 -0.034653 1.08608e-20)             (0.996123 -0.000102413 9.41564e-25)
         0.83             (0.24136 -0.0343907 1.10316e-20)             (0.996096 -0.000103201 8.43076e-25)
         0.84             (0.238284 -0.0341285 1.11993e-20)             (0.996069 -0.000103993 7.56715e-25)
         0.85             (0.23526 -0.0338665 1.13645e-20)             (0.996041 -0.00010479 6.72554e-25)
         0.86             (0.232287 -0.0336049 1.15273e-20)             (0.996014 -0.000105589 5.7002e-25)
         0.87             (0.229365 -0.0333436 1.16874e-20)             (0.995986 -0.000106393 4.86952e-25)
         0.88             (0.226491 -0.0330829 1.18449e-20)             (0.995959 -0.000107204 4.05452e-25)
         0.89             (0.223664 -0.0328229 1.2e-20)             (0.995931 -0.000108019 3.24854e-25)
          0.9             (0.220883 -0.0325636 1.21526e-20)             (0.995903 -0.00010884 2.44182e-25)
         0.91             (0.218147 -0.0323051 1.23028e-20)             (0.995875 -0.000109666 1.64228e-25)
         0.92             (0.215455 -0.0320476 1.24506e-20)             (0.995846 -0.000110498 8.46647e-26)
         0.93             (0.212805 -0.031791 1.25959e-20)             (0.995818 -0.000111336 5.42624e-27)
         0.94             (0.210197 -0.0315354 1.27389e-20)             (0.995789 -0.000112179 -7.35456e-26)
         0.95             (0.207629 -0.031281 1.28796e-20)             (0.99576 -0.000113028 -1.52295e-25)
         0.96             (0.205101 -0.0310277 1.30179e-20)             (0.995731 -0.000113883 -2.30868e-25)
         0.97             (0.202611 -0.0307757 1.3154e-20)             (0.995702 -0.000114743 -3.0931e-25)
         0.98             (0.200158 -0.0305249 1.32878e-20)             (0.995672 -0.00011561 -3.87663e-25)
         0.99             (0.197742 -0.0302755 1.34194e-20)             (0.995643 -0.000116482 -4.65966e-25)
            1             (0.195362 -0.0300274 1.35488e-20)             (0.995613 -0.00011736 -5.44259e-25)
         1.01             (0.193016 -0.0297807 1.3676e-20)             (0.995583 -0.000118244 -6.22576e-25)
         1.02             (0.190704 -0.0295355 1.38012e-20)             (0.995553 -0.000119134 -7.00953e-25)
         1.03             (0.188424 -0.0292917 1.39242e-20)             (0.995523 -0.00012003 -7.79422e-25)
         1.04             (0.186177 -0.0290494 1.40449e-20)             (0.995492 -0.000120931 -8.74995e-25)
         1.05             (0.183961 -0.0288086 1.41644e-20)             (0.995462 -0.000121841 -9.18843e-25)
         1.06             (0.181775 -0.0285694 1.4281e-20)             (0.995431 -0.000122755 -1.01915e-24)
         1.07             (0.179619 -0.0283317 1.4396e-20)             (0.9954 -0.000123676 -1.09198e-24)
         1.08             (0.177492 -0.0280957 1.45089e-20)             (0.995369 -0.000124603 -1.18189e-24)
         1.09             (0.175393 -0.0278612 1.46202e-20)             (0.995337 -0.000125537 -1.24535e-24)
          1.1             (0.173321 -0.0276284 1.47293e-20)             (0.995306 -0.000126478 -1.33574e-24)
         1.11             (0.171277 -0.0273972 1.48366e-20)             (0.995274 -0.000127422 -1.42264e-24)
         1.12             (0.169259 -0.0271676 1.49425e-20)             (0.995242 -0.000128375 -1.4828e-24)
         1.13             (0.167266 -0.0269397 1.50461e-20)             (0.995209 -0.000129336 -1.57277e-24)
         1.14             (0.165298 -0.0267135 1.5148e-20)             (0.995177 -0.000130301 -1.6616e-24)
         1.15             (0.163355 -0.0264889 1.52482e-20)             (0.995144 -0.000131273 -1.74348e-24)
         1.16             (0.161435 -0.026266 1.53469e-20)             (0.995112 -0.000132251 -1.82266e-24)
         1.17             (0.159539 -0.0260448 1.54438e-20)             (0.995079 -0.000133236 -1.90076e-24)
         1.18             (0.157665 -0.0258253 1.55391e-20)             (0.995045 -0.000134232 -1.98123e-24)
         1.19             (0.155813 -0.0256074 1.56327e-20)             (0.995012 -0.00013523 -2.06446e-24)
          1.2             (0.153984 -0.0253913 1.57247e-20)             (0.994978 -0.000136237 -2.14934e-24)
         1.21             (0.152175 -0.0251768 1.58152e-20)             (0.994944 -0.000137251 -2.23461e-24)
         1.22             (0.150387 -0.024964 1.59041e-20)             (0.99491 -0.000138272 -2.32012e-24)
         1.23             (0.14862 -0.0247529 1.59915e-20)             (0.994876 -0.000139299 -2.40563e-24)
         1.24             (0.146872 -0.0245435 1.60774e-20)             (0.994841 -0.000140337 -2.49144e-24)
         1.25             (0.145144 -0.0243357 1.61619e-20)             (0.994807 -0.000141377 -2.57727e-24)
         1.26             (0.143435 -0.0241297 1.62449e-20)             (0.994772 -0.000142427 -2.66375e-24)
         1.27             (0.141744 -0.0239253 1.63265e-20)             (0.994737 -0.000143485 -2.75088e-24)
         1.28             (0.140072 -0.0237225 1.64059e-20)             (0.994701 -0.000144552 -2.85143e-24)
         1.29             (0.138418 -0.0235215 1.64848e-20)             (0.994666 -0.000145628 -2.94952e-24)
          1.3             (0.136781 -0.023322 1.65623e-20)             (0.99463 -0.000146709 -3.03854e-24)
         1.31             (0.135161 -0.0231242 1.66385e-20)             (0.994594 -0.000147795 -3.12832e-24)
         1.32             (0.133559 -0.0229281 1.67134e-20)             (0.994557 -0.000148894 -3.23059e-24)
         1.33             (0.131973 -0.0227336 1.67871e-20)             (0.994521 -0.00015 -3.30778e-24)
         1.34             (0.130403 -0.0225407 1.68594e-20)             (0.994484 -0.000151112 -3.41275e-24)
         1.35             (0.128849 -0.0223494 1.69305e-20)             (0.994447 -0.000152234 -3.50281e-24)
         1.36             (0.127311 -0.0221597 1.70004e-20)             (0.99441 -0.000153362 -3.59583e-24)
         1.37             (0.125788 -0.0219717 1.70691e-20)             (0.994372 -0.000154499 -3.68775e-24)
         1.38             (0.12428 -0.0217852 1.71366e-20)             (0.994335 -0.000155643 -3.78138e-24)
         1.39             (0.122788 -0.0216003 1.7203e-20)             (0.994297 -0.000156793 -3.8663e-24)
          1.4             (0.12131 -0.0214169 1.72682e-20)             (0.994259 -0.000157952 -3.97007e-24)
         1.41             (0.119846 -0.0212351 1.73322e-20)             (0.99422 -0.000159122 -4.0557e-24)
         1.42             (0.118397 -0.0210549 1.73952e-20)             (0.994181 -0.000160299 -4.16037e-24)
         1.43             (0.116961 -0.0208762 1.74571e-20)             (0.994143 -0.000161488 -4.24876e-24)
         1.44             (0.115539 -0.020699 1.7518e-20)             (0.994103 -0.000162683 -4.34481e-24)
         1.45             (0.114131 -0.0205234 1.75777e-20)             (0.994064 -0.000163888 -4.44225e-24)
         1.46             (0.112737 -0.0203493 1.76365e-20)             (0.994024 -0.000165101 -4.5408e-24)
         1.47             (0.111355 -0.0201766 1.76942e-20)             (0.993984 -0.000166323 -4.63919e-24)
         1.48             (0.109987 -0.0200055 1.77509e-20)             (0.993944 -0.000167556 -4.73881e-24)
         1.49             (0.108631 -0.0198359 1.78066e-20)             (0.993904 -0.000168796 -4.83843e-24)
          1.5             (0.107288 -0.0196677 1.78614e-20)             (0.993863 -0.000170046 -4.93907e-24)
         1.51             (0.105957 -0.0195009 1.79151e-20)             (0.993822 -0.000171304 -5.04032e-24)
         1.52             (0.104639 -0.0193357 1.7968e-20)             (0.993781 -0.000172572 -5.14218e-24)
         1.53             (0.103337 -0.019172 1.80176e-20)             (0.99374 -0.000173845 -5.25867e-24)
         1.54             (0.102046 -0.0190098 1.80685e-20)             (0.993698 -0.000175132 -5.36567e-24)
         1.55             (0.100768 -0.018849 1.81184e-20)             (0.993656 -0.000176427 -5.4681e-24)
         1.56             (0.0995009 -0.0186896 1.81675e-20)             (0.993614 -0.000177731 -5.57174e-24)
         1.57             (0.0982456 -0.0185317 1.82157e-20)             (0.993571 -0.000179045 -5.67599e-24)
         1.58             (0.0970017 -0.0183751 1.82631e-20)             (0.993528 -0.000180369 -5.78091e-24)
         1.59             (0.095769 -0.0182199 1.83096e-20)             (0.993485 -0.000181703 -5.8865e-24)
          1.6             (0.0945476 -0.0180661 1.83553e-20)             (0.993442 -0.000183047 -5.99276e-24)
         1.61             (0.0933372 -0.0179137 1.84002e-20)             (0.993398 -0.000184401 -6.09969e-24)
         1.62             (0.0921378 -0.0177626 1.84443e-20)             (0.993354 -0.000185765 -6.2073e-24)
         1.63             (0.0909492 -0.0176128 1.84875e-20)             (0.99331 -0.000187139 -6.31556e-24)
         1.64             (0.0897714 -0.0174643 1.853e-20)             (0.993266 -0.000188524 -6.4245e-24)
         1.65             (0.0886042 -0.0173172 1.85717e-20)             (0.993221 -0.000189919 -6.5341e-24)
         1.66             (0.0874476 -0.0171714 1.86127e-20)             (0.993176 -0.000191324 -6.64436e-24)
         1.67             (0.0863015 -0.0170268 1.86529e-20)             (0.99313 -0.00019274 -6.75528e-24)
         1.68             (0.0851658 -0.0168836 1.86924e-20)             (0.993085 -0.000194167 -6.86687e-24)
         1.69             (0.0840404 -0.0167416 1.87311e-20)             (0.993039 -0.000195605 -6.97914e-24)
          1.7             (0.0829252 -0.0166009 1.87691e-20)             (0.992993 -0.000197054 -7.09209e-24)
         1.71             (0.0818202 -0.0164615 1.88064e-20)             (0.992946 -0.000198514 -7.20568e-24)
         1.72             (0.0807253 -0.0163233 1.8843e-20)             (0.992899 -0.000199985 -7.31991e-24)
         1.73             (0.0796403 -0.0161863 1.88789e-20)             (0.992852 -0.000201467 -7.4348e-24)
         1.74             (0.0785653 -0.0160506 1.89142e-20)             (0.992805 -0.000202961 -7.55035e-24)
         1.75             (0.0775001 -0.0159161 1.89487e-20)             (0.992757 -0.000204465 -7.66656e-24)
         1.76             (0.0764447 -0.0157828 1.89827e-20)             (0.992709 -0.000205981 -7.78878e-24)
         1.77             (0.075399 -0.0156507 1.9016e-20)             (0.99266 -0.000207508 -7.90636e-24)
         1.78             (0.074363 -0.0155198 1.90486e-20)             (0.992612 -0.000209046 -8.0246e-24)
         1.79             (0.0733365 -0.0153901 1.90806e-20)             (0.992563 -0.000210596 -8.14348e-24)
          1.8             (0.0723196 -0.0152616 1.91119e-20)             (0.992513 -0.000212159 -8.26302e-24)
         1.81             (0.0713121 -0.0151343 1.91427e-20)             (0.992464 -0.000213733 -8.38321e-24)
         1.82             (0.070314 -0.0150081 1.91728e-20)             (0.992414 -0.000215319 -8.50405e-24)
         1.83             (0.0693252 -0.014883 1.92023e-20)             (0.992363 -0.000216917 -8.62553e-24)
         1.84             (0.0683457 -0.0147591 1.92312e-20)             (0.992313 -0.000218528 -8.74767e-24)
         1.85             (0.0673754 -0.0146364 1.92596e-20)             (0.992262 -0.000220151 -8.87045e-24)
         1.86             (0.0664142 -0.0145148 1.92874e-20)             (0.99221 -0.000221786 -8.99389e-24)
         1.87             (0.0654621 -0.0143942 1.93146e-20)             (0.992159 -0.000223433 -9.11828e-24)
         1.88             (0.064519 -0.0142749 1.93413e-20)             (0.992107 -0.000225093 -9.24273e-24)
         1.89             (0.0635849 -0.0141566 1.93674e-20)             (0.992054 -0.000226767 -9.3681e-24)
          1.9             (0.0626597 -0.0140394 1.93929e-20)             (0.992002 -0.000228453 -9.49411e-24)
         1.91             (0.0617434 -0.0139233 1.94179e-20)             (0.991949 -0.000230152 -9.62078e-24)
         1.92             (0.0608358 -0.0138082 1.94426e-20)             (0.991895 -0.000231866 -9.75362e-24)
         1.93             (0.059937 -0.0136943 1.94666e-20)             (0.991842 -0.000233592 -9.88155e-24)
         1.94             (0.0590469 -0.0135814 1.94901e-20)             (0.991788 -0.000235331 -1.00102e-23)
         1.95             (0.0581653 -0.0134696 1.9513e-20)             (0.991733 -0.000237083 -1.01394e-23)
         1.96             (0.0572924 -0.0133588 1.95355e-20)             (0.991678 -0.000238849 -1.02693e-23)
         1.97             (0.0564279 -0.0132491 1.95575e-20)             (0.991623 -0.000240628 -1.03999e-23)
         1.98             (0.0555719 -0.0131404 1.9579e-20)             (0.991568 -0.000242421 -1.05311e-23)
         1.99             (0.0547242 -0.0130327 1.96e-20)             (0.991512 -0.000244228 -1.06629e-23)
            2             (0.0538849 -0.012926 1.96205e-20)             (0.991455 -0.000246048 -1.07953e-23)
         2.01             (0.0530539 -0.0128203 1.96406e-20)             (0.991399 -0.000247882 -1.09284e-23)
         2.02             (0.0522311 -0.0127157 1.96602e-20)             (0.991342 -0.00024973 -1.10621e-23)
         2.03             (0.0514164 -0.012612 1.96794e-20)             (0.991284 -0.000251592 -1.11965e-23)
         2.04             (0.0506099 -0.0125093 1.96981e-20)             (0.991227 -0.000253469 -1.13315e-23)
         2.05             (0.0498113 -0.0124076 1.97164e-20)             (0.991168 -0.000255359 -1.14672e-23)
         2.06             (0.0490208 -0.0123069 1.97342e-20)             (0.99111 -0.000257265 -1.16035e-23)
         2.07             (0.0482381 -0.0122071 1.97517e-20)             (0.991051 -0.000259184 -1.17404e-23)
         2.08             (0.0474633 -0.0121083 1.97687e-20)             (0.990991 -0.000261118 -1.1878e-23)
         2.09             (0.0466964 -0.0120105 1.97853e-20)             (0.990932 -0.000263067 -1.20162e-23)
          2.1             (0.0459371 -0.0119135 1.98015e-20)             (0.990871 -0.000265031 -1.2155e-23)
         2.11             (0.0451855 -0.0118176 1.98174e-20)             (0.990811 -0.00026701 -1.22945e-23)
         2.12             (0.0444416 -0.0117225 1.98328e-20)             (0.99075 -0.000269004 -1.24346e-23)
         2.13             (0.0437052 -0.0116283 1.98478e-20)             (0.990688 -0.000271013 -1.25754e-23)
         2.14             (0.0429762 -0.0115351 1.98625e-20)             (0.990627 -0.000273037 -1.27168e-23)
         2.15             (0.0422547 -0.0114428 1.98768e-20)             (0.990564 -0.000275076 -1.28587e-23)
         2.16             (0.0415406 -0.0113513 1.98907e-20)             (0.990502 -0.000277131 -1.30014e-23)
         2.17             (0.0408338 -0.0112608 1.99043e-20)             (0.990439 -0.000279201 -1.31447e-23)
         2.18             (0.0401342 -0.0111711 1.99175e-20)             (0.990375 -0.000281288 -1.32886e-23)
         2.19             (0.0394418 -0.0110823 1.99304e-20)             (0.990311 -0.00028339 -1.34332e-23)
          2.2             (0.0387565 -0.0109943 1.99429e-20)             (0.990247 -0.000285508 -1.35784e-23)
         2.21             (0.0380782 -0.0109072 1.99551e-20)             (0.990182 -0.000287642 -1.37237e-23)
         2.22             (0.037407 -0.010821 1.99669e-20)             (0.990117 -0.000289792 -1.38705e-23)
         2.23             (0.0367426 -0.0107356 1.99785e-20)             (0.990051 -0.000291958 -1.40176e-23)
         2.24             (0.0360851 -0.010651 1.99897e-20)             (0.989985 -0.000294141 -1.41653e-23)
         2.25             (0.0354344 -0.0105673 2.00006e-20)             (0.989918 -0.000296339 -1.43136e-23)
         2.26             (0.0347904 -0.0104844 2.00112e-20)             (0.989851 -0.000298554 -1.44626e-23)
         2.27             (0.0341531 -0.0104023 2.00215e-20)             (0.989783 -0.000300786 -1.46122e-23)
         2.28             (0.0335224 -0.010321 2.00315e-20)             (0.989715 -0.000303035 -1.47624e-23)
         2.29             (0.0328982 -0.0102405 2.00413e-20)             (0.989647 -0.0003053 -1.49132e-23)
          2.3             (0.0322805 -0.0101608 2.00507e-20)             (0.989578 -0.000307582 -1.50646e-23)
         2.31             (0.0316692 -0.0100818 2.00599e-20)             (0.989509 -0.000309881 -1.52167e-23)
         2.32             (0.0310642 -0.0100037 2.00688e-20)             (0.989439 -0.000312198 -1.53694e-23)
         2.33             (0.0304654 -0.00992627 2.00774e-20)             (0.989368 -0.000314531 -1.55226e-23)
         2.34             (0.0298729 -0.00984964 2.00857e-20)             (0.989297 -0.000316882 -1.56765e-23)
         2.35             (0.0292865 -0.00977375 2.00938e-20)             (0.989226 -0.000319248 -1.58304e-23)
         2.36             (0.0287062 -0.00969862 2.01017e-20)             (0.989154 -0.000321634 -1.5986e-23)
         2.37             (0.0281319 -0.00962422 2.01093e-20)             (0.989082 -0.000324037 -1.61418e-23)
         2.38             (0.0275636 -0.00955055 2.01167e-20)             (0.989009 -0.000326458 -1.62981e-23)
         2.39             (0.0270011 -0.0094776 2.01238e-20)             (0.988936 -0.000328897 -1.6455e-23)
          2.4             (0.0264444 -0.00940537 2.01307e-20)             (0.988862 -0.000331354 -1.66126e-23)
         2.41             (0.0258935 -0.00933384 2.01374e-20)             (0.988787 -0.000333828 -1.67707e-23)
         2.42             (0.0253483 -0.00926302 2.01439e-20)             (0.988712 -0.000336321 -1.69294e-23)
         2.43             (0.0248087 -0.00919289 2.01501e-20)             (0.988637 -0.000338832 -1.70888e-23)
         2.44             (0.0242747 -0.00912345 2.01562e-20)             (0.988561 -0.000341362 -1.72487e-23)
         2.45             (0.0237461 -0.00905469 2.0162e-20)             (0.988485 -0.00034391 -1.74092e-23)
         2.46             (0.023223 -0.0089866 2.01676e-20)             (0.988408 -0.000346479 -1.75699e-23)
         2.47             (0.0227052 -0.00891918 2.01731e-20)             (0.98833 -0.000349064 -1.77318e-23)
         2.48             (0.0221928 -0.00885241 2.01783e-20)             (0.988252 -0.000351663 -1.78942e-23)
         2.49             (0.0216856 -0.0087863 2.01834e-20)             (0.988173 -0.000354285 -1.80568e-23)
          2.5             (0.0211836 -0.00872083 2.01883e-20)             (0.988094 -0.000356927 -1.82202e-23)
         2.51             (0.0206867 -0.008656 2.0193e-20)             (0.988015 -0.000359587 -1.83842e-23)
         2.52             (0.0201949 -0.0085918 2.01975e-20)             (0.987934 -0.000362266 -1.85487e-23)
         2.53             (0.0197081 -0.00852823 2.02018e-20)             (0.987854 -0.000364965 -1.87138e-23)
         2.54             (0.0192262 -0.00846527 2.0206e-20)             (0.987772 -0.000367683 -1.88795e-23)
         2.55             (0.0187492 -0.00840293 2.02101e-20)             (0.98769 -0.00037042 -1.90457e-23)
         2.56             (0.018277 -0.00834119 2.0214e-20)             (0.987608 -0.000373177 -1.92125e-23)
         2.57             (0.0178096 -0.00828004 2.02177e-20)             (0.987525 -0.000375953 -1.93798e-23)
         2.58             (0.017347 -0.00821949 2.02212e-20)             (0.987441 -0.000378754 -1.95515e-23)
         2.59             (0.0168889 -0.00815952 2.02247e-20)             (0.987357 -0.00038157 -1.97162e-23)
          2.6             (0.0164355 -0.00810013 2.0228e-20)             (0.987272 -0.000384405 -1.98854e-23)
         2.61             (0.0159866 -0.00804131 2.02311e-20)             (0.987186 -0.00038726 -2.00547e-23)
         2.62             (0.0155422 -0.00798306 2.02342e-20)             (0.9871 -0.000390136 -2.02248e-23)
         2.63             (0.0151022 -0.00792536 2.02371e-20)             (0.987014 -0.000393031 -2.03953e-23)
         2.64             (0.0146666 -0.00786822 2.02398e-20)             (0.986926 -0.000395947 -2.05663e-23)
         2.65             (0.0142353 -0.00781163 2.02425e-20)             (0.986838 -0.000398883 -2.07379e-23)
         2.66             (0.0138083 -0.00775557 2.0245e-20)             (0.98675 -0.000401839 -2.091e-23)
         2.67             (0.0133855 -0.00770005 2.02474e-20)             (0.986661 -0.000404816 -2.10826e-23)
         2.68             (0.0129669 -0.00764506 2.02497e-20)             (0.986571 -0.000407813 -2.12557e-23)
         2.69             (0.0125524 -0.00759059 2.02519e-20)             (0.986481 -0.000410831 -2.14293e-23)
          2.7             (0.012142 -0.00753664 2.0254e-20)             (0.98639 -0.00041387 -2.16034e-23)
         2.71             (0.0117356 -0.0074832 2.0256e-20)             (0.986298 -0.000416928 -2.17808e-23)
         2.72             (0.0113332 -0.00743026 2.02579e-20)             (0.986206 -0.00042001 -2.19502e-23)
         2.73             (0.0109347 -0.00737783 2.02595e-20)             (0.986113 -0.000423108 -2.21403e-23)
         2.74             (0.01054 -0.00732588 2.02617e-20)             (0.986019 -0.000426234 -2.22917e-23)
         2.75             (0.0101492 -0.00727443 2.0263e-20)             (0.985925 -0.000429378 -2.24842e-23)