1.45 	0 	0 	-0.302862
2.35 	0 	0 	-0.134544
