/*--------------------------------*- C++ -*----------------------------------*\
  =========                 |
  \\      /  F ield         | OpenFOAM: The Open Source CFD Toolbox
   \\    /   O peration     | Website:  https://openfoam.org
    \\  /    A nd           | Version:  6.0
     \\/     M anipulation  |
\*---------------------------------------------------------------------------*/
FoamFile
{
    version     2.0;
    format      ascii;
    class       volScalarField;
    location    "8.8";
    object      p;
}
// * * * * * * * * * * * * * * * * * * * * * * * * * * * * * * * * * * * * * //

dimensions      [0 2 -2 0 0 0 0];

internalField   nonuniform List<scalar> 
34500
(
1.00578
1.00584
1.00569
1.00537
1.00491
1.00435
1.00375
1.00314
1.00254
1.00198
1.00147
1.00104
1.00066
1.0004
1.00024
1.00579
1.00587
1.00578
1.00554
1.00515
1.00467
1.00412
1.00354
1.00296
1.00238
1.00182
1.00132
1.00086
1.00054
1.00031
1.00579
1.00586
1.00575
1.00548
1.00507
1.00455
1.00397
1.00337
1.00278
1.0022
1.00166
1.00119
1.00077
1.00048
1.00026
1.00579
1.00586
1.00573
1.00544
1.00501
1.00447
1.00388
1.00327
1.00267
1.0021
1.00157
1.00112
1.00073
1.00047
1.00027
1.0058
1.00586
1.00574
1.00547
1.00505
1.00452
1.00394
1.00333
1.00273
1.00216
1.00164
1.00118
1.00077
1.00051
1.0003
1.00581
1.00588
1.00577
1.0055
1.0051
1.00459
1.00402
1.00342
1.00282
1.00224
1.0017
1.00123
1.00081
1.00053
1.00031
1.00582
1.00589
1.00578
1.00552
1.00512
1.00462
1.00405
1.00345
1.00285
1.00227
1.00173
1.00124
1.00082
1.00053
1.0003
1.00583
1.0059
1.00579
1.00553
1.00513
1.00463
1.00406
1.00346
1.00286
1.00227
1.00173
1.00124
1.00081
1.00052
1.0003
1.00584
1.00591
1.0058
1.00554
1.00514
1.00464
1.00407
1.00347
1.00287
1.00228
1.00173
1.00124
1.00081
1.00052
1.00029
1.00585
1.00592
1.00581
1.00555
1.00515
1.00465
1.00408
1.00348
1.00288
1.00229
1.00173
1.00124
1.00081
1.00051
1.00029
1.00587
1.00594
1.00583
1.00557
1.00517
1.00467
1.0041
1.0035
1.00289
1.0023
1.00175
1.00125
1.00082
1.00052
1.00029
1.00588
1.00595
1.00585
1.00559
1.0052
1.0047
1.00413
1.00353
1.00292
1.00232
1.00176
1.00127
1.00083
1.00052
1.00028
1.0059
1.00597
1.00587
1.00562
1.00523
1.00473
1.00416
1.00356
1.00295
1.00235
1.00179
1.00128
1.00084
1.00052
1.00028
1.00592
1.00599
1.00589
1.00565
1.00526
1.00477
1.0042
1.0036
1.00298
1.00238
1.00181
1.0013
1.00085
1.00052
1.00027
1.00593
1.00601
1.00592
1.00568
1.00529
1.0048
1.00424
1.00363
1.00301
1.00241
1.00183
1.00131
1.00086
1.00052
1.00026
1.00596
1.00604
1.00594
1.0057
1.00532
1.00483
1.00427
1.00366
1.00304
1.00243
1.00185
1.00132
1.00086
1.00051
1.00024
1.00598
1.00606
1.00597
1.00573
1.00535
1.00486
1.0043
1.00369
1.00306
1.00245
1.00186
1.00133
1.00086
1.0005
1.00023
1.006
1.00609
1.006
1.00576
1.00538
1.00489
1.00433
1.00371
1.00308
1.00246
1.00187
1.00133
1.00086
1.00049
1.00022
1.00603
1.00611
1.00602
1.00579
1.00541
1.00492
1.00435
1.00374
1.0031
1.00248
1.00188
1.00133
1.00086
1.00048
1.0002
1.00605
1.00614
1.00605
1.00582
1.00544
1.00495
1.00438
1.00376
1.00312
1.00249
1.00189
1.00134
1.00086
1.00048
1.00019
1.00608
1.00617
1.00608
1.00585
1.00547
1.00498
1.00441
1.00379
1.00314
1.00251
1.0019
1.00135
1.00086
1.00047
1.00017
1.00611
1.0062
1.00612
1.00588
1.0055
1.00501
1.00444
1.00382
1.00317
1.00253
1.00191
1.00135
1.00086
1.00046
1.00016
1.00614
1.00623
1.00615
1.00592
1.00554
1.00505
1.00448
1.00385
1.0032
1.00255
1.00193
1.00136
1.00086
1.00045
1.00014
1.00617
1.00627
1.00618
1.00595
1.00558
1.00509
1.00451
1.00388
1.00322
1.00257
1.00194
1.00137
1.00085
1.00044
1.00012
1.0062
1.0063
1.00622
1.00599
1.00562
1.00513
1.00455
1.00391
1.00325
1.00259
1.00195
1.00137
1.00085
1.00043
1.0001
1.00624
1.00634
1.00626
1.00603
1.00566
1.00516
1.00458
1.00394
1.00328
1.00261
1.00196
1.00137
1.00084
1.00041
1.00008
1.00627
1.00638
1.0063
1.00607
1.00569
1.0052
1.00462
1.00397
1.0033
1.00262
1.00197
1.00137
1.00084
1.0004
1.00006
1.00631
1.00641
1.00634
1.00611
1.00573
1.00524
1.00465
1.004
1.00332
1.00264
1.00198
1.00137
1.00083
1.00038
1.00004
1.00635
1.00645
1.00638
1.00615
1.00577
1.00527
1.00468
1.00403
1.00334
1.00265
1.00198
1.00137
1.00082
1.00037
1.00001
1.00639
1.0065
1.00642
1.00619
1.00581
1.00531
1.00472
1.00406
1.00337
1.00267
1.00199
1.00137
1.00081
1.00035
0.99999
1.00643
1.00654
1.00646
1.00624
1.00586
1.00535
1.00475
1.00409
1.00339
1.00269
1.002
1.00137
1.00081
1.00033
0.999966
1.00647
1.00658
1.00651
1.00628
1.0059
1.0054
1.00479
1.00412
1.00342
1.0027
1.00201
1.00137
1.0008
1.00032
0.999941
1.00652
1.00663
1.00656
1.00633
1.00595
1.00544
1.00483
1.00416
1.00344
1.00272
1.00202
1.00137
1.00079
1.0003
0.999915
1.00656
1.00668
1.00661
1.00638
1.006
1.00548
1.00487
1.00419
1.00347
1.00274
1.00203
1.00137
1.00078
1.00028
0.999888
1.00661
1.00673
1.00666
1.00643
1.00604
1.00553
1.00491
1.00422
1.00349
1.00276
1.00203
1.00137
1.00076
1.00026
0.999859
1.00666
1.00678
1.00671
1.00648
1.00609
1.00557
1.00495
1.00426
1.00352
1.00277
1.00204
1.00136
1.00075
1.00024
0.999831
1.00671
1.00683
1.00676
1.00653
1.00614
1.00562
1.00499
1.00429
1.00354
1.00279
1.00205
1.00136
1.00074
1.00021
0.999801
1.00676
1.00688
1.00681
1.00659
1.00619
1.00567
1.00503
1.00433
1.00357
1.0028
1.00205
1.00135
1.00072
1.00019
0.99977
1.00681
1.00694
1.00687
1.00664
1.00625
1.00572
1.00508
1.00436
1.0036
1.00282
1.00206
1.00135
1.00071
1.00017
0.999739
1.00687
1.00699
1.00693
1.0067
1.0063
1.00577
1.00512
1.0044
1.00362
1.00284
1.00206
1.00134
1.00069
1.00014
0.999706
1.00692
1.00705
1.00699
1.00676
1.00636
1.00582
1.00517
1.00443
1.00365
1.00285
1.00207
1.00134
1.00068
1.00012
0.999672
1.00698
1.00711
1.00705
1.00682
1.00641
1.00587
1.00521
1.00447
1.00368
1.00287
1.00207
1.00133
1.00066
1.00009
0.999637
1.00704
1.00717
1.00711
1.00688
1.00647
1.00592
1.00526
1.00451
1.0037
1.00288
1.00208
1.00132
1.00064
1.00006
0.999601
1.0071
1.00724
1.00717
1.00694
1.00653
1.00598
1.00531
1.00455
1.00373
1.0029
1.00208
1.00132
1.00062
1.00003
0.999564
1.00716
1.0073
1.00724
1.007
1.00659
1.00603
1.00535
1.00458
1.00376
1.00292
1.00208
1.00131
1.0006
1
0.999525
1.00723
1.00737
1.0073
1.00707
1.00665
1.00609
1.0054
1.00462
1.00379
1.00293
1.00209
1.0013
1.00058
0.999969
0.999485
1.00729
1.00743
1.00737
1.00713
1.00672
1.00614
1.00545
1.00466
1.00381
1.00295
1.00209
1.00129
1.00056
0.999936
0.999444
1.00736
1.0075
1.00744
1.0072
1.00678
1.0062
1.0055
1.0047
1.00384
1.00296
1.00209
1.00128
1.00053
0.999903
0.999403
1.00743
1.00757
1.00751
1.00727
1.00684
1.00626
1.00555
1.00474
1.00387
1.00297
1.00209
1.00126
1.00051
0.999868
0.999359
1.0075
1.00765
1.00758
1.00734
1.00691
1.00632
1.0056
1.00478
1.0039
1.00299
1.00209
1.00125
1.00048
0.999833
0.999315
1.00757
1.00772
1.00766
1.00741
1.00698
1.00638
1.00565
1.00482
1.00392
1.003
1.00209
1.00124
1.00046
0.999796
0.999269
1.00765
1.0078
1.00773
1.00749
1.00705
1.00644
1.00571
1.00486
1.00395
1.00302
1.00209
1.00123
1.00043
0.999758
0.999222
1.00772
1.00788
1.00781
1.00757
1.00712
1.00651
1.00576
1.00491
1.00398
1.00303
1.00209
1.00121
1.0004
0.999718
0.999173
1.0078
1.00796
1.00789
1.00764
1.00719
1.00658
1.00582
1.00495
1.00401
1.00305
1.00209
1.0012
1.00037
0.999677
0.999123
1.00788
1.00804
1.00797
1.00772
1.00727
1.00664
1.00587
1.00499
1.00404
1.00306
1.00209
1.00118
1.00034
0.999635
0.999071
1.00796
1.00812
1.00806
1.0078
1.00734
1.00671
1.00593
1.00504
1.00407
1.00308
1.00209
1.00116
1.00031
0.999592
0.999018
1.00804
1.00821
1.00814
1.00789
1.00742
1.00678
1.00599
1.00509
1.0041
1.00309
1.00209
1.00114
1.00028
0.999547
0.998963
1.00813
1.0083
1.00823
1.00797
1.0075
1.00685
1.00605
1.00513
1.00414
1.00311
1.00209
1.00113
1.00025
0.999501
0.998907
1.00821
1.00838
1.00832
1.00806
1.00758
1.00692
1.00611
1.00518
1.00417
1.00312
1.00209
1.00111
1.00021
0.999453
0.998849
1.0083
1.00848
1.00841
1.00815
1.00767
1.007
1.00617
1.00523
1.0042
1.00314
1.00208
1.00109
1.00018
0.999404
0.998789
1.00839
1.00857
1.0085
1.00824
1.00775
1.00707
1.00624
1.00527
1.00423
1.00315
1.00208
1.00106
1.00014
0.999353
0.998728
1.00849
1.00866
1.0086
1.00833
1.00784
1.00715
1.0063
1.00532
1.00426
1.00317
1.00207
1.00104
1.0001
0.999301
0.998665
1.00858
1.00876
1.0087
1.00843
1.00792
1.00723
1.00637
1.00537
1.00429
1.00318
1.00207
1.00102
1.00006
0.999247
0.9986
1.00868
1.00886
1.0088
1.00852
1.00801
1.00731
1.00643
1.00542
1.00433
1.00319
1.00206
1.001
1.00002
0.999192
0.998533
1.00878
1.00896
1.0089
1.00862
1.00811
1.00739
1.0065
1.00548
1.00436
1.00321
1.00206
1.00097
0.999977
0.999135
0.998464
1.00888
1.00907
1.009
1.00872
1.0082
1.00747
1.00657
1.00553
1.00439
1.00322
1.00205
1.00094
0.999933
0.999077
0.998394
1.00898
1.00917
1.00911
1.00882
1.00829
1.00756
1.00664
1.00558
1.00443
1.00323
1.00204
1.00092
0.999888
0.999016
0.998322
1.00909
1.00928
1.00921
1.00893
1.00839
1.00764
1.00671
1.00563
1.00446
1.00325
1.00203
1.00089
0.999841
0.998955
0.998247
1.00919
1.00939
1.00932
1.00903
1.00849
1.00773
1.00678
1.00569
1.0045
1.00326
1.00203
1.00086
0.999793
0.99889
0.998171
1.0093
1.00951
1.00944
1.00914
1.00859
1.00782
1.00686
1.00574
1.00453
1.00327
1.00202
1.00083
0.999744
0.998825
0.998093
1.00941
1.00962
1.00955
1.00925
1.00869
1.00791
1.00693
1.0058
1.00457
1.00328
1.00201
1.0008
0.999692
0.998757
0.998012
1.00953
1.00974
1.00967
1.00937
1.0088
1.008
1.00701
1.00586
1.0046
1.0033
1.002
1.00077
0.99964
0.998688
0.997929
1.00965
1.00986
1.00979
1.00948
1.0089
1.0081
1.00709
1.00592
1.00464
1.00331
1.00198
1.00073
0.999586
0.998617
0.997844
1.00976
1.00998
1.00991
1.0096
1.00901
1.00819
1.00717
1.00598
1.00467
1.00332
1.00197
1.0007
0.99953
0.998544
0.997757
1.00989
1.01011
1.01003
1.00972
1.00912
1.00829
1.00725
1.00604
1.00471
1.00333
1.00196
1.00066
0.999472
0.998468
0.997667
1.01001
1.01023
1.01016
1.00984
1.00924
1.00839
1.00733
1.0061
1.00475
1.00335
1.00195
1.00062
0.999413
0.998391
0.997576
1.01013
1.01036
1.01029
1.00997
1.00935
1.00849
1.00741
1.00616
1.00478
1.00336
1.00193
1.00058
0.999351
0.998311
0.997481
1.01026
1.0105
1.01042
1.0101
1.00947
1.0086
1.0075
1.00622
1.00482
1.00337
1.00192
1.00054
0.999289
0.998229
0.997384
1.01039
1.01063
1.01055
1.01023
1.00959
1.0087
1.00758
1.00629
1.00486
1.00338
1.0019
1.0005
0.999223
0.998145
0.997284
1.01053
1.01077
1.01069
1.01036
1.00971
1.00881
1.00767
1.00635
1.0049
1.00339
1.00188
1.00046
0.999157
0.998058
0.997183
1.01066
1.01091
1.01083
1.01049
1.00984
1.00892
1.00776
1.00642
1.00494
1.0034
1.00187
1.00041
0.999088
0.997969
0.997078
1.0108
1.01105
1.01097
1.01063
1.00997
1.00903
1.00785
1.00648
1.00498
1.00341
1.00185
1.00037
0.999017
0.997878
0.996971
1.01095
1.0112
1.01112
1.01077
1.01009
1.00914
1.00794
1.00655
1.00502
1.00342
1.00183
1.00032
0.998944
0.997784
0.99686
1.01109
1.01135
1.01127
1.01091
1.01023
1.00926
1.00804
1.00662
1.00506
1.00343
1.00181
1.00027
0.99887
0.997689
0.996748
1.01124
1.0115
1.01142
1.01106
1.01036
1.00938
1.00813
1.00669
1.0051
1.00344
1.00179
1.00022
0.998792
0.99759
0.996631
1.01139
1.01166
1.01157
1.01121
1.0105
1.0095
1.00823
1.00676
1.00514
1.00345
1.00176
1.00017
0.998714
0.997489
0.996513
1.01154
1.01181
1.01173
1.01136
1.01064
1.00962
1.00833
1.00683
1.00518
1.00346
1.00174
1.00011
0.998632
0.997384
0.996391
1.0117
1.01198
1.01189
1.01152
1.01078
1.00974
1.00843
1.0069
1.00522
1.00347
1.00171
1.00006
0.998548
0.997278
0.996266
1.01186
1.01214
1.01205
1.01167
1.01093
1.00987
1.00854
1.00698
1.00526
1.00347
1.00169
1
0.998462
0.997168
0.996137
1.01202
1.01231
1.01222
1.01184
1.01108
1.01
1.00864
1.00705
1.0053
1.00348
1.00166
0.999941
0.998374
0.997056
0.996006
1.01219
1.01248
1.01239
1.012
1.01123
1.01013
1.00875
1.00713
1.00535
1.00349
1.00163
0.999879
0.998282
0.99694
0.995871
1.01236
1.01265
1.01256
1.01217
1.01138
1.01027
1.00886
1.00721
1.00539
1.00349
1.0016
0.999816
0.998189
0.996822
0.995733
1.01253
1.01283
1.01274
1.01234
1.01154
1.01041
1.00897
1.00728
1.00543
1.0035
1.00157
0.999751
0.998092
0.9967
0.995592
1.01271
1.01301
1.01292
1.01251
1.0117
1.01055
1.00908
1.00736
1.00547
1.00351
1.00154
0.999683
0.997994
0.996575
0.995447
1.01289
1.0132
1.0131
1.01269
1.01186
1.01069
1.00919
1.00745
1.00552
1.00351
1.00151
0.999613
0.997892
0.996447
0.995298
1.01307
1.01339
1.01329
1.01287
1.01203
1.01083
1.00931
1.00753
1.00556
1.00351
1.00147
0.999542
0.997787
0.996316
0.995145
1.01326
1.01358
1.01348
1.01306
1.0122
1.01098
1.00943
1.00761
1.00561
1.00352
1.00143
0.999467
0.997679
0.996181
0.994989
1.01345
1.01377
1.01368
1.01324
1.01237
1.01113
1.00955
1.0077
1.00565
1.00352
1.0014
0.999391
0.997569
0.996043
0.994829
1.01364
1.01397
1.01388
1.01343
1.01255
1.01128
1.00967
1.00778
1.00569
1.00352
1.00136
0.999311
0.997455
0.9959
0.994665
1.01384
1.01418
1.01408
1.01363
1.01273
1.01144
1.00979
1.00787
1.00574
1.00352
1.00131
0.99923
0.997339
0.995755
0.994497
1.01404
1.01439
1.01429
1.01383
1.01291
1.0116
1.00992
1.00796
1.00578
1.00352
1.00127
0.999146
0.997219
0.995606
0.994324
1.01424
1.0146
1.0145
1.01403
1.0131
1.01176
1.01005
1.00804
1.00583
1.00352
1.00123
0.99906
0.997096
0.995453
0.994148
1.01445
1.01481
1.01471
1.01424
1.01329
1.01192
1.01018
1.00813
1.00588
1.00352
1.00118
0.99897
0.996969
0.995295
0.993967
1.01466
1.01503
1.01493
1.01445
1.01348
1.01209
1.01031
1.00823
1.00592
1.00352
1.00113
0.998878
0.996839
0.995135
0.993782
1.01488
1.01526
1.01515
1.01467
1.01368
1.01226
1.01045
1.00832
1.00597
1.00352
1.00108
0.998783
0.996705
0.994969
0.993592
1.0151
1.01549
1.01538
1.01489
1.01388
1.01244
1.01059
1.00841
1.00601
1.00351
1.00103
0.998685
0.996568
0.9948
0.993398
1.01533
1.01572
1.01561
1.01511
1.01408
1.01261
1.01073
1.00851
1.00606
1.00351
1.00097
0.998584
0.996427
0.994626
0.993199
1.01556
1.01596
1.01585
1.01534
1.01429
1.01279
1.01087
1.00861
1.0061
1.0035
1.00091
0.99848
0.996282
0.994448
0.992995
1.01579
1.0162
1.01609
1.01557
1.01451
1.01298
1.01101
1.0087
1.00615
1.00349
1.00085
0.998373
0.996133
0.994265
0.992786
1.01603
1.01645
1.01634
1.01581
1.01472
1.01317
1.01116
1.0088
1.0062
1.00349
1.00079
0.998262
0.99598
0.994078
0.992573
1.01628
1.0167
1.01659
1.01605
1.01495
1.01336
1.01131
1.0089
1.00624
1.00347
1.00073
0.998148
0.995822
0.993886
0.992354
1.01653
1.01696
1.01684
1.0163
1.01517
1.01355
1.01146
1.00901
1.00629
1.00346
1.00066
0.99803
0.995661
0.993689
0.99213
1.01678
1.01722
1.0171
1.01655
1.0154
1.01375
1.01162
1.00911
1.00633
1.00345
1.00059
0.997909
0.995495
0.993487
0.9919
1.01704
1.01748
1.01737
1.01681
1.01564
1.01395
1.01178
1.00921
1.00638
1.00344
1.00052
0.997784
0.995325
0.99328
0.991665
1.0173
1.01776
1.01764
1.01707
1.01588
1.01416
1.01194
1.00932
1.00642
1.00342
1.00044
0.997655
0.995149
0.993068
0.991424
1.01757
1.01803
1.01792
1.01734
1.01612
1.01437
1.0121
1.00942
1.00647
1.0034
1.00037
0.997522
0.99497
0.99285
0.991179
1.01784
1.01832
1.0182
1.01761
1.01637
1.01458
1.01226
1.00953
1.00651
1.00338
1.00028
0.997385
0.994784
0.992627
0.990926
1.01812
1.01861
1.01849
1.01789
1.01663
1.0148
1.01243
1.00964
1.00656
1.00336
1.0002
0.997244
0.994595
0.992399
0.990669
1.0184
1.0189
1.01878
1.01817
1.01688
1.01502
1.0126
1.00975
1.0066
1.00334
1.00011
0.997097
0.994399
0.992164
0.990404
1.01869
1.0192
1.01908
1.01846
1.01715
1.01524
1.01278
1.00986
1.00665
1.00331
1.00002
0.996948
0.994199
0.991924
0.990134
1.01899
1.01951
1.01939
1.01875
1.01742
1.01547
1.01295
1.00997
1.00669
1.00328
0.999925
0.996792
0.993993
0.991677
0.989857
1.01929
1.01982
1.0197
1.01905
1.01769
1.01571
1.01313
1.01009
1.00673
1.00325
0.999827
0.996633
0.993782
0.991425
0.989574
1.0196
1.02014
1.02002
1.01936
1.01797
1.01594
1.01331
1.0102
1.00677
1.00322
0.999724
0.996468
0.993564
0.991166
0.989284
1.01991
1.02046
1.02034
1.01967
1.01826
1.01619
1.0135
1.01032
1.00681
1.00319
0.999618
0.996298
0.993341
0.990901
0.988988
1.02023
1.0208
1.02067
1.01999
1.01855
1.01643
1.01369
1.01044
1.00685
1.00315
0.999507
0.996123
0.993112
0.990629
0.988684
1.02056
1.02113
1.02101
1.02032
1.01885
1.01669
1.01388
1.01055
1.00689
1.00311
0.999392
0.995942
0.992877
0.990351
0.988374
1.02089
1.02148
1.02136
1.02065
1.01915
1.01694
1.01407
1.01067
1.00693
1.00306
0.999273
0.995756
0.992634
0.990065
0.988056
1.02123
1.02183
1.02171
1.02099
1.01946
1.0172
1.01427
1.01079
1.00697
1.00302
0.999149
0.995564
0.992386
0.989773
0.987732
1.02157
1.02219
1.02207
1.02134
1.01977
1.01747
1.01446
1.01091
1.007
1.00297
0.99902
0.995366
0.99213
0.989473
0.987399
1.02193
1.02256
1.02243
1.02169
1.02009
1.01774
1.01467
1.01103
1.00704
1.00291
0.998886
0.995162
0.991868
0.989166
0.98706
1.02228
1.02293
1.02281
1.02205
1.02042
1.01801
1.01487
1.01116
1.00707
1.00286
0.998747
0.99495
0.991598
0.988851
0.986711
1.02265
1.02331
1.02319
1.02242
1.02076
1.01829
1.01508
1.01128
1.0071
1.0028
0.998603
0.994733
0.991322
0.988529
0.986356
1.02303
1.0237
1.02358
1.0228
1.0211
1.01858
1.01529
1.0114
1.00713
1.00273
0.998452
0.994509
0.991037
0.988198
0.985992
1.02341
1.0241
1.02398
1.02318
1.02145
1.01887
1.01551
1.01153
1.00715
1.00266
0.998296
0.994278
0.990745
0.987859
0.98562
1.0238
1.0245
1.02438
1.02357
1.0218
1.01917
1.01572
1.01165
1.00718
1.00259
0.998134
0.994039
0.990444
0.987512
0.985239
1.02419
1.02492
1.0248
1.02397
1.02216
1.01947
1.01595
1.01177
1.0072
1.00251
0.997966
0.993793
0.990136
0.987157
0.984851
1.0246
1.02534
1.02522
1.02438
1.02253
1.01978
1.01617
1.0119
1.00722
1.00243
0.99779
0.993539
0.989819
0.986792
0.984452
1.02501
1.02577
1.02565
1.0248
1.02291
1.02009
1.01639
1.01202
1.00724
1.00234
0.997609
0.993278
0.989494
0.986419
0.984046
1.02543
1.02621
1.02609
1.02522
1.02329
1.02041
1.01662
1.01215
1.00725
1.00225
0.997419
0.993007
0.989159
0.986037
0.98363
1.02586
1.02666
1.02654
1.02566
1.02369
1.02073
1.01686
1.01227
1.00726
1.00215
0.997223
0.992729
0.988816
0.985645
0.983205
1.0263
1.02712
1.027
1.0261
1.02409
1.02106
1.01709
1.0124
1.00727
1.00205
0.997019
0.992441
0.988463
0.985244
0.98277
1.02675
1.02759
1.02748
1.02655
1.02449
1.0214
1.01733
1.01252
1.00728
1.00194
0.996807
0.992145
0.988101
0.984833
0.982326
1.02721
1.02807
1.02796
1.02702
1.02491
1.02174
1.01757
1.01265
1.00728
1.00182
0.996587
0.991839
0.987728
0.984412
0.981871
1.02768
1.02856
1.02845
1.02749
1.02534
1.02209
1.01782
1.01277
1.00727
1.0017
0.996358
0.991523
0.987346
0.983981
0.981408
1.02815
1.02906
1.02895
1.02797
1.02577
1.02244
1.01806
1.01289
1.00727
1.00157
0.99612
0.991197
0.986952
0.983539
0.980933
1.02864
1.02957
1.02946
1.02846
1.02621
1.0228
1.01831
1.01301
1.00725
1.00143
0.995873
0.990861
0.986549
0.983087
0.980449
1.02914
1.03009
1.02998
1.02897
1.02666
1.02317
1.01856
1.01313
1.00724
1.00128
0.995616
0.990514
0.986133
0.982623
0.979953
1.02964
1.03062
1.03052
1.02948
1.02713
1.02354
1.01882
1.01325
1.00721
1.00113
0.995349
0.990157
0.985708
0.98215
0.979448
1.03016
1.03117
1.03107
1.03001
1.0276
1.02392
1.01907
1.01336
1.00719
1.00097
0.995071
0.989787
0.985269
0.981663
0.978931
1.03069
1.03172
1.03163
1.03055
1.02808
1.0243
1.01933
1.01348
1.00715
1.0008
0.994784
0.989407
0.98482
0.981166
0.978403
1.03123
1.03229
1.0322
1.0311
1.02857
1.0247
1.01959
1.01359
1.00711
1.00062
0.994484
0.989013
0.984358
0.980657
0.977864
1.03179
1.03287
1.03278
1.03166
1.02907
1.02509
1.01986
1.0137
1.00706
1.00042
0.994173
0.988608
0.983884
0.980136
0.977314
1.03235
1.03346
1.03338
1.03224
1.02958
1.0255
1.02012
1.0138
1.00701
1.00022
0.993849
0.988189
0.983396
0.979601
0.976751
1.03293
1.03407
1.03399
1.03282
1.0301
1.02591
1.02039
1.0139
1.00694
1.00001
0.993513
0.987758
0.982896
0.979055
0.976177
1.03352
1.03469
1.03462
1.03342
1.03063
1.02633
1.02066
1.014
1.00687
0.999788
0.993164
0.987312
0.982381
0.978496
0.975591
1.03412
1.03533
1.03526
1.03404
1.03118
1.02676
1.02093
1.01409
1.00679
0.999553
0.992801
0.986852
0.981853
0.977923
0.974993
1.03473
1.03598
1.03591
1.03467
1.03173
1.02719
1.0212
1.01418
1.0067
0.999304
0.992424
0.986377
0.98131
0.977337
0.974382
1.03536
1.03664
1.03658
1.03531
1.0323
1.02763
1.02147
1.01427
1.0066
0.999043
0.992032
0.985888
0.980754
0.976738
0.973759
1.03601
1.03732
1.03727
1.03597
1.03287
1.02807
1.02174
1.01435
1.00649
0.998768
0.991625
0.985383
0.980181
0.976123
0.973123
1.03666
1.03801
1.03797
1.03664
1.03346
1.02852
1.02201
1.01442
1.00637
0.998479
0.991202
0.984862
0.979594
0.975496
0.972475
1.03733
1.03872
1.03868
1.03733
1.03406
1.02898
1.02228
1.01448
1.00624
0.998174
0.990762
0.984323
0.97899
0.974853
0.971812
1.03802
1.03945
1.03942
1.03803
1.03468
1.02944
1.02255
1.01454
1.00609
0.997854
0.990306
0.983769
0.978371
0.974195
0.971137
1.03873
1.0402
1.04017
1.03875
1.0353
1.02992
1.02282
1.01459
1.00593
0.997517
0.989831
0.983196
0.977734
0.973522
0.970448
1.03944
1.04096
1.04094
1.03949
1.03594
1.03039
1.02309
1.01463
1.00576
0.997163
0.989338
0.982606
0.977082
0.972835
0.969745
1.04018
1.04174
1.04173
1.04024
1.03659
1.03088
1.02335
1.01466
1.00557
0.996791
0.988826
0.981996
0.976411
0.97213
0.969028
1.04093
1.04254
1.04254
1.04101
1.03726
1.03136
1.02361
1.01468
1.00537
0.9964
0.988294
0.981368
0.975723
0.971411
0.968298
1.0417
1.04335
1.04337
1.0418
1.03794
1.03186
1.02387
1.01469
1.00514
0.995988
0.987741
0.980719
0.975016
0.970674
0.967552
1.04249
1.04419
1.04422
1.04261
1.03863
1.03236
1.02412
1.01468
1.0049
0.995556
0.987168
0.980051
0.974291
0.969922
0.966792
1.0433
1.04505
1.04509
1.04344
1.03934
1.03286
1.02437
1.01466
1.00465
0.995102
0.986572
0.979361
0.973547
0.969152
0.966016
1.04413
1.04593
1.04598
1.04429
1.04006
1.03337
1.02462
1.01463
1.00437
0.994626
0.985953
0.97865
0.972784
0.968366
0.965227
1.04497
1.04683
1.04689
1.04516
1.04079
1.03388
1.02485
1.01458
1.00407
0.994125
0.98531
0.977916
0.972
0.967561
0.964421
1.04584
1.04775
1.04783
1.04605
1.04154
1.0344
1.02508
1.01452
1.00374
0.9936
0.984644
0.977161
0.971197
0.966739
0.9636
1.04673
1.0487
1.04879
1.04696
1.0423
1.03492
1.0253
1.01444
1.00339
0.993049
0.983951
0.976381
0.970372
0.965899
0.962762
1.04764
1.04967
1.04978
1.04789
1.04308
1.03544
1.02551
1.01433
1.00302
0.992471
0.983233
0.975578
0.969527
0.96504
0.96191
1.04857
1.05067
1.05079
1.04885
1.04387
1.03597
1.02571
1.01421
1.00262
0.991864
0.982487
0.97475
0.96866
0.964163
0.96104
1.04952
1.05169
1.05183
1.04983
1.04468
1.03649
1.0259
1.01406
1.0022
0.991229
0.981713
0.973898
0.967771
0.963267
0.960155
1.0505
1.05274
1.0529
1.05083
1.0455
1.03702
1.02607
1.01389
1.00174
0.990562
0.98091
0.973019
0.96686
0.962351
0.959252
1.0515
1.05381
1.05399
1.05186
1.04633
1.03754
1.02623
1.0137
1.00125
0.989864
0.980079
0.972114
0.965926
0.961416
0.958333
1.05253
1.05492
1.05512
1.05291
1.04718
1.03807
1.02637
1.01347
1.00073
0.989132
0.979215
0.971182
0.964968
0.960461
0.957396
1.05359
1.05605
1.05627
1.05399
1.04804
1.03859
1.02649
1.01322
1.00018
0.988366
0.978321
0.970222
0.963988
0.959486
0.956443
1.05467
1.05721
1.05746
1.0551
1.04892
1.0391
1.02659
1.01293
0.999583
0.987564
0.977394
0.969234
0.962982
0.95849
0.955471
1.05578
1.05841
1.05868
1.05623
1.04981
1.03961
1.02666
1.01261
0.998953
0.986726
0.976433
0.968217
0.961953
0.957474
0.954483
1.05692
1.05964
1.05993
1.0574
1.05071
1.04011
1.02671
1.01225
0.998282
0.985847
0.975438
0.967171
0.960899
0.956436
0.953476
1.05809
1.0609
1.06122
1.05859
1.05162
1.0406
1.02673
1.01185
0.997569
0.98493
0.974408
0.966094
0.959819
0.955378
0.952452
1.05929
1.0622
1.06255
1.05981
1.05254
1.04108
1.02672
1.01141
0.996812
0.98397
0.97334
0.964987
0.958714
0.954298
0.95141
1.06053
1.06353
1.06391
1.06106
1.05348
1.04155
1.02668
1.01093
0.996009
0.982968
0.972237
0.963849
0.957583
0.953197
0.950349
1.06179
1.0649
1.06531
1.06234
1.05442
1.04199
1.0266
1.01039
0.995156
0.981921
0.971094
0.962678
0.956425
0.952073
0.94927
1.0631
1.06632
1.06676
1.06365
1.05538
1.04242
1.02648
1.00981
0.994253
0.980829
0.969913
0.961475
0.955242
0.950929
0.948173
1.06444
1.06777
1.06824
1.06499
1.05633
1.04283
1.02631
1.00918
0.993297
0.979688
0.96869
0.960239
0.95403
0.949761
0.947057
1.06581
1.06927
1.06977
1.06636
1.0573
1.04321
1.0261
1.00848
0.992285
0.978499
0.967428
0.95897
0.952792
0.948572
0.945923
1.06723
1.07081
1.07135
1.06777
1.05826
1.04356
1.02583
1.00773
0.991216
0.977259
0.966123
0.957666
0.951526
0.947359
0.94477
1.06868
1.0724
1.07297
1.0692
1.05923
1.04388
1.02551
1.00692
0.990086
0.975967
0.964775
0.956329
0.950233
0.946125
0.943599
1.07018
1.07403
1.07465
1.07067
1.06019
1.04416
1.02513
1.00603
0.988894
0.974621
0.963384
0.954956
0.948912
0.944868
0.942409
1.07172
1.07572
1.07637
1.07217
1.06115
1.04439
1.02468
1.00508
0.987637
0.973222
0.961949
0.953548
0.947563
0.943588
0.9412
1.07331
1.07746
1.07815
1.07371
1.0621
1.04458
1.02416
1.00405
0.986311
0.971765
0.960468
0.952104
0.946185
0.942286
0.939972
1.07494
1.07926
1.07999
1.07527
1.06303
1.04472
1.02356
1.00294
0.984917
0.970251
0.958942
0.950625
0.94478
0.940961
0.938726
1.07663
1.08112
1.08188
1.07686
1.06395
1.04479
1.02288
1.00175
0.983449
0.968677
0.957369
0.94911
0.943346
0.939613
0.937461
1.07836
1.08304
1.08383
1.07849
1.06485
1.04479
1.02212
1.00047
0.981908
0.967044
0.95575
0.947558
0.941884
0.938243
0.936178
1.08015
1.08502
1.08584
1.08013
1.06572
1.04472
1.02126
0.999105
0.980288
0.965349
0.954082
0.94597
0.940393
0.93685
0.934876
1.08199
1.08707
1.08792
1.08181
1.06655
1.04457
1.0203
0.997642
0.97859
0.963593
0.952368
0.944346
0.938875
0.935436
0.933556
1.0839
1.08919
1.09006
1.0835
1.06734
1.04433
1.01923
0.996079
0.976809
0.961772
0.950605
0.942685
0.937328
0.933998
0.932216
1.08586
1.09139
1.09227
1.08522
1.06808
1.04399
1.01804
0.994412
0.974946
0.959888
0.948794
0.940988
0.935754
0.932539
0.930859
1.08789
1.09367
1.09455
1.08695
1.06877
1.04354
1.01674
0.992638
0.972997
0.957938
0.946934
0.939255
0.934152
0.931058
0.929484
1.08998
1.09603
1.09691
1.08869
1.06938
1.04296
1.0153
0.990753
0.970961
0.955923
0.945027
0.937486
0.932523
0.929555
0.928091
1.09215
1.09847
1.09933
1.09043
1.06992
1.04226
1.01373
0.988751
0.968835
0.953842
0.943071
0.935682
0.930866
0.92803
0.92668
1.09439
1.10102
1.10183
1.09218
1.07036
1.04142
1.01202
0.986632
0.966621
0.951696
0.941067
0.933843
0.929184
0.926485
0.925252
1.09671
1.10365
1.1044
1.09391
1.0707
1.04041
1.01015
0.984389
0.964314
0.949483
0.939016
0.931968
0.927474
0.924919
0.923807
1.09911
1.1064
1.10705
1.09562
1.07092
1.03925
1.00812
0.982022
0.961916
0.947204
0.936918
0.930061
0.92574
0.923333
0.922345
1.10159
1.10925
1.10978
1.0973
1.071
1.0379
1.00593
0.979526
0.959424
0.944859
0.934774
0.928119
0.92398
0.921726
0.920866
1.10417
1.11222
1.11257
1.09894
1.07093
1.03635
1.00357
0.9769
0.956841
0.942451
0.932585
0.926146
0.922196
0.9201
0.91937
1.10684
1.11531
1.11544
1.10053
1.07069
1.0346
1.00102
0.97414
0.954164
0.939977
0.930351
0.92414
0.920387
0.918455
0.917858
1.10962
1.11854
1.11838
1.10203
1.07025
1.03262
0.998289
0.971248
0.951396
0.937441
0.928074
0.922105
0.918556
0.916791
0.916331
1.11251
1.1219
1.12137
1.10345
1.0696
1.03041
0.995365
0.96822
0.948536
0.934843
0.925755
0.920039
0.916703
0.915109
0.914788
1.11551
1.1254
1.12443
1.10475
1.06871
1.02794
0.992244
0.965059
0.945587
0.932186
0.923397
0.917946
0.914828
0.913409
0.913229
1.11863
1.12906
1.12753
1.10592
1.06756
1.0252
0.988921
0.961762
0.942549
0.929469
0.920999
0.915825
0.912932
0.911693
0.911656
1.12189
1.13287
1.13067
1.10692
1.06612
1.02219
0.985395
0.958334
0.939426
0.926698
0.918566
0.913679
0.911017
0.90996
0.910069
1.12529
1.13685
1.13383
1.10772
1.06437
1.01888
0.981662
0.954774
0.936218
0.923873
0.916097
0.911509
0.909084
0.908211
0.908467
1.12884
1.14101
1.137
1.1083
1.06227
1.01526
0.977722
0.951087
0.932932
0.920997
0.913596
0.909317
0.907133
0.906448
0.906851
1.13256
1.14534
1.14015
1.10861
1.05979
1.01133
0.973577
0.947276
0.929568
0.918074
0.911065
0.907104
0.905165
0.90467
0.905222
1.13645
1.14986
1.14327
1.10861
1.05691
1.00707
0.969229
0.943346
0.926132
0.915106
0.908507
0.904871
0.903182
0.902878
0.903581
1.14053
1.15457
1.14631
1.10826
1.05359
1.00247
0.964681
0.939302
0.922627
0.912098
0.905924
0.902622
0.901185
0.901073
0.901926
1.14483
1.15947
1.14925
1.10752
1.04982
0.997539
0.959942
0.935151
0.919059
0.909053
0.90332
0.900357
0.899175
0.899257
0.90026
1.14934
1.16456
1.15204
1.10632
1.04554
0.992265
0.955018
0.9309
0.915433
0.905975
0.900696
0.898079
0.897153
0.897429
0.898582
1.15411
1.16983
1.15464
1.10462
1.04075
0.986653
0.94992
0.926558
0.911756
0.90287
0.898057
0.89579
0.895121
0.89559
0.896892
1.15914
1.17528
1.15699
1.10235
1.03542
0.980707
0.944659
0.922132
0.908032
0.89974
0.895405
0.893491
0.89308
0.893741
0.895192
1.16447
1.1809
1.15903
1.09946
1.02952
0.974437
0.939251
0.917633
0.904269
0.896593
0.892744
0.891185
0.891031
0.891883
0.893482
1.17011
1.18666
1.16068
1.09588
1.02304
0.967858
0.933711
0.91307
0.900473
0.893431
0.890078
0.888874
0.888975
0.890017
0.891761
1.17611
1.19254
1.16187
1.09154
1.01597
0.960989
0.928058
0.908454
0.896652
0.890262
0.887409
0.886559
0.886914
0.888143
0.890031
1.18248
1.1985
1.16251
1.0864
1.0083
0.953854
0.922309
0.903795
0.892812
0.88709
0.884741
0.884244
0.884848
0.886262
0.888292
1.18927
1.2045
1.16249
1.08037
1.00003
0.946483
0.916486
0.899104
0.888963
0.88392
0.882078
0.88193
0.88278
0.884374
0.886544
1.19651
1.21048
1.16171
1.07341
0.991193
0.93891
0.910609
0.894393
0.885111
0.88076
0.879422
0.879618
0.880709
0.882481
0.884788
1.20425
1.21635
1.16005
1.06546
0.981798
0.931175
0.9047
0.889673
0.881265
0.877614
0.876778
0.877312
0.878638
0.880583
0.883023
1.2125
1.22204
1.15737
1.05648
0.971886
0.923322
0.898781
0.884954
0.877434
0.874488
0.874149
0.875011
0.876567
0.878681
0.881252
1.22133
1.22742
1.15356
1.04642
0.961507
0.915398
0.892871
0.880248
0.873627
0.871388
0.871537
0.872719
0.874498
0.876775
0.879473
1.23076
1.23237
1.14845
1.03528
0.950726
0.907451
0.88699
0.875565
0.869852
0.86832
0.868946
0.870437
0.87243
0.874866
0.877689
1.24083
1.23673
1.14191
1.02304
0.93962
0.899533
0.881158
0.870918
0.866118
0.865289
0.866378
0.868166
0.870366
0.872954
0.875898
1.25155
1.24031
1.13379
1.00973
0.928284
0.891693
0.875388
0.866318
0.862436
0.8623
0.863836
0.865908
0.868305
0.871041
0.874102
1.26296
1.24289
1.12394
0.995408
0.916824
0.883978
0.869698
0.861775
0.858813
0.859358
0.861321
0.863663
0.866249
0.869127
0.872302
1.27505
1.24421
1.11222
0.980146
0.905354
0.87643
0.864098
0.857303
0.855259