/*--------------------------------*- C++ -*----------------------------------*\
  =========                 |
  \\      /  F ield         | OpenFOAM: The Open Source CFD Toolbox
   \\    /   O peration     | Website:  https://openfoam.org
    \\  /    A nd           | Version:  6.0
     \\/     M anipulation  |
\*---------------------------------------------------------------------------*/
FoamFile
{
    version     2.0;
    format      ascii;
    class       surfaceScalarField;
    location    "0.4";
    object      phi;
}
// * * * * * * * * * * * * * * * * * * * * * * * * * * * * * * * * * * * * * //

dimensions      [0 3 -1 0 0 0 0];

internalField   nonuniform List<scalar> 
370
(
-8.18039e-09
8.15364e-09
-2.47211e-07
2.39031e-07
-6.27594e-07
3.80383e-07
-1.06148e-06
4.33884e-07
-1.51447e-06
4.52993e-07
-1.98347e-06
4.68998e-07
-2.47819e-06
4.94724e-07
-3.01063e-06
5.32434e-07
-3.58732e-06
5.76696e-07
-4.20104e-06
6.13715e-07
-4.82011e-06
6.19072e-07
-5.37681e-06
5.56698e-07
-5.75975e-06
3.82946e-07
-5.82008e-06
6.03312e-08
-5.40416e-06
-4.15926e-07
-4.42277e-06
-9.81387e-07
-2.9535e-06
-1.46927e-06
-1.34107e-06
-1.61243e-06
-1.91136e-07
-1.14993e-06
-1.91136e-07
-2.95497e-07
3.03651e-07
-1.0482e-06
9.91734e-07
-2.05406e-06
1.38625e-06
-3.16379e-06
1.54361e-06
-4.30771e-06
1.59691e-06
-5.46781e-06
1.62911e-06
-6.64898e-06
1.67589e-06
-7.85762e-06
1.74107e-06
-9.08467e-06
1.80375e-06
-1.02901e-05
1.81912e-06
-1.1389e-05
1.71798e-06
-1.22436e-05
1.41128e-06
-1.26666e-05
8.05992e-07
-1.2444e-05
-1.62263e-07
-1.13826e-05
-1.47733e-06
-9.39057e-06
-2.97344e-06
-6.59641e-06
-4.26343e-06
-3.49014e-06
-4.7187e-06
-9.6881e-07
-3.67127e-06
-1.15994e-06
-6.09377e-07
9.13028e-07
-1.87063e-06
2.25299e-06
-3.40608e-06
2.92169e-06
-5.01068e-06
3.14821e-06
-6.59669e-06
3.18291e-06
-8.13879e-06
3.17121e-06
-9.63679e-06
3.1739e-06
-1.10912e-05
3.19548e-06
-1.24855e-05
3.19805e-06
-1.37727e-05
3.10633e-06
-1.48667e-05
2.81196e-06
-1.56402e-05
2.18481e-06
-1.59309e-05
1.09667e-06
-1.55549e-05
-5.38287e-07
-1.43301e-05
-2.70208e-06
-1.2121e-05
-5.18258e-06
-8.93626e-06
-7.44815e-06
-5.12271e-06
-8.53225e-06
-1.62475e-06
-7.16923e-06
-2.78469e-06
-9.02649e-07
1.81568e-06
-2.60142e-06
3.95176e-06
-4.51499e-06
4.83526e-06
-6.38211e-06
5.01533e-06
-8.11152e-06
4.91233e-06
-9.68562e-06
4.7453e-06
-1.11135e-05
4.60176e-06
-1.24071e-05
4.48911e-06
-1.35676e-05
4.35851e-06
-1.45767e-05
4.11547e-06
-1.53933e-05
3.62853e-06
-1.59518e-05
2.74332e-06
-1.61611e-05
1.30599e-06
-1.58981e-05
-8.01338e-07
-1.4995e-05
-3.60514e-06
-1.32353e-05
-6.94229e-06
-1.04065e-05
-1.02769e-05
-6.52029e-06
-1.24185e-05
-2.3324e-06
-1.13571e-05
-5.11709e-06
-1.18808e-06
3.00376e-06
-3.21423e-06
5.9779e-06
-5.2856e-06
6.90663e-06
-7.11855e-06
6.84829e-06
-8.65294e-06
6.44672e-06
-9.90436e-06
5.99672e-06
-1.09106e-05
5.60803e-06
-1.1712e-05
5.29051e-06
-1.23435e-05
4.99e-06
-1.28326e-05
4.60451e-06
-1.31994e-05
3.99539e-06
-1.34562e-05
3.00009e-06
-1.3599e-05
1.44885e-06
-1.35866e-05
-8.13751e-07
-1.32986e-05
-3.8932e-06
-1.24781e-05
-7.76272e-06
-1.07011e-05
-1.20539e-05
-7.52202e-06
-1.55976e-05
-3.14832e-06
-1.57308e-05
-8.26541e-06
-1.51849e-06
4.52225e-06
-3.72968e-06
8.18909e-06
-5.64293e-06
8.81988e-06
-7.05939e-06
8.26475e-06
-8.02091e-06
7.40824e-06
-8.61024e-06
6.58604e-06
-8.9079e-06
5.90569e-06
-8.9849e-06
5.36751e-06
-8.90513e-06
4.91022e-06
-8.73163e-06
4.43101e-06
-8.53291e-06
3.79667e-06
-8.38549e-06
2.85267e-06
-8.36784e-06
1.4312e-06
-8.53791e-06
-6.43679e-07
-8.88142e-06
-3.54969e-06
-9.21365e-06
-7.43049e-06
-9.03362e-06
-1.22339e-05
-7.46369e-06
-1.71675e-05
-3.82532e-06
-1.93692e-05
-1.20907e-05
-1.99353e-06
6.51578e-06
-4.13048e-06
1.0326e-05
-5.35138e-06
1.00408e-05
-5.80658e-06
8.71995e-06
-5.74953e-06
7.35118e-06
-5.35394e-06
6.19045e-06
-4.73404e-06
5.2858e-06
-3.97007e-06
4.60355e-06
-3.1277e-06
4.06785e-06
-2.27494e-06
3.57826e-06
-1.4957e-06
3.01743e-06
-8.9805e-07
2.25502e-06
-6.1568e-07
1.14883e-06
-7.97938e-07
-4.61422e-07
-1.57414e-06
-2.77349e-06
-2.95442e-06
-6.0502e-06
-4.59437e-06
-1.0594e-05
-5.43115e-06
-1.63308e-05
-3.80648e-06
-2.09939e-05
-1.58972e-05
-2.68705e-06
9.20284e-06
-3.91673e-06
1.15557e-05
-3.38566e-06
9.50972e-06
-2.08419e-06
7.41848e-06
-5.26416e-07
5.7934e-06
1.09102e-06
4.57301e-06
2.69061e-06
3.68621e-06
4.23902e-06
3.05514e-06
5.7143e-06
2.59257e-06
7.08279e-06
2.20977e-06
8.28229e-06
1.81793e-06
9.21087e-06
1.32644e-06
9.71965e-06
6.40053e-07
9.60812e-06
-3.49897e-07
8.62729e-06
-1.79266e-06
6.52277e-06
-3.94568e-06
3.24133e-06
-7.31253e-06
-4.65792e-07
-1.26236e-05
-2.2868e-06
-1.91729e-05
-1.8184e-05
-2.56299e-06
1.17658e-05
2.40212e-08
8.96868e-06
4.00364e-06
5.53011e-06
7.63437e-06
3.78775e-06
1.07093e-05
2.71851e-06
1.33039e-05
1.97835e-06
1.55117e-05
1.47846e-06
1.74173e-05
1.14953e-06
1.90832e-05
9.26611e-07
2.05363e-05
7.56673e-07
2.17587e-05
5.956e-07
2.26814e-05
4.03665e-07
2.31788e-05
1.42641e-07
2.30573e-05
-2.28364e-07
2.20317e-05
-7.67057e-07
1.96833e-05
-1.59722e-06
1.54636e-05
-3.09289e-06
9.091e-06
-6.25102e-06
2.10791e-06
-1.21898e-05
-1.60761e-05
1.17658e-05
2.07345e-05
2.62646e-05
3.00524e-05
3.27709e-05
3.47492e-05
3.62277e-05
3.73772e-05
3.83038e-05
3.90605e-05
3.96561e-05
4.00598e-05
4.02024e-05
3.99741e-05
3.9207e-05
3.76098e-05
3.45169e-05
2.82659e-05
1.60761e-05
)
;

boundaryField
{
    movingWall
    {
        type            calculated;
        value           uniform 0;
    }
    fixedWalls
    {
        type            calculated;
        value           uniform 0;
    }
    frontAndBack
    {
        type            empty;
        value           nonuniform 0();
    }
}


// ************************************************************************* //
