/*--------------------------------*- C++ -*----------------------------------*\
  =========                 |
  \\      /  F ield         | OpenFOAM: The Open Source CFD Toolbox
   \\    /   O peration     | Website:  https://openfoam.org
    \\  /    A nd           | Version:  6.0
     \\/     M anipulation  |
\*---------------------------------------------------------------------------*/
FoamFile
{
    version     2.0;
    format      ascii;
    class       volVectorField;
    location    "0.4";
    object      U;
}
// * * * * * * * * * * * * * * * * * * * * * * * * * * * * * * * * * * * * * //

dimensions      [0 1 -1 0 0 0 0];

internalField   nonuniform List<vector> 
800
(
(0.00023437 -0.000235424 0)
(0.00040522 -8.81169e-05 0)
(-8.52607e-05 0.000183023 0)
(-0.00123716 0.000407457 0)
(-0.00289407 0.000558292 0)
(-0.00488241 0.000646162 0)
(-0.00706509 0.000690492 0)
(-0.009351 0.000709959 0)
(-0.0116896 0.000718816 0)
(-0.0140607 0.000726539 0)
(-0.0164642 0.000738805 0)
(-0.0189124 0.000758671 0)
(-0.0214242 0.000787545 0)
(-0.0240211 0.000825828 0)
(-0.0267244 0.000873243 0)
(-0.029553 0.000928892 0)
(-0.0325208 0.000991131 0)
(-0.0356339 0.00105732 0)
(-0.0388871 0.00112347 0)
(-0.0422598 0.00118389 0)
(-0.0457111 0.00123081 0)
(-0.0491742 0.00125405 0)
(-0.0525519 0.00124095 0)
(-0.0557111 0.00117658 0)
(-0.0584809 0.00104455 0)
(-0.0606533 0.000828601 0)
(-0.0619898 0.000515235 0)
(-0.0622355 9.74201e-05 0)
(-0.0611428 -0.000420715 0)
(-0.0585058 -0.00101891 0)
(-0.0542038 -0.00165665 0)
(-0.0482504 -0.00227171 0)
(-0.0408383 -0.00278335 0)
(-0.0323698 -0.00310153 0)
(-0.0234578 -0.0031423 0)
(-0.0148853 -0.00284727 0)
(-0.00751763 -0.00220313 0)
(-0.00217286 -0.00125641 0)
(0.000548788 -0.000156304 0)
(0.00059914 0.000577908 0)
(9.38521e-05 -0.000420809 0)
(-0.000495467 0.000477425 0)
(-0.00264229 0.00173627 0)
(-0.00620709 0.00281683 0)
(-0.0108814 0.00359985 0)
(-0.0163427 0.00410582 0)
(-0.0223112 0.0044027 0)
(-0.0285817 0.00456603 0)
(-0.0350265 0.00465979 0)
(-0.0415816 0.00473085 0)
(-0.0482297 0.00481019 0)
(-0.0549837 0.00491625 0)
(-0.0618745 0.00505833 0)
(-0.0689402 0.00523913 0)
(-0.0762184 0.0054561 0)
(-0.0837387 0.00570183 0)
(-0.0915158 0.00596358 0)
(-0.0995412 0.00622244 0)
(-0.107775 0.00645207 0)
(-0.116136 0.00661761 0)
(-0.124493 0.00667482 0)
(-0.132653 0.00656988 0)
(-0.140354 0.00624051 0)
(-0.147263 0.00561881 0)
(-0.152973 0.00463671 0)
(-0.157019 0.00323457 0)
(-0.158892 0.00137338 0)
(-0.158081 -0.000949678 0)
(-0.154124 -0.00368357 0)
(-0.146673 -0.00670634 0)
(-0.135576 -0.00981311 0)
(-0.120958 -0.0127152 0)
(-0.103298 -0.0150572 0)
(-0.0834705 -0.0164565 0)
(-0.0627442 -0.0165678 0)
(-0.0427002 -0.0151645 0)
(-0.0250517 -0.012226 0)
(-0.0113746 -0.00801076 0)
(-0.00287352 -0.00318197 0)
(-2.01141e-05 0.000590225 0)
(-0.000214673 9.06157e-05 0)
(-0.00197116 0.00267977 0)
(-0.00616856 0.00569863 0)
(-0.0123266 0.00828448 0)
(-0.0199604 0.0102096 0)
(-0.0286505 0.0115037 0)
(-0.0380318 0.0123023 0)
(-0.0478285 0.012767 0)
(-0.0578618 0.0130426 0)
(-0.0680344 0.0132405 0)
(-0.0783103 0.013438 0)
(-0.0886949 0.0136831 0)
(-0.099218 0.0140005 0)
(-0.109919 0.014397 0)
(-0.120837 0.0148641 0)
(-0.131994 0.0153793 0)
(-0.143393 0.0159048 0)
(-0.154999 0.0163867 0)
(-0.16673 0.0167527 0)
(-0.178446 0.0169107 0)
(-0.18994 0.0167485 0)
(-0.200924 0.0161355 0)
(-0.211023 0.0149274 0)
(-0.219783 0.0129755 0)
(-0.226666 0.0101405 0)
(-0.231079 0.00631326 0)
(-0.232399 0.00144058 0)
(-0.230019 -0.00444293 0)
(-0.223409 -0.0111816 0)
(-0.212187 -0.018468 0)
(-0.196211 -0.0258236 0)
(-0.175665 -0.0326006 0)
(-0.151145 -0.0380188 0)
(-0.123718 -0.0412471 0)
(-0.0949352 -0.0415362 0)
(-0.066756 -0.0383956 0)
(-0.0413462 -0.031789 0)
(-0.0207577 -0.0223032 0)
(-0.00679916 -0.0113292 0)
(-0.000846421 -0.00165666 0)
(-0.000544845 0.00145529 0)
(-0.00358343 0.00672596 0)
(-0.010006 0.0121162 0)
(-0.0188572 0.0166065 0)
(-0.0294125 0.0199362 0)
(-0.0411471 0.0221846 0)
(-0.0536247 0.0235806 0)
(-0.0665194 0.0243914 0)
(-0.0796191 0.0248579 0)
(-0.0928047 0.0251691 0)
(-0.106026 0.0254582 0)
(-0.119281 0.0258092 0)
(-0.132594 0.0262655 0)
(-0.145998 0.0268378 0)
(-0.159527 0.0275082 0)
(-0.173192 0.0282323 0)
(-0.186979 0.0289384 0)
(-0.200829 0.029526 0)
(-0.214629 0.0298639 0)
(-0.2282 0.0297896 0)
(-0.241289 0.029111 0)
(-0.253559 0.027611 0)
(-0.264591 0.0250582 0)
(-0.273884 0.0212228 0)
(-0.280869 0.0158998 0)
(-0.284926 0.00894139 0)
(-0.285418 0.000294838 0)
(-0.281727 -0.0099519 0)
(-0.273312 -0.0215233 0)
(-0.25977 -0.0339129 0)
(-0.240917 -0.0463543 0)
(-0.21688 -0.0578197 0)
(-0.188192 -0.0670669 0)
(-0.155886 -0.072753 0)
(-0.12155 -0.0736322 0)
(-0.0873057 -0.0688355 0)
(-0.0556381 -0.0581975 0)
(-0.0290745 -0.0425424 0)
(-0.0101857 -0.0238972 0)
(-0.00149893 -0.00590344 0)
(-0.000865378 0.00369297 0)
(-0.00519732 0.0126794 0)
(-0.0138817 0.0210115 0)
(-0.0254177 0.0276935 0)
(-0.0387894 0.0325462 0)
(-0.0533441 0.035769 0)
(-0.0685711 0.0377257 0)
(-0.0841014 0.0388116 0)
(-0.0997 0.0393769 0)
(-0.115236 0.0396956 0)
(-0.130651 0.0399612 0)
(-0.145939 0.040296 0)
(-0.16112 0.0407628 0)
(-0.176224 0.041375 0)
(-0.191278 0.0421031 0)
(-0.206287 0.0428772 0)
(-0.221227 0.0435873 0)
(-0.236028 0.0440823 0)
(-0.250567 0.0441695 0)
(-0.264655 0.0436153 0)
(-0.278035 0.0421499 0)
(-0.290376 0.0394762 0)
(-0.301272 0.0352852 0)
(-0.310253 0.0292778 0)
(-0.316788 0.0211958 0)
(-0.320306 0.0108605 0)
(-0.320214 -0.00177982 0)
(-0.315925 -0.0165959 0)
(-0.306895 -0.0332189 0)
(-0.292668 -0.0509836 0)
(-0.272944 -0.0688823 0)
(-0.247669 -0.0855472 0)
(-0.217151 -0.0992858 0)
(-0.182195 -0.108204 0)
(-0.144241 -0.110451 0)
(-0.105433 -0.104599 0)
(-0.068525 -0.0901287 0)
(-0.036597 -0.0678747 0)
(-0.0131575 -0.0403095 0)
(-0.00202296 -0.0117733 0)
(-0.00117132 0.0067783 0)
(-0.00676647 0.0205269 0)
(-0.0176663 0.0323593 0)
(-0.0317891 0.0414625 0)
(-0.0477911 0.0478635 0)
(-0.0648701 0.0519702 0)
(-0.0824339 0.0543362 0)
(-0.100073 0.0555164 0)
(-0.117539 0.0559865 0)
(-0.134696 0.0561126 0)
(-0.151488 0.0561519 0)
(-0.167912 0.0562658 0)
(-0.183989 0.0565363 0)
(-0.199753 0.0569791 0)
(-0.215233 0.0575523 0)
(-0.230438 0.0581602 0)
(-0.245347 0.0586555 0)
(-0.259899 0.0588389 0)
(-0.273987 0.058461 0)
(-0.287446 0.0572254 0)
(-0.300055 0.054796 0)
(-0.311535 0.0508097 0)
(-0.321547 0.0448944 0)
(-0.329703 0.0366957 0)
(-0.335565 0.0259097 0)
(-0.338654 0.0123252 0)
(-0.338458 -0.00412588 0)
(-0.334438 -0.0233088 0)
(-0.326046 -0.0448185 0)
(-0.312742 -0.0679059 0)
(-0.294052 -0.091406 0)
(-0.269643 -0.113686 0)
(-0.239463 -0.132642 0)
(-0.203924 -0.145797 0)
(-0.164138 -0.150563 0)
(-0.122116 -0.144706 0)
(-0.0808103 -0.127016 0)
(-0.0439145 -0.0980033 0)
(-0.0160554 -0.0603542 0)
(-0.00252388 -0.0190959 0)
(-0.00146511 0.0106774 0)
(-0.00828133 0.0302076 0)
(-0.0213082 0.0460577 0)
(-0.0378564 0.0577386 0)
(-0.0562278 0.0656154 0)
(-0.0754555 0.0704044 0)
(-0.0948635 0.0729153 0)
(-0.114009 0.0739011 0)
(-0.132637 0.0739827 0)
(-0.150622 0.0736269 0)
(-0.167922 0.0731571 0)
(-0.184545 0.0727747 0)
(-0.200528 0.0725807 0)
(-0.215919 0.0725935 0)
(-0.230759 0.0727596 0)
(-0.245075 0.0729608 0)
(-0.258867 0.0730167 0)
(-0.272105 0.0726878 0)
(-0.284719 0.0716786 0)
(-0.296598 0.0696431 0)
(-0.307588 0.0661952 0)
(-0.317496 0.0609221 0)
(-0.326087 0.0534054 0)
(-0.333086 0.0432461 0)
(-0.33818 0.0300981 0)
(-0.341011 0.0137076 0)
(-0.341171 -0.00603687 0)
(-0.338185 -0.0290447 0)
(-0.331509 -0.0549477 0)
(-0.320522 -0.0830089 0)
(-0.304555 -0.112018 0)
(-0.282951 -0.140186 0)
(-0.255205 -0.16508 0)
(-0.221193 -0.183643 0)
(-0.181497 -0.192424 0)
(-0.137782 -0.188094 0)
(-0.0930303 -0.168315 0)
(-0.0515254 -0.132786 0)
(-0.0191896 -0.0840772 0)
(-0.00309406 -0.0279149 0)
(-0.00175402 0.0153618 0)
(-0.00975895 0.0416477 0)
(-0.0248151 0.0619628 0)
(-0.0435885 0.0762797 0)
(-0.0640029 0.0854443 0)
(-0.084922 0.0905944 0)
(-0.105594 0.0928716 0)
(-0.125556 0.0932712 0)
(-0.144568 0.0925811 0)
(-0.162529 0.0913782 0)
(-0.179427 0.0900548 0)
(-0.1953 0.0888517 0)
(-0.210213 0.0878889 0)
(-0.224238 0.0871876 0)
(-0.237447 0.0866853 0)
(-0.249895 0.0862452 0)
(-0.261619 0.0856616 0)
(-0.272634 0.0846645 0)
(-0.282925 0.0829254 0)
(-0.292454 0.0800646 0)
(-0.301153 0.0756624 0)
(-0.308931 0.069274 0)
(-0.315674 0.0604485 0)
(-0.321238 0.0487528 0)
(-0.325448 0.0337993 0)
(-0.328082 0.0152811 0)
(-0.328854 -0.00698481 0)
(-0.327381 -0.0330001 0)
(-0.323155 -0.0625077 0)
(-0.315514 -0.0948854 0)
(-0.303629 -0.129008 0)
(-0.286534 -0.163079 0)
(-0.263242 -0.194468 0)
(-0.23298 -0.219621 0)
(-0.195598 -0.234159 0)
(-0.152118 -0.233381 0)
(-0.105246 -0.21329 0)
(-0.0596823 -0.172095 0)
(-0.0227727 -0.1117 0)
(-0.00380272 -0.0384322 0)
(-0.00205212 0.0208213 0)
(-0.0112463 0.0547903 0)
(-0.028255 0.079921 0)
(-0.0490334 0.0967998 0)
(-0.0711025 0.106921 0)
(-0.0931656 0.111977 0)
(-0.11442 0.113525 0)
(-0.134414 0.112851 0)
(-0.152948 0.110932 0)
(-0.169975 0.108464 0)
(-0.185535 0.105907 0)
(-0.199713 0.10354 0)
(-0.212616 0.101499 0)
(-0.224358 0.0998084 0)
(-0.235047 0.0983974 0)
(-0.24478 0.0971152 0)
(-0.25364 0.0957379 0)
(-0.261691 0.0939757 0)
(-0.268987 0.0914796 0)
(-0.275562 0.087851 0)
(-0.281442 0.0826524 0)
(-0.286641 0.0754222 0)
(-0.291163 0.0656906 0)
(-0.294997 0.0529993 0)
(-0.298108 0.0369231 0)
(-0.300416 0.0170964 0)
(-0.301774 -0.00675267 0)
(-0.301925 -0.0347537 0)
(-0.300451 -0.0668207 0)
(-0.296719 -0.10254 0)
(-0.28983 -0.141004 0)
(-0.278597 -0.180589 0)
(-0.261595 -0.218672 0)
(-0.237364 -0.251378 0)
(-0.204839 -0.27347 0)
(-0.164055 -0.278682 0)
(-0.116984 -0.260796 0)
(-0.0683518 -0.215628 0)
(-0.026918 -0.143497 0)
(-0.00470211 -0.0509484 0)
(-0.00238593 0.0270827 0)
(-0.0128344 0.0696272 0)
(-0.0317698 0.0997912 0)
(-0.0543212 0.118975 0)
(-0.0775812 0.129538 0)
(-0.100125 0.133885 0)
(-0.121151 0.134087 0)
(-0.140268 0.131769 0)
(-0.157366 0.128116 0)
(-0.172483 0.123941 0)
(-0.185741 0.11977 0)
(-0.197291 0.115914 0)
(-0.207301 0.112518 0)
(-0.215932 0.109604 0)
(-0.223337 0.107094 0)
(-0.229657 0.104826 0)
(-0.235021 0.102562 0)
(-0.239546 0.100002 0)
(-0.243345 0.0967866 0)
(-0.246525 0.0925109 0)
(-0.249193 0.0867332 0)
(-0.251458 0.0789881 0)
(-0.253432 0.0687994 0)
(-0.255223 0.0556946 0)
(-0.256926 0.0392191 0)
(-0.258605 0.0189534 0)
(-0.260261 -0.00546509 0)
(-0.261793 -0.0343067 0)
(-0.262934 -0.0676895 0)
(-0.263176 -0.105475 0)
(-0.261675 -0.147095 0)
(-0.257169 -0.191283 0)
(-0.247935 -0.235688 0)
(-0.231891 -0.276417 0)
(-0.206963 -0.307623 0)
(-0.171868 -0.321478 0)
(-0.127261 -0.309055 0)
(-0.0772313 -0.262678 0)
(-0.0316708 -0.179651 0)
(-0.0058435 -0.0658185 0)
(-0.00280529 0.0342419 0)
(-0.0146845 0.0862388 0)
(-0.0355998 0.12146 0)
(-0.0596664 0.142428 0)
(-0.083531 0.152672 0)
(-0.105717 0.155508 0)
(-0.125515 0.153626 0)
(-0.142678 0.149029 0)
(-0.157244 0.143117 0)
(-0.169389 0.136813 0)
(-0.179343 0.130694 0)
(-0.187349 0.125084 0)
(-0.193639 0.120127 0)
(-0.19843 0.115835 0)
(-0.201918 0.112116 0)
(-0.204286 0.108795 0)
(-0.205698 0.105625 0)
(-0.206316 0.1023 0)
(-0.206299 0.0984587 0)
(-0.205808 0.0937001 0)
(-0.205017 0.0875889 0)
(-0.20411 0.0796673 0)
(-0.203285 0.0694648 0)
(-0.202749 0.0565074 0)
(-0.20271 0.0403253 0)
(-0.203363 0.02046 0)
(-0.204862 -0.00352596 0)
(-0.207279 -0.0320309 0)
(-0.210549 -0.0653758 0)
(-0.214374 -0.103724 0)
(-0.218108 -0.146923 0)
(-0.220605 -0.194232 0)
(-0.220067 -0.243858 0)
(-0.213987 -0.292303 0)
(-0.199347 -0.333575 0)
(-0.173321 -0.358587 0)
(-0.134626 -0.35548 0)
(-0.0857707 -0.311909 0)
(-0.0370497 -0.220125 0)
(-0.00730005 -0.0834412 0)
(-0.00340389 0.0425196 0)
(-0.0170718 0.104844 0)
(-0.040113 0.144839 0)
(-0.0653487 0.16668 0)
(-0.0890033 0.175513 0)
(-0.109703 0.175815 0)
(-0.126984 0.170993 0)
(-0.140864 0.163453 0)
(-0.151616 0.154792 0)
(-0.159605 0.146013 0)
(-0.165201 0.13771 0)
(-0.16875 0.130195 0)
(-0.170555 0.12359 0)
(-0.170883 0.11788 0)
(-0.169964 0.11295 0)
(-0.168003 0.108608 0)
(-0.16519 0.104597 0)
(-0.161709 0.100608 0)
(-0.157744 0.0962857 0)
(-0.153493 0.0912383 0)
(-0.149168 0.0850465 0)
(-0.145004 0.0772707 0)
(-0.14126 0.0674578 0)
(-0.138218 0.0551464 0)
(-0.136174 0.0398692 0)
(-0.135434 0.0211521 0)
(-0.136291 -0.00148774 0)
(-0.138996 -0.0285416 0)
(-0.143703 -0.0604972 0)
(-0.150391 -0.0977948 0)
(-0.158732 -0.140717 0)
(-0.167893 -0.189149 0)
(-0.176285 -0.24211 0)
(-0.181306 -0.296964 0)
(-0.179265 -0.348237 0)
(-0.165802 -0.386289 0)
(-0.137174 -0.396568 0)
(-0.093149 -0.361122 0)
(-0.0430794 -0.264517 0)
(-0.00919736 -0.104289 0)
(-0.00435868 0.0523611 0)
(-0.020455 0.12586 0)
(-0.0458249 0.169811 0)
(-0.0716307 0.191022 0)
(-0.0938184 0.196913 0)
(-0.111413 0.19341 0)
(-0.124442 0.184714 0)
(-0.133352 0.173605 0)
(-0.138751 0.161817 0)
(-0.141245 0.15037 0)
(-0.141366 0.139821 0)
(-0.13956 0.130428 0)
(-0.136192 0.122256 0)
(-0.131555 0.115244 0)
(-0.125893 0.10924 0)
(-0.119412 0.104028 0)
(-0.112299 0.0993396 0)
(-0.104733 0.0948631 0)
(-0.096901 0.0902531 0)
(-0.0890068 0.0851356 0)
(-0.0812776 0.0791146 0)
(-0.0739715 0.0717782 0)
(-0.0673807 0.0627022 0)
(-0.0618323 0.0514528 0)
(-0.0576869 0.0375845 0)
(-0.0553338 0.020634 0)
(-0.0551807 0.000109797 0)
(-0.0576349 -0.024523 0)
(-0.0630686 -0.0538558 0)
(-0.071755 -0.0885362 0)
(-0.0837518 -0.129223 0)
(-0.0987016 -0.17643 0)
(-0.115512 -0.23014 0)
(-0.131919 -0.288993 0)
(-0.144056 -0.34883 0)
(-0.146374 -0.400553 0)
(-0.13246 -0.427884 0)
(-0.0981506 -0.406987 0)
(-0.0497812 -0.31186 0)
(-0.0117515 -0.128982 0)
(-0.00600261 0.0646146 0)
(-0.0255764 0.149936 0)
(-0.0533514 0.196062 0)
(-0.0784945 0.214245 0)
(-0.0971174 0.215114 0)
(-0.109184 0.206318 0)
(-0.115567 0.192832 0)
(-0.117344 0.17769 0)
(-0.115553 0.162637 0)
(-0.111067 0.148597 0)
(-0.10457 0.136009 0)
(-0.096581 0.125015 0)
(-0.0874836 0.115586 0)
(-0.077563 0.107586 0)
(-0.0670344 0.100814 0)
(-0.0560695 0.0950222 0)
(-0.0448179 0.0899273 0)
(-0.0334262 0.0852204 0)
(-0.0220523 0.0805698 0)
(-0.0108779 0.0756256 0)
(-0.00011752 0.0700239 0)
(0.00997443 0.06339 0)
(0.0190989 0.0553404 0)
(0.0269093 0.0454828 0)
(0.0330102 0.0334125 0)
(0.0369577 0.0187029 0)
(0.0382617 0.000890235 0)
(0.0363922 -0.020551 0)
(0.0307953 -0.0462411 0)
(0.0209294 -0.0769329 0)
(0.00634384 -0.113537 0)
(-0.0131573 -0.157082 0)
(-0.0372015 -0.208492 0)
(-0.064309 -0.267928 0)
(-0.0911326 -0.333286 0)
(-0.111692 -0.397423 0)
(-0.117247 -0.444144 0)
(-0.0988354 -0.444722 0)
(-0.0570272 -0.36023 0)
(-0.0152907 -0.158358 0)
(-0.00893822 0.0808314 0)
(-0.033541 0.177879 0)
(-0.0630967 0.222644 0)
(-0.084886 0.234121 0)
(-0.0963202 0.227311 0)
(-0.099196 0.211681 0)
(-0.0956823 0.192741 0)
(-0.0876605 0.173505 0)
(-0.0766255 0.15549 0)
(-0.063672 0.139362 0)
(-0.0495593 0.125327 0)
(-0.0347952 0.113344 0)
(-0.0197087 0.103247 0)
(-0.00450774 0.0948071 0)
(0.0106767 0.0877597 0)
(0.0257557 0.0818241 0)
(0.040656 0.0767072 0)
(0.0552991 0.0721068 0)
(0.0695855 0.0677129 0)
(0.0833817 0.0632085 0)
(0.0965113 0.0582711 0)
(0.108747 0.0525735 0)
(0.119808 0.0457843 0)
(0.129351 0.0375662 0)
(0.136972 0.0275718 0)
(0.142203 0.0154334 0)
(0.144506 0.000746217 0)
(0.143272 -0.0169593 0)
(0.137817 -0.0382606 0)
(0.127393 -0.0639056 0)
(0.111217 -0.0948934 0)
(0.0885613 -0.132552 0)
(0.0589858 -0.178529 0)
(0.0228396 -0.234447 0)
(-0.0178054 -0.30071 0)
(-0.0577111 -0.373562 0)
(-0.0869602 -0.439508 0)
(-0.0917912 -0.467759 0)
(-0.0639936 -0.406046 0)
(-0.0201426 -0.193432 0)
(-0.0141073 0.103788 0)
(-0.0455548 0.210185 0)
(-0.0740055 0.246957 0)
(-0.0866679 0.246469 0)
(-0.0847806 0.229043 0)
(-0.073212 0.20548 0)
(-0.0557619 0.18117 0)
(-0.0350849 0.158578 0)
(-0.0129627 0.13864 0)
(0.00949353 0.121551 0)
(0.0316405 0.107166 0)
(0.0531391 0.0952037 0)
(0.0738412 0.0853379 0)
(0.0937113 0.0772373 0)
(0.112774 0.0705825 0)
(0.131076 0.0650688 0)
(0.148661 0.0604044 0)
(0.165548 0.0563066 0)
(0.181721 0.0524992 0)
(0.197114 0.0487096 0)
(0.211608 0.0446677 0)
(0.225021 0.0401048 0)
(0.237106 0.0347523 0)
(0.247546 0.0283399 0)
(0.255952 0.0205906 0)
(0.261856 0.0112124 0)
(0.26471 -0.000117326 0)
(0.26387 -0.0137778 0)
(0.258586 -0.0302474 0)
(0.247985 -0.0501738 0)
(0.231056 -0.0744819 0)
(0.206658 -0.104533 0)
(0.173613 -0.142306 0)
(0.131014 -0.190465 0)
(0.0790493 -0.251817 0)
(0.020812 -0.326969 0)
(-0.0347218 -0.408137 0)
(-0.0706551 -0.467543 0)
(-0.0676818 -0.443116 0)
(-0.0259945 -0.235365 0)
(-0.022335 0.138625 0)
(-0.0610663 0.245261 0)
(-0.0793423 0.262016 0)
(-0.0713807 0.243163 0)
(-0.0468677 0.21324 0)
(-0.0145347 0.182366 0)
(0.0206154 0.154469 0)
(0.0557722 0.130682 0)
(0.0894386 0.110955 0)
(0.120943 0.0948302 0)
(0.150091 0.0817591 0)
(0.176943 0.0712168 0)
(0.201688 0.0627389 0)
(0.224565 0.0559259 0)
(0.245818 0.0504344 0)
(0.265668 0.0459656 0)
(0.2843 0.042254 0)
(0.301845 0.039058 0)
(0.318376 0.0361524 0)
(0.333904 0.0333236 0)
(0.34837 0.0303661 0)
(0.361644 0.0270798 0)
(0.373525 0.0232683 0)
(0.383735 0.0187365 0)
(0.391917 0.013287 0)
(0.397635 0.00671304 0)
(0.400361 -0.00121279 0)
(0.399465 -0.0107593 0)
(0.394198 -0.0222715 0)
(0.383655 -0.036231 0)
(0.366732 -0.05336 0)
(0.342057 -0.0747992 0)
(0.307938 -0.102397 0)
(0.262387 -0.139111 0)
(0.203515 -0.189281 0)
(0.131057 -0.257741 0)
(0.0500815 -0.344904 0)
(-0.0236811 -0.433187 0)
(-0.0599161 -0.460865 0)
(-0.0298318 -0.285342 0)
(-0.0308999 0.193115 0)
(-0.0697671 0.273336 0)
(-0.0540772 0.250591 0)
(-0.00627969 0.209495 0)
(0.0509118 0.170111 0)
(0.10773 0.136798 0)
(0.160522 0.110153 0)
(0.207952 0.0893573 0)
(0.249856 0.073241 0)
(0.286653 0.0607538 0)
(0.318971 0.0510612 0)
(0.347474 0.0435198 0)
(0.372785 0.0376361 0)
(0.395454 0.0330288 0)
(0.41595 0.0293983 0)
(0.434653 0.0265033 0)
(0.451866 0.0241432 0)
(0.467806 0.0221452 0)
(0.482616 0.0203561 0)
(0.49636 0.0186357 0)
(0.509027 0.0168531 0)
(0.520535 0.0148839 0)
(0.530725 0.0126085 0)
(0.539366 0.00990997 0)
(0.546153 0.00667176 0)
(0.550704 0.00277342 0)
(0.552552 -0.00191662 0)
(0.551138 -0.0075539 0)
(0.545785 -0.0143405 0)
(0.535665 -0.0225652 0)
(0.519732 -0.0326777 0)
(0.496617 -0.0454261 0)
(0.464458 -0.0621218 0)
(0.42066 -0.0851368 0)
(0.361683 -0.118746 0)
(0.283538 -0.170027 0)
(0.184261 -0.247636 0)
(0.0705079 -0.351458 0)
(-0.0215848 -0.438376 0)
(-0.020038 -0.336776 0)
(-0.00851854 0.251446 0)
(-0.014002 0.259256 0)
(0.0783573 0.188436 0)
(0.182146 0.135437 0)
(0.269839 0.0988408 0)
(0.341713 0.0729142 0)
(0.400708 0.0546191 0)
(0.449066 0.041735 0)
(0.488811 0.0325681 0)
(0.521741 0.0259497 0)
(0.549327 0.0211062 0)
(0.572727 0.0175205 0)
(0.592844 0.0148391 0)
(0.610384 0.0128146 0)
(0.625894 0.0112686 0)
(0.639794 0.0100679 0)
(0.652396 0.00910874 0)
(0.663922 0.00830676 0)
(0.674516 0.00759026 0)
(0.684249 0.00689606 0)
(0.693126 0.00616685 0)
(0.70109 0.00534944 0)
(0.708023 0.00439369 0)
(0.713748 0.00325158 0)
(0.718034 0.00187607 0)
(0.720587 0.000219344 0)
(0.721053 -0.00177037 0)
(0.71901 -0.00415437 0)
(0.713947 -0.00701359 0)
(0.705235 -0.0104669 0)
(0.692072 -0.0147055 0)
(0.673374 -0.0200612 0)
(0.647572 -0.0271487 0)
(0.612243 -0.0371838 0)
(0.563429 -0.0527188 0)
(0.494751 -0.0792994 0)
(0.396235 -0.128326 0)
(0.255105 -0.216249 0)
(0.0967887 -0.336119 0)
(0.0453861 -0.337436 0)
(0.284084 0.140156 0)
(0.362971 0.123604 0)
(0.505768 0.0780506 0)
(0.616949 0.0486912 0)
(0.687799 0.031168 0)
(0.735203 0.0203093 0)
(0.769141 0.0135283 0)
(0.794227 0.00929246 0)
(0.813203 0.00661095 0)
(0.827936 0.00487528 0)
(0.839679 0.0037255 0)
(0.849272 0.0029475 0)
(0.857291 0.00241088 0)
(0.864143 0.002034 0)
(0.870118 0.00176398 0)
(0.875426 0.00156502 0)
(0.880209 0.00141154 0)
(0.884566 0.00128416 0)
(0.88855 0.00116732 0)
(0.892184 0.00104786 0)
(0.895456 0.000914214 0)
(0.898329 0.000755931 0)
(0.900735 0.000563389 0)
(0.902586 0.000327597 0)
(0.903765 3.99647e-05 0)
(0.904133 -0.00030807 0)
(0.903527 -0.000725702 0)
(0.901755 -0.00122397 0)
(0.898589 -0.00181798 0)
(0.893754 -0.00253092 0)
(0.886894 -0.00340172 0)
(0.877525 -0.00450052 0)
(0.864922 -0.00596256 0)
(0.847881 -0.00807042 0)
(0.824171 -0.0114723 0)
(0.789251 -0.0178069 0)
(0.732858 -0.0314475 0)
(0.627699 -0.0625634 0)
(0.45401 -0.122895 0)
(0.328804 -0.154273 0)
)
;

boundaryField
{
    movingWall
    {
        type            fixedValue;
        value           uniform (1 0 0);
    }
    fixedWalls
    {
        type            noSlip;
    }
    frontAndBack
    {
        type            empty;
    }
}


// ************************************************************************* //
