/*--------------------------------*- C++ -*----------------------------------*\
  =========                 |
  \\      /  F ield         | OpenFOAM: The Open Source CFD Toolbox
   \\    /   O peration     | Website:  https://openfoam.org
    \\  /    A nd           | Version:  6.0
     \\/     M anipulation  |
\*---------------------------------------------------------------------------*/
FoamFile
{
    version     2.0;
    format      ascii;
    class       surfaceScalarField;
    location    "0.4";
    object      phi;
}
// * * * * * * * * * * * * * * * * * * * * * * * * * * * * * * * * * * * * * //

dimensions      [0 3 -1 0 0 0 0];

internalField   nonuniform List<scalar> 
1540
(
5.89702e-09
-5.89684e-09
1.13341e-08
-5.43709e-09
1.20382e-08
-7.04231e-10
8.20966e-09
3.82882e-09
1.28444e-09
6.92543e-09
-7.36288e-09
8.64727e-09
-1.68444e-08
9.48143e-09
-2.6789e-08
9.94461e-09
-3.72264e-08
1.04376e-08
-4.84699e-08
1.12436e-08
-6.10501e-08
1.25802e-08
-7.57079e-08
1.46578e-08
-9.34337e-08
1.77259e-08
-1.15536e-07
2.21027e-08
-1.43728e-07
2.81921e-08
-1.80222e-07
3.64943e-08
-2.27832e-07
4.76101e-08
-2.90063e-07
6.22303e-08
-3.71151e-07
8.10881e-08
-4.7599e-07
1.04839e-07
-6.09804e-07
1.33813e-07
-7.77399e-07
1.67595e-07
-9.81823e-07
2.04424e-07
-1.22235e-06
2.4053e-07
-1.49202e-06
2.69667e-07
-1.7753e-06
2.83283e-07
-2.04702e-06
2.71715e-07
-2.27349e-06
2.26472e-07
-2.4166e-06
1.43107e-07
-2.4404e-06
2.38037e-08
-2.31942e-06
-1.20984e-07
-2.04724e-06
-2.72177e-07
-1.64385e-06
-4.0339e-07
-1.15913e-06
-4.84716e-07
-6.6864e-07
-4.90495e-07
-2.57576e-07
-4.11063e-07
6.64032e-09
-2.64217e-07
1.02663e-07
-9.60231e-08
6.79004e-08
3.47631e-08
6.79002e-08
5.50036e-09
-1.13973e-08
4.99998e-09
-4.93687e-09
-6.22058e-09
1.0516e-08
-2.73281e-08
2.49363e-08
-5.57044e-08
3.53022e-08
-8.87689e-08
4.17122e-08
-1.24763e-07
4.54755e-08
-1.62922e-07
4.81034e-08
-2.03359e-07
5.08744e-08
-2.46903e-07
5.47879e-08
-2.95014e-07
6.06908e-08
-3.49797e-07
6.94407e-08
-4.14111e-07
8.20402e-08
-4.9173e-07
9.97226e-08
-5.87533e-07
1.23995e-07
-7.07673e-07
1.56634e-07
-8.59686e-07
1.99623e-07
-1.05243e-06
2.54974e-07
-1.29569e-06
3.2435e-07
-1.59923e-06
4.08376e-07
-1.97095e-06
5.05535e-07
-2.41404e-06
6.10689e-07
-2.92319e-06
7.13568e-07
-3.48066e-06
7.98007e-07
-4.05394e-06
8.42947e-07
-4.59648e-06
8.25824e-07
-5.05254e-06
7.27767e-07
-5.36493e-06
5.38869e-07
-5.48353e-06
2.61704e-07
-5.37233e-06
-8.73935e-08
-5.01496e-06
-4.78357e-07
-4.41947e-06
-8.67667e-07
-3.62361e-06
-1.19925e-06
-2.69967e-06
-1.40865e-06
-1.75499e-06
-1.43518e-06
-9.19968e-07
-1.24609e-06
-3.15362e-07
-8.68823e-07
-2.09055e-09
-4.09294e-07
5.7373e-08
-2.47005e-08
1.25273e-07
-1.13739e-09
-1.026e-08
-1.68798e-08
1.08059e-08
-4.90713e-08
4.27075e-08
-9.50325e-08
7.08973e-08
-1.50933e-07
9.1203e-08
-2.13436e-07
1.04215e-07
-2.80392e-07
1.12431e-07
-3.50964e-07
1.18676e-07
-4.25498e-07
1.25408e-07
-5.05368e-07
1.34658e-07
-5.92924e-07
1.48248e-07
-6.91564e-07
1.68081e-07
-8.05896e-07
1.96373e-07
-9.41957e-07
2.35783e-07
-1.10741e-06
2.89452e-07
-1.31167e-06
3.60894e-07
-1.56575e-06
4.53703e-07
-1.88172e-06
5.70936e-07
-2.27138e-06
7.14008e-07
-2.74399e-06
8.80986e-07
-3.30279e-06
1.06433e-06
-3.94075e-06
1.24865e-06
-4.63674e-06
1.40956e-06
-5.35395e-06
1.51521e-06
-6.04224e-06
1.53124e-06
-6.64454e-06
1.42812e-06
-7.10501e-06
1.18824e-06
-7.37608e-06
8.09938e-07
-7.42217e-06
3.07797e-07
-7.22058e-06
-2.88981e-07
-6.76144e-06
-9.37495e-07
-6.04932e-06
-1.57979e-06
-5.10859e-06
-2.13998e-06
-3.99333e-06
-2.52392e-06
-2.79894e-06
-2.62957e-06
-1.66613e-06
-2.37889e-06
-7.58937e-07
-1.77602e-06
-2.00573e-07
-9.67657e-07
6.91135e-09
-2.32185e-07
1.32185e-07
-1.06777e-08
4.17415e-10
-4.69558e-08
4.70841e-08
-1.0575e-07
1.01502e-07
-1.81437e-07
1.46584e-07
-2.68594e-07
1.78359e-07
-3.63163e-07
1.98784e-07
-4.62799e-07
2.12067e-07
-5.66783e-07
2.2266e-07
-6.75804e-07
2.3443e-07
-7.91808e-07
2.50663e-07
-9.17985e-07
2.74425e-07
-1.05888e-06
3.08979e-07
-1.22061e-06
3.58097e-07
-1.41102e-06
4.26196e-07
-1.63985e-06
5.18277e-07
-1.91853e-06
6.3958e-07
-2.25967e-06
7.94842e-07
-2.67569e-06
9.86955e-07
-3.17657e-06
1.21489e-06
-3.76652e-06
1.47093e-06
-4.43999e-06
1.73781e-06
-5.17827e-06
1.98693e-06
-5.94829e-06
2.17958e-06
-6.70519e-06
2.27212e-06
-7.39844e-06
2.22449e-06
-7.97935e-06
2.00903e-06
-8.40696e-06
1.61585e-06
-8.65014e-06
1.05312e-06
-8.6863e-06
3.43957e-07
-8.49831e-06
-4.76971e-07
-8.0718e-06
-1.36401e-06
-7.39501e-06
-2.25657e-06
-6.46402e-06
-3.07097e-06
-5.2959e-06
-3.69204e-06
-3.95109e-06
-3.97437e-06
-2.55866e-06
-3.77132e-06
-1.32133e-06
-3.01335e-06
-4.56053e-07
-1.83293e-06
-5.45943e-08
-6.33644e-07
7.75901e-08
-2.16008e-08
2.20181e-08
-8.12781e-08
1.06761e-07
-1.6969e-07
1.89914e-07
-2.77482e-07
2.54377e-07
-3.97294e-07
2.98171e-07
-5.24288e-07
3.25777e-07
-6.55978e-07
3.43758e-07
-7.91832e-07
3.58514e-07
-9.32908e-07
3.75505e-07
-1.08167e-06
3.99424e-07
-1.24199e-06
4.3475e-07
-1.4193e-06
4.8629e-07
-1.62074e-06
5.59529e-07
-1.85524e-06
6.60699e-07
-2.13347e-06
7.96505e-07
-2.46729e-06
9.73404e-07
-2.86869e-06
1.19624e-06
-3.34784e-06
1.4661e-06
-3.91027e-06
1.77732e-06
-4.55356e-06
2.11422e-06
-5.26429e-06
2.44854e-06
-6.01685e-06
2.73949e-06
-6.77517e-06
2.9379e-06
-7.49763e-06
2.99458e-06
-8.14343e-06
2.87029e-06
-8.67792e-06
2.54353e-06
-9.07491e-06
2.01283e-06
-9.3158e-06
1.29401e-06
-9.38658e-06
4.14739e-07
-9.27353e-06
-5.90017e-07
-8.95864e-06
-1.67891e-06
-8.4163e-06
-2.79892e-06
-7.61459e-06
-3.87268e-06
-6.52641e-06
-4.78021e-06
-5.1566e-06
-5.34419e-06
-3.58724e-06
-5.34068e-06
-2.02531e-06
-4.57528e-06
-7.89324e-07
-3.06892e-06
-1.31625e-07
-1.29134e-06
-5.40352e-08
-3.32098e-08
5.52279e-08
-1.17596e-07
1.91147e-07
-2.36755e-07
3.09073e-07
-3.77084e-07
3.94706e-07
-5.29055e-07
4.50142e-07
-6.86977e-07
4.83698e-07
-8.48218e-07
5.04999e-07
-1.01241e-06
5.22711e-07
-1.18092e-06
5.44011e-07
-1.35656e-06
5.75068e-07
-1.54364e-06
6.21821e-07
-1.74799e-06
6.9064e-07
-1.97711e-06
7.88654e-07
-2.24008e-06
9.23669e-07
-2.54718e-06
1.1036e-06
-2.90908e-06
1.3353e-06
-3.33538e-06
1.62254e-06
-3.83247e-06
1.9632e-06
-4.40093e-06
2.34578e-06
-5.03294e-06
2.74623e-06
-5.71091e-06
3.12651e-06
-6.40817e-06
3.43675e-06
-7.0922e-06
3.62193e-06
-7.72952e-06
3.63189e-06
-8.29045e-06
3.43123e-06
-8.75221e-06
3.00528e-06
-9.09972e-06
2.36034e-06
-9.32463e-06
1.51892e-06
-9.42266e-06
5.12773e-07
-9.38877e-06
-6.23913e-07
-9.21005e-06
-1.85762e-06
-8.85773e-06
-3.15124e-06
-8.28174e-06
-4.44868e-06
-7.41451e-06
-5.64744e-06
-6.1942e-06
-6.56451e-06
-4.61929e-06
-6.91558e-06
-2.83742e-06
-6.35715e-06
-1.21947e-06
-4.68687e-06
-2.34811e-07
-2.276e-06
-2.88846e-07
-4.51861e-08
1.00414e-07
-1.54726e-07
3.00687e-07
-3.04571e-07
4.58918e-07
-4.76535e-07
5.6667e-07
-6.58792e-07
6.32398e-07
-8.44765e-07
6.69672e-07
-1.03165e-06
6.91886e-07
-1.21919e-06
7.10246e-07
-1.40888e-06
7.33701e-07
-1.60367e-06
7.69854e-07
-1.80787e-06
8.26021e-07
-2.0272e-06
9.09971e-07
-2.26873e-06
1.03019e-06
-2.54067e-06
1.1956e-06
-2.85173e-06
1.41466e-06
-3.21017e-06
1.69374e-06
-3.62226e-06
2.03464e-06
-4.09041e-06
2.43134e-06
-4.61113e-06
2.8665e-06
-5.17371e-06
3.30881e-06
-5.76003e-06
3.71284e-06
-6.34633e-06
4.02305e-06
-6.90639e-06
4.18198e-06
-7.41533e-06
4.14084e-06
-7.85292e-06
3.86881e-06
-8.20554e-06
3.35791e-06
-8.46731e-06
2.62211e-06
-8.64001e-06
1.69162e-06
-8.7311e-06
6.03861e-07
-8.74857e-06
-6.06444e-07
-8.69203e-06
-1.91416e-06
-8.54074e-06
-3.30253e-06
-8.24127e-06
-4.74815e-06
-7.70123e-06
-6.18747e-06
-6.80058e-06
-7.46516e-06
-5.43934e-06
-8.27683e-06
-3.64532e-06
-8.15116e-06
-1.73764e-06
-6.59456e-06
-3.74763e-07
-3.63888e-06
-6.63609e-07
-5.74783e-08
1.57893e-07
-1.9232e-07
4.35529e-07
-3.7223e-07
6.38828e-07
-5.7416e-07
7.686e-07
-7.83948e-07
8.42186e-07
-9.94166e-07
8.7989e-07
-1.20184e-06
8.99559e-07
-1.40672e-06
9.15124e-07
-1.61027e-06
9.37259e-07
-1.81527e-06
9.7485e-07
-2.02561e-06
1.03636e-06
-2.24628e-06
1.13064e-06
-2.48319e-06
1.26711e-06
-2.74283e-06
1.45524e-06
-3.03152e-06
1.70335e-06
-3.35448e-06
2.01671e-06
-3.71453e-06
2.39469e-06
-4.1107e-06
2.82751e-06
-4.53709e-06
3.29289e-06
-4.98248e-06
3.75419e-06
-5.431e-06
4.16136e-06
-5.86404e-06
4.45608e-06
-6.26277e-06
4.58071e-06
-6.61081e-06
4.48889e-06
-6.89636e-06
4.15436e-06
-7.1139e-06
3.57544e-06
-7.26553e-06
2.77374e-06
-7.36149e-06
1.78759e-06
-7.4188e-06
6.6117e-07
-7.4568e-06
-5.68446e-07
-7.48868e-06
-1.88227e-06
-7.50845e-06
-3.28277e-06
-7.47406e-06
-4.78253e-06
-7.29118e-06
-6.37036e-06
-6.80814e-06
-7.9482e-06
-5.84339e-06
-9.24157e-06
-4.28222e-06
-9.71234e-06
-2.28705e-06
-8.58972e-06
-5.61135e-07
-5.36479e-06
-1.22474e-06
-7.03086e-08
2.28201e-07
-2.30836e-07
5.96056e-07
-4.4017e-07
8.48162e-07
-6.70102e-07
9.98531e-07
-9.0418e-07
1.07626e-06
-1.13426e-06
1.10997e-06
-1.35728e-06
1.12257e-06
-1.57294e-06
1.13079e-06
-1.78253e-06
1.14685e-06
-1.98833e-06
1.18064e-06
-2.1934e-06
1.24143e-06
-2.4015e-06
1.33874e-06
-2.6168e-06
1.48241e-06
-2.8435e-06
1.68194e-06
-3.08517e-06
1.94503e-06
-3.34394e-06
2.27548e-06
-3.61963e-06
2.67037e-06
-3.90897e-06
3.11685e-06
-4.20533e-06
3.58926e-06
-4.49904e-06
4.04791e-06
-4.7785e-06
4.44082e-06
-5.03182e-06
4.7094e-06
-5.2486e-06
4.7975e-06
-5.42148e-06
4.66177e-06
-5.5473e-06
4.28019e-06
-5.6282e-06
3.65634e-06
-5.67249e-06
2.81803e-06
-5.69514e-06
1.81023e-06
-5.71692e-06
6.8295e-07
-5.76181e-06
-5.23559e-07
-5.85127e-06
-1.79281e-06
-5.99363e-06
-3.14041e-06
-6.16669e-06
-4.60947e-06
-6.29479e-06
-6.24226e-06
-6.22793e-06
-8.01506e-06
-5.74247e-06
-9.72703e-06
-4.60421e-06
-1.08506e-05
-2.76982e-06
-1.04241e-05
-7.97179e-07
-7.33743e-06
-2.02192e-06
-8.42516e-08
3.12453e-07
-2.71628e-07
7.83433e-07
-5.10197e-07
1.08673e-06
-7.66189e-07
1.25452e-06
-1.02105e-06
1.33113e-06
-1.26624e-06
1.35517e-06
-1.4988e-06
1.35512e-06
-1.71846e-06
1.35045e-06
-1.92622e-06
1.3546e-06
-2.12363e-06
1.37806e-06
-2.31264e-06
1.43044e-06
-2.49536e-06
1.52146e-06
-2.6739e-06
1.66095e-06
-2.84996e-06
1.858e-06
-3.02437e-06
2.11944e-06
-3.19655e-06
2.44766e-06
-3.36411e-06
2.83793e-06
-3.5227e-06
3.27544e-06
-3.66644e-06
3.73299e-06
-3.78875e-06
4.17021e-06
-3.88366e-06
4.53574e-06
-3.94718e-06
4.77291e-06
-3.97821e-06
4.82853e-06
-3.97909e-06
4.66265e-06
-3.95565e-06
4.25675e-06
-3.91718e-06
3.61787e-06
-3.87636e-06
2.77721e-06
-3.84912e-06
1.78299e-06
-3.85434e-06
6.88173e-07
-3.91325e-06
-4.64654e-07
-4.04738e-06
-1.65868e-06
-4.27268e-06
-2.9151e-06
-4.58593e-06
-4.29622e-06
-4.94077e-06
-5.88742e-06
-5.21596e-06
-7.73987e-06
-5.1898e-06
-9.75319e-06
-4.55863e-06
-1.14818e-05
-3.08857e-06
-1.18942e-05
-1.06688e-06
-9.35912e-06
-3.0888e-06
-1.00394e-07
4.12847e-07
-3.17199e-07
1.00024e-06
-5.85629e-07
1.35516e-06
-8.65851e-07
1.53475e-06
-1.13767e-06
1.60294e-06
-1.39275e-06
1.61025e-06
-1.62868e-06
1.59105e-06
-1.84544e-06
1.56722e-06
-2.04375e-06
1.55291e-06
-2.22438e-06
1.55869e-06
-2.38796e-06
1.59401e-06
-2.53481e-06
1.66832e-06
-2.66486e-06
1.791e-06
-2.77737e-06
1.97051e-06
-2.87073e-06
2.21279e-06
-2.94224e-06
2.51918e-06
-2.9882e-06
2.88389e-06
-3.00427e-06
3.29151e-06
-2.98636e-06
3.71508e-06
-2.93191e-06
4.11576e-06
-2.84123e-06
4.44505e-06
-2.71851e-06
4.6502e-06
-2.57214e-06
4.68216e-06
-2.41414e-06
4.50465e-06
-2.2591e-06
4.10171e-06
-2.12284e-06
3.4816e-06
-2.02115e-06
2.67553e-06
-1.96904e-06
1.73088e-06
-1.98058e-06
6.99714e-07
-2.06974e-06
-3.75492e-07
-2.25138e-06
-1.47704e-06
-2.54029e-06
-2.62619e-06
-2.94416e-06
-3.89236e-06
-3.44464e-06
-5.38694e-06
-3.96297e-06
-7.22154e-06
-4.31454e-06
-9.40161e-06
-4.18079e-06
-1.16155e-05
-3.18984e-06
-1.28851e-05
-1.33042e-06
-1.12185e-05
-4.41922e-06
-1.20652e-07
5.33499e-07
-3.7168e-07
1.25127e-06
-6.71603e-07
1.65508e-06
-9.74042e-07
1.83718e-06
-1.25815e-06
1.88705e-06
-1.51693e-06
1.86902e-06
-1.74926e-06
1.82338e-06
-1.95579e-06
1.77375e-06
-2.13718e-06
1.7343e-06
-2.29351e-06
1.71503e-06
-2.42415e-06
1.72465e-06
-2.52769e-06
1.77186e-06
-2.60197e-06
1.86528e-06
-2.64405e-06
2.01259e-06
-2.65028e-06
2.21901e-06
-2.61645e-06
2.48535e-06
-2.53828e-06
2.80572e-06
-2.41217e-06
3.16541e-06
-2.23644e-06
3.53935e-06
-2.01274e-06
3.89206e-06
-1.74741e-06
4.17972e-06
-1.45222e-06
4.355e-06
-1.14409e-06
4.37403e-06
-8.43774e-07
4.20433e-06
-5.73655e-07
3.83159e-06
-3.55323e-07
3.26327e-06
-2.07311e-07
2.52752e-06
-1.43636e-07
1.6672e-06
-1.73615e-07
7.29693e-07
-3.03201e-07
-2.45906e-07
-5.37607e-07
-1.24264e-06
-8.83975e-07
-2.27982e-06
-1.35091e-06
-3.42542e-06
-1.93854e-06
-4.7993e-06
-2.61037e-06
-6.54971e-06
-3.23962e-06
-8.77237e-06
-3.54062e-06
-1.13145e-05
-3.06707e-06
-1.33587e-05
-1.53578e-06
-1.27498e-05
-5.955e-06
-1.48423e-07
6.81922e-07
-4.41747e-07
1.54459e-06
-7.75623e-07
1.98896e-06
-1.09707e-06
2.15864e-06
-1.38671e-06
2.17669e-06
-1.64073e-06
2.12304e-06
-1.86046e-06
2.04312e-06
-2.04789e-06
1.96117e-06
-2.20405e-06
1.89046e-06
-2.32867e-06
1.83965e-06
-2.42018e-06
1.81616e-06
-2.47577e-06
1.82744e-06
-2.49151e-06
1.88103e-06
-2.46264e-06
1.98371e-06
-2.38382e-06
2.14019e-06
-2.24975e-06
2.35128e-06
-2.05594e-06
2.61191e-06
-1.79979e-06
2.90925e-06
-1.48197e-06
3.22153e-06
-1.10792e-06
3.51801e-06
-6.89046e-07
3.76085e-06
-2.43239e-07
3.9092e-06
2.05806e-07
3.92499e-06
6.30482e-07
3.77965e-06
1.00215e-06
3.45992e-06
1.29442e-06
2.97099e-06
1.48614e-06
2.33579e-06
1.5634e-06
1.58994e-06
1.52002e-06
7.73078e-07
1.35625e-06
-8.21379e-08
1.0757e-06
-9.62088e-07
6.8084e-07
-1.88496e-06
1.6871e-07
-2.91329e-06
-4.68154e-07
-4.16244e-06
-1.22568e-06
-5.79219e-06
-2.04034e-06
-7.95771e-06
-2.69533e-06
-1.06595e-05
-2.73106e-06
-1.33229e-05
-1.63583e-06
-1.38451e-05
-7.59083e-06
-1.89947e-07
8.71869e-07
-5.38343e-07
1.89299e-06
-9.08356e-07
2.35897e-06
-1.24197e-06
2.49225e-06
-1.52553e-06
2.46025e-06
-1.76135e-06
2.35886e-06
-1.95478e-06
2.23654e-06
-2.10997e-06
2.11637e-06
-2.22904e-06
2.00953e-06
-2.31203e-06
1.92264e-06
-2.35709e-06
1.86122e-06
-2.36069e-06
1.83104e-06
-2.31781e-06
1.83815e-06
-2.22236e-06
1.88826e-06
-2.06773e-06
1.98556e-06
-1.84766e-06
2.13121e-06
-1.55734e-06
2.32159e-06
-1.19477e-06
2.54668e-06
-7.62215e-07
2.78898e-06
-2.67735e-07
3.02353e-06
2.73799e-07
3.21932e-06
8.40429e-07
3.34257e-06
1.40403e-06
3.36139e-06
1.93251e-06
3.25117e-06
2.39307e-06
2.99936e-06
2.75594e-06
2.60813e-06
2.99773e-06
2.094e-06
3.10391e-06
1.48377e-06
3.06949e-06
8.07489e-07
2.89805e-06
8.93025e-08
2.59859e-06
-6.62622e-07
2.18053e-06
-1.4669e-06
1.64715e-06
-2.37992e-06
9.90345e-07
-3.50563e-06
1.94213e-07
-4.99605e-06
-7.33354e-07
-7.03014e-06
-1.66484e-06
-9.72804e-06
-2.18271e-06
-1.28051e-05
-1.59897e-06
-1.44288e-05
-9.1898e-06
-2.57177e-07
1.12905e-06
-6.7983e-07
2.31564e-06
-1.08425e-06
2.76339e-06
-1.41383e-06
2.82184e-06
-1.66896e-06
2.71537e-06
-1.8623e-06
2.55221e-06
-2.00504e-06
2.37927e-06
-2.10462e-06
2.21595e-06
-2.1652e-06
2.07011e-06
-2.18817e-06
1.9456e-06
-2.17251e-06
1.84557e-06
-2.11506e-06
1.77358e-06
-2.01071e-06
1.7338e-06
-1.85291e-06
1.73046e-06
-1.63434e-06
1.76699e-06
-1.34791e-06
1.84478e-06
-9.88079e-07
1.96176e-06
-5.52434e-07
2.11103e-06
-4.33309e-08
2.27988e-06
5.30611e-07
2.44959e-06
1.1535e-06
2.59643e-06
1.80206e-06
2.69401e-06
2.44664e-06
2.71681e-06
3.05355e-06
2.64426e-06
3.58838e-06
2.46453e-06
4.01982e-06
2.1767e-06
4.32319e-06
1.79063e-06
4.48295e-06
1.324e-06
4.49357e-06
7.96872e-07
4.35851e-06
2.24362e-07
4.08721e-06
-3.91327e-07
3.69019e-06
-1.06987e-06
3.1719e-06
-1.86162e-06
2.52334e-06
-2.85707e-06
1.71765e-06
-4.19036e-06
7.23276e-07
-6.03576e-06
-4.23086e-07
-8.58168e-06
-1.39493e-06
-1.18332e-05
-1.3973e-06
-1.44264e-05
-1.05871e-05
-3.73912e-07
1.50296e-06
-8.97291e-07
2.83902e-06
-1.31888e-06
3.18498e-06
-1.60446e-06
3.10741e-06
-1.78391e-06
2.89483e-06
-1.88597e-06
2.65426e-06
-1.9299e-06
2.4232e-06
-1.92798e-06
2.21404e-06
-1.88782e-06
2.02995e-06
-1.81348e-06
1.87126e-06
-1.70602e-06
1.73811e-06
-1.56385e-06
1.63141e-06
-1.38294e-06
1.5529e-06
-1.15733e-06
1.50486e-06
-8.79758e-07
1.48942e-06
-5.42637e-07
1.50766e-06
-1.39424e-07
1.55855e-06
3.33764e-07
1.63784e-06
8.76397e-07
1.73725e-06
1.48193e-06
1.84405e-06
2.1367e-06
1.94166e-06
2.81968e-06
2.01103e-06
3.50341e-06
2.03307e-06
4.15611e-06
1.99157e-06
4.74478e-06
1.87586e-06
5.23884e-06
1.68264e-06
5.61343e-06
1.41604e-06
5.85177e-06
1.08566e-06
5.94591e-06
7.02738e-07
5.89561e-06
2.74656e-07
5.70526e-06
-2.00971e-07
5.37919e-06
-7.4381e-07
4.91492e-06
-1.39735e-06
4.29626e-06
-2.23842e-06
3.48674e-06
-3.38084e-06
2.4328e-06
-4.98183e-06
1.09979e-06
-7.24867e-06
-3.08995e-07
-1.04245e-05
-9.8557e-07
-1.37499e-05
-1.15727e-05
-5.90726e-07
2.09368e-06
-1.23784e-06
3.48613e-06
-1.60265e-06
3.5498e-06
-1.7381e-06
3.24286e-06
-1.73171e-06
2.88844e-06
-1.63733e-06
2.55988e-06
-1.48546e-06
2.27133e-06
-1.29479e-06
2.02337e-06
-1.0772e-06
1.81235e-06
-8.39645e-07
1.63371e-06
-5.85227e-07
1.4837e-06
-3.13871e-07
1.36005e-06
-2.28079e-08
1.26183e-06
2.93008e-07
1.18904e-06
6.40353e-07
1.14207e-06
1.02693e-06
1.12108e-06
1.46026e-06
1.12522e-06
1.9462e-06
1.15191e-06
2.48733e-06
1.19611e-06
3.08133e-06
1.25005e-06
3.71972e-06
1.30327e-06
4.3873e-06
1.34345e-06
5.0626e-06
1.35777e-06
5.71948e-06
1.33469e-06
6.32958e-06
1.26575e-06
6.86541e-06
1.1468e-06
7.30314e-06
9.78317e-07
7.62468e-06
7.64118e-07
7.81815e-06
5.09264e-07
7.8769e-06
2.15909e-07
7.79611e-06
-1.20178e-07
7.56846e-06
-5.16164e-07
7.17699e-06
-1.00587e-06
6.58933e-06
-1.65076e-06
5.75128e-06
-2.54279e-06
4.59279e-06
-3.82334e-06
3.03708e-06
-5.69296e-06
1.16407e-06
-8.55143e-06
-2.93248e-07
-1.22925e-05
-1.18659e-05
-1.02992e-06
3.1236e-06
-1.6971e-06
4.15331e-06
-1.70654e-06
3.55924e-06
-1.38655e-06
2.92287e-06
-9.41169e-07
2.44306e-06
-4.49517e-07
2.06823e-06
5.66249e-08
1.76519e-06
5.59878e-07
1.52011e-06
1.05063e-06
1.3216e-06
1.52478e-06
1.15956e-06
1.98187e-06
1.0266e-06
2.42399e-06
9.1793e-07
2.85524e-06
8.30587e-07
3.28145e-06
7.62824e-07
3.70992e-06
7.13603e-07
4.14888e-06
6.8212e-07
4.60679e-06
6.67314e-07
5.09131e-06
6.67388e-07
5.60803e-06
6.79394e-07
6.15911e-06
6.98973e-07
6.74201e-06
7.20361e-07
7.34876e-06
7.36705e-07
7.96578e-06
7.40748e-07
8.57476e-06
7.25708e-07
9.1542e-06
6.86319e-07
9.68158e-06
6.19421e-07
1.01355e-05
5.24393e-07
1.04974e-05
4.02237e-07
1.07518e-05
2.54863e-07
1.08856e-05
8.20596e-08
1.0885e-05
-1.19525e-07
1.07307e-05
-3.61892e-07
1.03904e-05
-6.65572e-07
9.81094e-06
-1.0713e-06
8.90878e-06
-1.64062e-06
7.57812e-06
-2.49267e-06
5.70476e-06
-3.8196e-06
3.24455e-06
-6.09121e-06
7.8884e-07
-9.83684e-06
-1.10771e-05
-1.894e-06
5.0176e-06
-1.23861e-06
3.49792e-06
1.67885e-07
2.15275e-06
1.47044e-06
1.62032e-06
2.62065e-06
1.29285e-06
3.65311e-06
1.03577e-06
4.58055e-06
8.37753e-07
5.41183e-06
6.88834e-07
6.15803e-06
5.75393e-07
6.83063e-06
4.86966e-07
7.44021e-06
4.17014e-07
7.99663e-06
3.61517e-07
8.50933e-06
3.17881e-07
8.98777e-06
2.84391e-07
9.44148e-06
2.59887e-07
9.88011e-06
2.4349e-07
1.03131e-05
2.34361e-07
1.0749e-05
2.31469e-07
1.1195e-05
2.33421e-07
1.16556e-05
2.38349e-07
1.2132e-05
2.43918e-07
1.26213e-05
2.47432e-07
1.31159e-05
2.46109e-07
1.36043e-05
2.37374e-07
1.40713e-05
2.19287e-07
1.45e-05
1.90689e-07
1.4873e-05
1.51455e-07
1.51733e-05
1.0194e-07
1.53852e-05
4.29544e-08
1.54931e-05
-2.59091e-08
1.54796e-05
-1.0596e-07
1.53203e-05
-2.02647e-07
1.49782e-05
-3.2341e-07
1.43916e-05
-4.84697e-07
1.34595e-05
-7.08521e-07
1.20209e-05
-1.05413e-06
9.86226e-06
-1.66095e-06
6.73654e-06
-2.96549e-06
2.73216e-06
-5.83247e-06
-8.34492e-06
5.0176e-06
8.51553e-06
1.06683e-05
1.22886e-05
1.35814e-05
1.46172e-05
1.5455e-05
1.61438e-05
1.67192e-05
1.72062e-05
1.76232e-05
1.79847e-05
1.83026e-05
1.8587e-05
1.88468e-05
1.90903e-05
1.93247e-05
1.95562e-05
1.97896e-05
2.00279e-05
2.02719e-05
2.05193e-05
2.07654e-05
2.10028e-05
2.12221e-05
2.14127e-05
2.15642e-05
2.16661e-05
2.17091e-05
2.16832e-05
2.15772e-05
2.13746e-05
2.10512e-05
2.05665e-05
1.98579e-05
1.88038e-05
1.71429e-05
1.41774e-05
8.34492e-06
)
;

boundaryField
{
    movingWall
    {
        type            calculated;
        value           uniform 0;
    }
    fixedWalls
    {
        type            calculated;
        value           uniform 0;
    }
    frontAndBack
    {
        type            empty;
        value           nonuniform 0();
    }
}


// ************************************************************************* //
