1.45 	0 	0 	-0.0940192
2.35 	0 	0 	0.0303288
