1.45 	0 	0 	0.580121 	-0.0209102 	5.70117e-21
2.35 	0 	0 	0.793659 	-0.00769093 	-4.20292e-21
