/*--------------------------------*- C++ -*----------------------------------*\
  =========                 |
  \\      /  F ield         | OpenFOAM: The Open Source CFD Toolbox
   \\    /   O peration     | Website:  https://openfoam.org
    \\  /    A nd           | Version:  6.0
     \\/     M anipulation  |
\*---------------------------------------------------------------------------*/
FoamFile
{
    version     2.0;
    format      ascii;
    class       volScalarField;
    location    "0.8";
    object      p;
}
// * * * * * * * * * * * * * * * * * * * * * * * * * * * * * * * * * * * * * //

dimensions      [0 2 -2 0 0 0 0];

internalField   nonuniform List<scalar> 
34500
(
1.00571
1.00574
1.00556
1.00523
1.00478
1.00425
1.00367
1.00307
1.00249
1.00193
1.00143
1.001
1.00062
1.00037
1.00022
1.00572
1.00577
1.00565
1.00539
1.00501
1.00455
1.00402
1.00346
1.00288
1.0023
1.00175
1.00125
1.0008
1.00049
1.00027
1.00572
1.00576
1.00562
1.00533
1.00491
1.00441
1.00385
1.00327
1.00268
1.00211
1.00157
1.0011
1.00069
1.00042
1.00021
1.00572
1.00575
1.00559
1.00528
1.00484
1.00432
1.00374
1.00314
1.00255
1.00198
1.00147
1.00102
1.00064
1.0004
1.00022
1.00573
1.00576
1.00561
1.0053
1.00488
1.00436
1.00378
1.00319
1.0026
1.00204
1.00152
1.00107
1.00068
1.00043
1.00025
1.00574
1.00578
1.00563
1.00534
1.00493
1.00442
1.00386
1.00327
1.00268
1.00211
1.00158
1.00112
1.00072
1.00045
1.00025
1.00575
1.00579
1.00565
1.00536
1.00496
1.00446
1.0039
1.00331
1.00272
1.00214
1.00161
1.00114
1.00072
1.00045
1.00024
1.00576
1.0058
1.00566
1.00538
1.00497
1.00448
1.00392
1.00333
1.00273
1.00216
1.00161
1.00114
1.00072
1.00044
1.00023
1.00577
1.00581
1.00567
1.00539
1.00499
1.00449
1.00393
1.00335
1.00275
1.00217
1.00162
1.00114
1.00072
1.00044
1.00022
1.00578
1.00582
1.00569
1.00541
1.00501
1.00451
1.00395
1.00336
1.00276
1.00217
1.00162
1.00114
1.00071
1.00043
1.00021
1.00579
1.00584
1.0057
1.00543
1.00502
1.00453
1.00396
1.00337
1.00277
1.00218
1.00162
1.00114
1.00071
1.00042
1.00021
1.00581
1.00586
1.00572
1.00545
1.00504
1.00454
1.00398
1.00339
1.00278
1.00219
1.00163
1.00114
1.00071
1.00041
1.0002
1.00582
1.00587
1.00574
1.00547
1.00507
1.00457
1.004
1.00341
1.0028
1.0022
1.00164
1.00115
1.00071
1.00041
1.00019
1.00584
1.00589
1.00576
1.00549
1.00509
1.0046
1.00403
1.00343
1.00282
1.00222
1.00166
1.00116
1.00072
1.00041
1.00018
1.00586
1.00591
1.00579
1.00552
1.00513
1.00463
1.00406
1.00346
1.00285
1.00224
1.00167
1.00117
1.00072
1.0004
1.00016
1.00588
1.00594
1.00581
1.00555
1.00516
1.00466
1.0041
1.00349
1.00287
1.00227
1.00169
1.00118
1.00072
1.00039
1.00014
1.0059
1.00596
1.00584
1.00558
1.00519
1.00469
1.00413
1.00352
1.0029
1.00228
1.0017
1.00118
1.00072
1.00038
1.00013
1.00592
1.00598
1.00586
1.00561
1.00522
1.00472
1.00416
1.00355
1.00292
1.0023
1.00171
1.00118
1.00072
1.00037
1.00011
1.00595
1.00601
1.00589
1.00563
1.00524
1.00475
1.00418
1.00357
1.00293
1.00231
1.00171
1.00118
1.00071
1.00035
1.00009
1.00597
1.00603
1.00592
1.00566
1.00527
1.00477
1.0042
1.00359
1.00295
1.00232
1.00172
1.00118
1.0007
1.00034
1.00007
1.006
1.00606
1.00595
1.00569
1.0053
1.0048
1.00423
1.00361
1.00296
1.00233
1.00172
1.00117
1.00069
1.00033
1.00005
1.00603
1.00609
1.00598
1.00572
1.00533
1.00483
1.00425
1.00363
1.00298
1.00234
1.00173
1.00117
1.00069
1.00031
1.00003
1.00605
1.00612
1.00601
1.00575
1.00536
1.00486
1.00428
1.00365
1.003
1.00235
1.00173
1.00118
1.00068
1.0003
1
1.00609
1.00616
1.00604
1.00579
1.0054
1.00489
1.00431
1.00368
1.00302
1.00237
1.00174
1.00118
1.00067
1.00028
0.999981
1.00612
1.00619
1.00608
1.00582
1.00543
1.00493
1.00434
1.00371
1.00304
1.00238
1.00175
1.00118
1.00067
1.00027
0.999957
1.00615
1.00622
1.00611
1.00586
1.00547
1.00496
1.00438
1.00373
1.00306
1.0024
1.00176
1.00117
1.00066
1.00025
0.999932
1.00619
1.00626
1.00615
1.0059
1.00551
1.005
1.00441
1.00376
1.00308
1.00241
1.00176
1.00117
1.00065
1.00023
0.999906
1.00622
1.0063
1.00619
1.00594
1.00554
1.00503
1.00444
1.00379
1.0031
1.00242
1.00176
1.00117
1.00063
1.00021
0.999879
1.00626
1.00634
1.00623
1.00598
1.00558
1.00507
1.00447
1.00381
1.00312
1.00243
1.00177
1.00116
1.00062
1.00019
0.999852
1.0063
1.00638
1.00627
1.00602
1.00562
1.00511
1.0045
1.00384
1.00314
1.00244
1.00177
1.00115
1.00061
1.00017
0.999824
1.00634
1.00642
1.00632
1.00606
1.00566
1.00514
1.00453
1.00386
1.00316
1.00245
1.00177
1.00115
1.00059
1.00015
0.999795
1.00638
1.00647
1.00636
1.00611
1.00571
1.00518
1.00457
1.00389
1.00318
1.00247
1.00178
1.00114
1.00058
1.00012
0.999766
1.00642
1.00651
1.00641
1.00615
1.00575
1.00522
1.0046
1.00392
1.0032
1.00248
1.00178
1.00114
1.00056
1.0001
0.999735
1.00647
1.00656
1.00645
1.0062
1.0058
1.00527
1.00464
1.00395
1.00322
1.00249
1.00178
1.00113
1.00055
1.00008
0.999703
1.00651
1.00661
1.0065
1.00625
1.00584
1.00531
1.00468
1.00398
1.00325
1.0025
1.00179
1.00112
1.00053
1.00005
0.99967
1.00656
1.00665
1.00655
1.0063
1.00589
1.00535
1.00472
1.00401
1.00327
1.00252
1.00179
1.00112
1.00051
1.00002
0.999635
1.00661
1.00671
1.0066
1.00635
1.00594
1.0054
1.00476
1.00404
1.00329
1.00253
1.00179
1.00111
1.00049
0.999994
0.9996
1.00666
1.00676
1.00666
1.0064
1.00599
1.00544
1.00479
1.00407
1.00331
1.00254
1.00179
1.00109
1.00047
0.999965
0.999564
1.00671
1.00681
1.00671
1.00645
1.00604
1.00549
1.00483
1.0041
1.00333
1.00255
1.00179
1.00108
1.00045
0.999935
0.999526
1.00676
1.00687
1.00677
1.00651
1.00609
1.00553
1.00487
1.00413
1.00335
1.00256
1.00178
1.00107
1.00043
0.999904
0.999488
1.00682
1.00692
1.00682
1.00656
1.00614
1.00558
1.00491
1.00416
1.00337
1.00257
1.00178
1.00106
1.00041
0.999872
0.999449
1.00688
1.00698
1.00688
1.00662
1.00619
1.00563
1.00495
1.00419
1.00339
1.00258
1.00178
1.00105
1.00038
0.999839
0.999408
1.00693
1.00704
1.00694
1.00668
1.00625
1.00568
1.00499
1.00423
1.00341
1.00259
1.00178
1.00103
1.00036
0.999805
0.999366
1.00699
1.0071
1.007
1.00674
1.0063
1.00573
1.00503
1.00426
1.00343
1.0026
1.00178
1.00102
1.00033
0.99977
0.999323
1.00706
1.00717
1.00707
1.0068
1.00636
1.00578
1.00508
1.00429
1.00346
1.00261
1.00177
1.001
1.00031
0.999733
0.999279
1.00712
1.00723
1.00713
1.00686
1.00642
1.00583
1.00512
1.00433
1.00348
1.00262
1.00177
1.00099
1.00028
0.999696
0.999233
1.00718
1.0073
1.0072
1.00693
1.00648
1.00588
1.00517
1.00436
1.0035
1.00262
1.00177
1.00097
1.00025
0.999657
0.999186
1.00725
1.00737
1.00727
1.00699
1.00654
1.00594
1.00521
1.0044
1.00352
1.00263
1.00176
1.00095
1.00022
0.999618
0.999138
1.00732
1.00744
1.00733
1.00706
1.00661
1.00599
1.00526
1.00443
1.00355
1.00264
1.00176
1.00093
1.00019
0.999576
0.999089
1.00739
1.00751
1.00741
1.00713
1.00667
1.00605
1.00531
1.00447
1.00357
1.00265
1.00175
1.00092
1.00016
0.999534
0.999038
1.00746
1.00758
1.00748
1.0072
1.00674
1.00611
1.00536
1.0045
1.00359
1.00266
1.00175
1.0009
1.00013
0.99949
0.998985
1.00753
1.00766
1.00755
1.00727
1.0068
1.00617
1.00541
1.00454
1.00362
1.00267
1.00174
1.00088
1.00009
0.999446
0.998931
1.0076
1.00773
1.00763
1.00735
1.00687
1.00623
1.00546
1.00458
1.00364
1.00268
1.00174
1.00085
1.00006
0.999399
0.998875
1.00768
1.00781
1.00771
1.00742
1.00694
1.00629
1.00551
1.00462
1.00367
1.00269
1.00173
1.00083
1.00002
0.999351
0.998818
1.00776
1.00789
1.00779
1.0075
1.00702
1.00636
1.00556
1.00466
1.00369
1.0027
1.00172
1.00081
0.999983
0.999301
0.998759
1.00784
1.00797
1.00787
1.00758
1.00709
1.00642
1.00561
1.0047
1.00371
1.00271
1.00171
1.00078
0.999944
0.99925
0.998699
1.00792
1.00806
1.00795
1.00766
1.00716
1.00649
1.00567
1.00474
1.00374
1.00271
1.0017
1.00076
0.999903
0.999198
0.998636
1.008
1.00814
1.00804
1.00774
1.00724
1.00655
1.00572
1.00478
1.00376
1.00272
1.00169
1.00073
0.999862
0.999144
0.998573
1.00809
1.00823
1.00813
1.00783
1.00732
1.00662
1.00578
1.00482
1.00379
1.00273
1.00168
1.0007
0.999819
0.999089
0.998507
1.00817
1.00832
1.00821
1.00791
1.0074
1.00669
1.00583
1.00486
1.00381
1.00273
1.00167
1.00068
0.999776
0.999032
0.99844
1.00826
1.00841
1.0083
1.008
1.00748
1.00676
1.00589
1.0049
1.00384
1.00274
1.00166
1.00065
0.99973
0.998973
0.998371
1.00836
1.00851
1.0084
1.00809
1.00756
1.00683
1.00595
1.00495
1.00386
1.00275
1.00165
1.00062
0.999684
0.998913
0.9983
1.00845
1.0086
1.00849
1.00818
1.00764
1.00691
1.00601
1.00499
1.00389
1.00275
1.00164
1.00059
0.999636
0.998851
0.998227
1.00854
1.0087
1.00859
1.00827
1.00773
1.00698
1.00607
1.00504
1.00392
1.00276
1.00162
1.00055
0.999587
0.998788
0.998152
1.00864
1.0088
1.00869
1.00837
1.00782
1.00706
1.00614
1.00508
1.00394
1.00277
1.00161
1.00052
0.999536
0.998722
0.998075
1.00874
1.0089
1.00879
1.00847
1.00791
1.00714
1.0062
1.00513
1.00397
1.00277
1.00159
1.00049
0.999484
0.998656
0.997997
1.00884
1.00901
1.00889
1.00857
1.008
1.00722
1.00626
1.00518
1.004
1.00278
1.00158
1.00045
0.99943
0.998586
0.997916
1.00895
1.00911
1.009
1.00867
1.00809
1.0073
1.00633
1.00522
1.00402
1.00279
1.00156
1.00042
0.999375
0.998516
0.997833
1.00905
1.00922
1.00911
1.00877
1.00819
1.00738
1.0064
1.00527
1.00405
1.00279
1.00155
1.00038
0.999318
0.998443
0.997747
1.00916
1.00933
1.00922
1.00888
1.00828
1.00747
1.00647
1.00532
1.00408
1.0028
1.00153
1.00034
0.999259
0.998368
0.99766
1.00927
1.00945
1.00933
1.00899
1.00838
1.00755
1.00654
1.00537
1.00411
1.0028
1.00151
1.0003
0.999199
0.998291
0.99757
1.00938
1.00956
1.00944
1.0091
1.00848
1.00764
1.00661
1.00542
1.00414
1.00281
1.00149
1.00026
0.999137
0.998213
0.997479
1.0095
1.00968
1.00956
1.00921
1.00859
1.00773
1.00668
1.00547
1.00416
1.00281
1.00147
1.00021
0.999073
0.998132
0.997384
1.00961
1.0098
1.00968
1.00932
1.00869
1.00782
1.00675
1.00553
1.00419
1.00281
1.00145
1.00017
0.999008
0.998049
0.997287
1.00973
1.00992
1.0098
1.00944
1.0088
1.00792
1.00683
1.00558
1.00422
1.00282
1.00143
1.00012
0.998941
0.997964
0.997188
1.00986
1.01005
1.00992
1.00956
1.00891
1.00801
1.0069
1.00563
1.00425
1.00282
1.00141
1.00008
0.998872
0.997876
0.997086
1.00998
1.01018
1.01005
1.00968
1.00902
1.00811
1.00698
1.00569
1.00428
1.00283
1.00138
1.00003
0.9988
0.997786
0.996982
1.01011
1.01031
1.01018
1.0098
1.00913
1.00821
1.00706
1.00574
1.00431
1.00283
1.00136
0.999979
0.998728
0.997695
0.996875
1.01024
1.01044
1.01031
1.00993
1.00925
1.00831
1.00714
1.0058
1.00434
1.00283
1.00133
0.999927
0.998653
0.9976
0.996765
1.01037
1.01058
1.01044
1.01006
1.00937
1.00841
1.00722
1.00586
1.00437
1.00283
1.00131
0.999874
0.998576
0.997504
0.996653
1.0105
1.01072
1.01058
1.01019
1.00949
1.00851
1.00731
1.00592
1.0044
1.00283
1.00128
0.99982
0.998497
0.997404
0.996538
1.01064
1.01086
1.01072
1.01032
1.00961
1.00862
1.00739
1.00598
1.00443
1.00284
1.00125
0.999764
0.998416
0.997302
0.99642
1.01078
1.011
1.01086
1.01046
1.00973
1.00873
1.00748
1.00604
1.00447
1.00284
1.00122
0.999706
0.998332
0.997198
0.996299
1.01093
1.01115
1.01101
1.0106
1.00986
1.00884
1.00757
1.0061
1.0045
1.00284
1.00119
0.999647
0.998247
0.997091
0.996175
1.01107
1.0113
1.01116
1.01074
1.00999
1.00895
1.00766
1.00616
1.00453
1.00284
1.00116
0.999585
0.998159
0.996981
0.996048
1.01122
1.01145
1.01131
1.01089
1.01013
1.00907
1.00775
1.00623
1.00456
1.00284
1.00113
0.999523
0.998069
0.996869
0.995918
1.01137
1.01161
1.01146
1.01104
1.01026
1.00918
1.00784
1.00629
1.00459
1.00284
1.00109
0.999458
0.997976
0.996753
0.995784
1.01153
1.01177
1.01162
1.01119
1.0104
1.0093
1.00794
1.00635
1.00463
1.00284
1.00106
0.999391
0.997881
0.996635
0.995648
1.01168
1.01193
1.01178
1.01134
1.01054
1.00942
1.00803
1.00642
1.00466
1.00283
1.00102
0.999322
0.997784
0.996513
0.995508
1.01185
1.01209
1.01194
1.0115
1.01068
1.00955
1.00813
1.00649
1.00469
1.00283
1.00099
0.999252
0.997684
0.996389
0.995365
1.01201
1.01226
1.01211
1.01166
1.01083
1.00967
1.00823
1.00656
1.00473
1.00283
1.00095
0.999179
0.997581
0.996261
0.995218
1.01218
1.01244
1.01228
1.01182
1.01098
1.0098
1.00833
1.00663
1.00476
1.00283
1.00091
0.999105
0.997476
0.996131
0.995068
1.01235
1.01261
1.01245
1.01199
1.01113
1.00993
1.00843
1.0067
1.00479
1.00282
1.00087
0.999028
0.997367
0.995997
0.994913
1.01252
1.01279
1.01263
1.01216
1.01129
1.01007
1.00854
1.00677
1.00483
1.00282
1.00082
0.998949
0.997257
0.99586
0.994756
1.0127
1.01297
1.01281
1.01233
1.01144
1.0102
1.00865
1.00684
1.00486
1.00281
1.00078
0.998867
0.997143
0.995719
0.994595
1.01288
1.01316
1.01299
1.01251
1.0116
1.01034
1.00876
1.00692
1.0049
1.00281
1.00073
0.998784
0.997026
0.995576
0.99443
1.01306
1.01335
1.01318
1.01269
1.01177
1.01048
1.00887
1.00699
1.00493
1.0028
1.00068
0.998698
0.996906
0.995428
0.99426
1.01325
1.01354
1.01337
1.01287
1.01194
1.01063
1.00898
1.00707
1.00497
1.00279
1.00063
0.998609
0.996783
0.995277
0.994088
1.01344
1.01374
1.01357
1.01306
1.01211
1.01077
1.00909
1.00714
1.005
1.00278
1.00058
0.998518
0.996657
0.995122
0.99391
1.01364
1.01394
1.01376
1.01325
1.01228
1.01092
1.00921
1.00722
1.00504
1.00277
1.00053
0.998425
0.996528
0.994963
0.993729
1.01383
1.01414
1.01397
1.01344
1.01246
1.01107
1.00933
1.0073
1.00507
1.00276
1.00047
0.998328
0.996395
0.9948
0.993543
1.01404
1.01435
1.01417
1.01364
1.01264
1.01123
1.00945
1.00738
1.00511
1.00275
1.00042
0.99823
0.996259
0.994634
0.993354
1.01424
1.01457
1.01438
1.01384
1.01282
1.01139
1.00957
1.00746
1.00514
1.00274
1.00036
0.998128
0.996119
0.994463
0.993159
1.01445
1.01478
1.0146
1.01405
1.01301
1.01155
1.0097
1.00755
1.00518
1.00273
1.0003
0.998024
0.995977
0.994289
0.99296
1.01467
1.015
1.01482
1.01426
1.0132
1.01171
1.00983
1.00763
1.00522
1.00271
1.00024
0.997916
0.995829
0.99411
0.992756
1.01489
1.01523
1.01504
1.01448
1.0134
1.01188
1.00996
1.00772
1.00525
1.0027
1.00017
0.997805
0.995679
0.993927
0.992548
1.01511
1.01546
1.01527
1.0147
1.0136
1.01205
1.01009
1.0078
1.00529
1.00268
1.0001
0.997691
0.995524
0.993739
0.992335
1.01534
1.01569
1.0155
1.01492
1.0138
1.01223
1.01022
1.00789
1.00532
1.00267
1.00003
0.997574
0.995366
0.993547
0.992117
1.01557
1.01593
1.01574
1.01515
1.01401
1.0124
1.01036
1.00798
1.00536
1.00265
0.999963
0.997454
0.995203
0.99335
0.991894
1.01581
1.01618
1.01598
1.01538
1.01422
1.01258
1.0105
1.00807
1.0054
1.00263
0.999889
0.99733
0.995037
0.993149
0.991666
1.01605
1.01643
1.01623
1.01562
1.01444
1.01277
1.01064
1.00816
1.00543
1.0026
0.999812
0.997203
0.994865
0.992942
0.991432
1.0163
1.01668
1.01648
1.01586
1.01466
1.01296
1.01079
1.00825
1.00547
1.00258
0.999733
0.997072
0.99469
0.992731
0.991194
1.01655
1.01694
1.01674
1.01611
1.01488
1.01315
1.01093
1.00835
1.0055
1.00256
0.99965
0.996937
0.99451
0.992514
0.990949
1.0168
1.0172
1.017
1.01636
1.01511
1.01334
1.01108
1.00844
1.00554
1.00253
0.999565
0.996799
0.994326
0.992293
0.9907
1.01706
1.01747
1.01727
1.01661
1.01535
1.01354
1.01123
1.00854
1.00557
1.0025
0.999477
0.996656
0.994136
0.992066
0.990443
1.01733
1.01775
1.01754
1.01688
1.01559
1.01374
1.01139
1.00863
1.00561
1.00247
0.999386
0.996509
0.993942
0.991834
0.990183
1.0176
1.01803
1.01782
1.01714
1.01583
1.01395
1.01154
1.00873
1.00564
1.00244
0.999291
0.996358
0.993743
0.991595
0.989915
1.01787
1.01831
1.0181
1.01742
1.01608
1.01416
1.0117
1.00883
1.00567
1.00241
0.999194
0.996203
0.993539
0.991352
0.989642
1.01816
1.0186
1.01839
1.01769
1.01633
1.01437
1.01187
1.00893
1.00571
1.00237
0.999093
0.996043
0.993329
0.991102
0.989362
1.01844
1.0189
1.01869
1.01798
1.01659
1.01459
1.01203
1.00903
1.00574
1.00234
0.998989
0.99588
0.993114
0.990847
0.989077
1.01874
1.01921
1.01899
1.01827
1.01685
1.01481
1.0122
1.00914
1.00577
1.0023
0.998881
0.99571
0.992893
0.990585
0.988784
1.01903
1.01951
1.01929
1.01856
1.01712
1.01504
1.01237
1.00924
1.0058
1.00225
0.99877
0.995537
0.992668
0.990318
0.988486
1.01934
1.01983
1.01961
1.01887
1.01739
1.01527
1.01254
1.00935
1.00583
1.00221
0.998653
0.995358
0.992435
0.990044
0.98818
1.01965
1.02015
1.01993
1.01917
1.01767
1.0155
1.01272
1.00945
1.00586
1.00216
0.998534
0.995174
0.992198
0.989764
0.987869
1.01997
1.02048
1.02026
1.01949
1.01796
1.01574
1.0129
1.00956
1.00589
1.00211
0.99841
0.994984
0.991953
0.989476
0.987549
1.02029
1.02082
1.02059
1.01981
1.01825
1.01599
1.01308
1.00967
1.00592
1.00206
0.998282
0.99479
0.991703
0.989182
0.987223
1.02062
1.02116
1.02093
1.02014
1.01854
1.01624
1.01326
1.00977
1.00595
1.002
0.998149
0.994588
0.991445
0.988881
0.986889
1.02095
1.02151
1.02128
1.02047
1.01885
1.01649
1.01345
1.00989
1.00597
1.00194
0.998012
0.994382
0.991182
0.988573
0.986549
1.0213
1.02186
1.02163
1.02081
1.01916
1.01675
1.01364
1.01
1.006
1.00188
0.997869
0.994169
0.990911
0.988257
0.9862
1.02165
1.02222
1.02199
1.02116
1.01947
1.01701
1.01384
1.01011
1.00602
1.00182
0.997722
0.993951
0.990634
0.987934
0.985845
1.022
1.0226
1.02236
1.02151
1.01979
1.01728
1.01403
1.01022
1.00604
1.00175
0.997569
0.993725
0.990349
0.987603
0.98548
1.02237
1.02297
1.02274
1.02188
1.02012
1.01755
1.01423
1.01033
1.00606
1.00167
0.997411
0.993493
0.990057
0.987265
0.985109
1.02274
1.02336
1.02313
1.02225
1.02046
1.01783
1.01444
1.01044
1.00608
1.0016
0.997247
0.993254
0.989757
0.986918
0.984729
1.02312
1.02375
1.02352
1.02263
1.0208
1.01811
1.01464
1.01056
1.00609
1.00152
0.997077
0.993009
0.98945
0.986564
0.984341
1.0235
1.02416
1.02392
1.02301
1.02115
1.0184
1.01485
1.01067
1.00611
1.00143
0.996901
0.992755
0.989134
0.986201
0.983944
1.0239
1.02457
1.02433
1.02341
1.0215
1.0187
1.01506
1.01079
1.00612
1.00134
0.996719
0.992494
0.98881
0.98583
0.983539
1.0243
1.02499
1.02475
1.02381
1.02187
1.019
1.01528
1.0109
1.00612
1.00124
0.99653
0.992225
0.988477
0.985449
0.983124
1.02471
1.02541
1.02518
1.02422
1.02224
1.0193
1.0155
1.01102
1.00613
1.00115
0.996335
0.991949
0.988137
0.98506
0.982702
1.02513
1.02585
1.02562
1.02464
1.02261
1.01961
1.01572
1.01113
1.00613
1.00104
0.996131
0.991664
0.987786
0.984661
0.982269
1.02556
1.0263
1.02606
1.02507
1.023
1.01993
1.01594
1.01125
1.00613
1.00093
0.995921
0.99137
0.987428
0.984254
0.981829
1.02599
1.02675
1.02652
1.02551
1.0234
1.02025
1.01617
1.01136
1.00613
1.00081
0.995703
0.991068
0.987058
0.983836
0.981377
1.02644
1.02722
1.02699
1.02596
1.0238
1.02058
1.0164
1.01148
1.00612
1.00069
0.995478
0.990756
0.986681
0.983409
0.980917
1.02689
1.02769
1.02746
1.02642
1.02421
1.02091
1.01663
1.01159
1.00611
1.00056
0.995243
0.990435
0.986292
0.982971
0.980446
1.02736
1.02818
1.02795
1.02688
1.02463
1.02126
1.01686
1.0117
1.0061
1.00042
0.995
0.990105
0.985894
0.982524
0.979967
1.02783
1.02868
1.02845
1.02736
1.02506
1.0216
1.0171
1.01181
1.00608
1.00028
0.994748
0.989763
0.985484
0.982066
0.979475
1.02832
1.02918
1.02896
1.02785
1.02549
1.02196
1.01734
1.01192
1.00606
1.00013
0.994487
0.989412
0.985065
0.981598
0.978975
1.02881
1.0297
1.02948
1.02835
1.02594
1.02231
1.01758
1.01203
1.00603
0.99997
0.994216
0.98905
0.984634
0.981117
0.978463
1.02932
1.03023
1.03001
1.02886
1.02639
1.02268
1.01783
1.01214
1.00599
0.999804
0.993935
0.988677
0.984192
0.980627
0.977941
1.02983
1.03077
1.03055
1.02938
1.02686
1.02305
1.01808
1.01225
1.00595
0.999628
0.993643
0.988292
0.983738
0.980124
0.977408
1.03036
1.03133
1.03111
1.02991
1.02733
1.02343
1.01833
1.01235
1.00591
0.999445
0.993341
0.987897
0.983272
0.979611
0.976864
1.0309
1.03189
1.03167
1.03046
1.02782
1.02381
1.01858
1.01245
1.00585
0.99925
0.993027
0.987488
0.982793
0.979084
0.976308
1.03145
1.03247
1.03225
1.03102
1.02831
1.02421
1.01884
1.01255
1.0058
0.999047
0.992702
0.987067
0.982303
0.978547
0.975741
1.03201
1.03306
1.03285
1.03159
1.02882
1.0246
1.01909
1.01264
1.00573
0.998832
0.992364
0.986632
0.981799
0.977995
0.975162
1.03258
1.03366
1.03346
1.03217
1.02933
1.02501
1.01935
1.01274
1.00565
0.998608
0.992014
0.986186
0.981282
0.977432
0.974572
1.03317
1.03428
1.03408
1.03277
1.02986
1.02542
1.01961
1.01282
1.00557
0.998371
0.99165
0.985724
0.980751
0.976855
0.973968
1.03377
1.03491
1.03471
1.03338
1.0304
1.02584
1.01987
1.01291
1.00548
0.998123
0.991273
0.985249
0.980207
0.976266
0.973354
1.03438
1.03556
1.03536
1.034
1.03094
1.02626
1.02013
1.01299
1.00538
0.997861
0.990881
0.984758
0.979647
0.975662
0.972725
1.03501
1.03622
1.03603
1.03464
1.0315
1.02669
1.02039
1.01306
1.00527
0.997588
0.990475
0.984253
0.979074
0.975046
0.972086
1.03565
1.0369
1.03671
1.03529
1.03208
1.02713
1.02066
1.01313
1.00515
0.997299
0.990053
0.983732
0.978484
0.974414
0.971432
1.03631
1.03759
1.03741
1.03596
1.03266
1.02758
1.02092
1.01319
1.00501
0.996997
0.989615
0.983195
0.97788
0.973768
0.970765
1.03697
1.0383
1.03812
1.03664
1.03326
1.02803
1.02118
1.01324
1.00487
0.996679
0.989161
0.98264
0.977259
0.973107
0.970085
1.03766
1.03902
1.03886
1.03734
1.03386
1.02849
1.02144
1.01329
1.00471
0.996345
0.98869
0.98207
0.976623
0.972432
0.969392
1.03836
1.03976
1.03961
1.03806
1.03448
1.02895
1.0217
1.01333
1.00454
0.995995
0.9882
0.981481
0.975969
0.971741
0.968684
1.03908
1.04052
1.04037
1.03879
1.03512
1.02942
1.02196
1.01336
1.00435
0.995627
0.987692
0.980874
0.975299
0.971035
0.967963
1.03981
1.0413
1.04116
1.03954
1.03576
1.02989
1.02222
1.01338
1.00415
0.995241
0.987165
0.980248
0.974611
0.970312
0.967226
1.04056
1.0421
1.04196
1.04031
1.03642
1.03038
1.02247
1.01339
1.00394
0.994836
0.986618
0.979604
0.973905
0.969574
0.966477
1.04133
1.04291
1.04279
1.04109
1.0371
1.03086
1.02272
1.01339
1.0037
0.994411
0.98605
0.978938
0.97318
0.968819
0.965712
1.04212
1.04375
1.04364
1.0419
1.03778
1.03136
1.02297
1.01337
1.00345
0.993965
0.985461
0.978253
0.972438
0.968048
0.964933
1.04292
1.0446
1.0445
1.04272
1.03848
1.03185
1.02321
1.01334
1.00318
0.993497
0.984849
0.977546
0.971676
0.967258
0.964138
1.04375
1.04548
1.04539
1.04357
1.0392
1.03235
1.02344
1.0133
1.00289
0.993007
0.984215
0.976819
0.970894
0.966453
0.963329
1.04459
1.04638
1.0463
1.04443
1.03993
1.03286
1.02367
1.01324
1.00257
0.992492
0.983557
0.976068
0.970092
0.965629
0.962503
1.04546
1.0473
1.04724
1.04532
1.04067
1.03337
1.02389
1.01317
1.00224
0.991953
0.982874
0.975295
0.969271
0.964788
0.961663
1.04634
1.04825
1.0482
1.04622
1.04143
1.03388
1.0241
1.01307
1.00188
0.991387
0.982165
0.974498
0.968428
0.963928
0.960806
1.04725
1.04922
1.04918
1.04715
1.0422
1.0344
1.0243
1.01296
1.00149
0.990794
0.981431
0.973678
0.967564
0.963051
0.959934
1.04818
1.05021
1.05019
1.0481
1.04298
1.03491
1.02449
1.01282
1.00108
0.990173
0.980668
0.972832
0.966678
0.962154
0.959045
1.04913
1.05123
1.05123
1.04908
1.04378
1.03543
1.02467
1.01267
1.00064
0.989522
0.979879
0.971961
0.965771
0.961238
0.958141
1.05011
1.05228
1.05229
1.05008
1.0446
1.03595
1.02483
1.01248
1.00017
0.98884
0.979059
0.971064
0.96484
0.960303
0.957219
1.05111
1.05335
1.05338
1.0511
1.04543
1.03647
1.02498
1.01227
0.999667
0.988127
0.97821
0.970141
0.963888
0.959349
0.956282
1.05214
1.05445
1.05451
1.05215
1.04627
1.03698
1.02511
1.01204
0.999131
0.987379
0.977329
0.96919
0.962911
0.958375
0.955326
1.0532
1.05559
1.05566
1.05323
1.04712
1.03749
1.02522
1.01177
0.998562
0.986597
0.976417
0.968212
0.961911
0.957381
0.954355
1.05428
1.05675
1.05684
1.05433
1.04799
1.038
1.02531
1.01147
0.997955
0.985779
0.975472
0.967205
0.960887
0.956366
0.953366
1.05539
1.05794
1.05806
1.05546
1.04888
1.0385
1.02537
1.01114
0.99731
0.984923
0.974493
0.966169
0.959838
0.955331
0.95236
1.05653
1.05917
1.05931
1.05662
1.04977
1.03899
1.02541
1.01076
0.996624
0.984028
0.973479
0.965103
0.958764
0.954275
0.951335
1.0577
1.06043
1.0606
1.05781
1.05068
1.03948
1.02542
1.01035
0.995896
0.983093
0.97243
0.964008
0.957666
0.953199
0.950294
1.0589
1.06173
1.06192
1.05902
1.0516
1.03995
1.0254
1.0099
0.995123
0.982116
0.971344
0.96288
0.956541
0.9521
0.949234
1.06013
1.06306
1.06328
1.06027
1.05252
1.0404
1.02534
1.0094
0.994304
0.981095
0.97022
0.961723
0.955391
0.950981
0.948158
1.0614
1.06443
1.06468
1.06154
1.05346
1.04084
1.02525
1.00886
0.993434
0.98003
0.969058
0.960532
0.954214
0.94984
0.947062
1.0627
1.06585
1.06612
1.06285
1.05441
1.04126
1.02512
1.00826
0.992515
0.978918
0.967856
0.959309
0.953011
0.948677
0.94595
1.06404
1.0673
1.06761
1.06418
1.05536
1.04166
1.02494
1.00761
0.991541
0.977758
0.966613
0.958053
0.951781
0.947492
0.944818
1.06541
1.06879
1.06913
1.06555
1.05631
1.04203
1.02471
1.0069
0.990511
0.976549
0.96533
0.956763
0.950524
0.946285
0.943669
1.06683
1.07034
1.07071
1.06695
1.05727
1.04237
1.02443
1.00613
0.989423
0.975288
0.964004
0.955439
0.949238
0.945056
0.9425
1.06829
1.07192
1.07233
1.06838
1.05823
1.04268
1.0241
1.0053
0.988274
0.973976
0.962635
0.954081
0.947926
0.943805
0.941315
1.06978
1.07356
1.074
1.06985
1.05918
1.04294
1.0237
1.0044
0.987062
0.972608
0.961222
0.952687
0.946586
0.94253
0.94011
1.07133
1.07525
1.07572
1.07134
1.06013
1.04317
1.02324
1.00343
0.985785
0.971187
0.959765
0.951258
0.945218
0.941235
0.938888
1.07291
1.07699
1.0775
1.07287
1.06107
1.04334
1.0227
1.00238
0.984439
0.969707
0.958261
0.949793
0.943821
0.939915
0.937647
1.07455
1.07879
1.07933
1.07443
1.062
1.04347
1.02209
1.00125
0.983023
0.968171
0.956712
0.948293
0.942397
0.938575
0.936388
1.07623
1.08064
1.08122
1.07601
1.06291
1.04353
1.0214
1.00004
0.981533
0.966574
0.955116
0.946755
0.940944
0.937211
0.93511
1.07797
1.08256
1.08317
1.07763
1.06379
1.04352
1.02061
0.998747
0.979969
0.964917
0.953473
0.945182
0.939463
0.935826
0.933815
1.07976
1.08454
1.08518
1.07927
1.06465
1.04344
1.01974
0.997358
0.978326
0.963198
0.951782
0.943572
0.937953
0.934417
0.932501
1.0816
1.08659
1.08725
1.08094
1.06547
1.04327
1.01876
0.995873
0.976604
0.961416
0.950044
0.941926
0.936417
0.932988
0.93117
1.08351
1.08871
1.08939
1.08262
1.06625
1.04301
1.01767
0.994287
0.974799
0.95957
0.948256
0.940243
0.934851
0.931535
0.92982
1.08547
1.09091
1.09159
1.08433
1.06698
1.04265
1.01647
0.992598
0.97291
0.95766
0.94642
0.938524
0.933258
0.930062
0.928454
1.0875
1.09319
1.09387
1.08605
1.06765
1.04219
1.01514
0.9908
0.970935
0.955684
0.944535
0.936768
0.931638
0.928567
0.927069
1.0896
1.09554
1.09622
1.08778
1.06826
1.0416
1.01369
0.988891
0.968873
0.953642
0.942602
0.934977
0.92999
0.927051
0.925667
1.09176
1.09799
1.09864
1.08952
1.06878
1.04088
1.01209
0.986865
0.966721
0.951534
0.94062
0.93315
0.928316
0.925513
0.924248
1.09401
1.10053
1.10113
1.09125
1.06921
1.04001
1.01035
0.984719
0.964478
0.949359
0.93859
0.931288
0.926615
0.923956
0.922813
1.09632
1.10317
1.1037
1.09297
1.06953
1.03899
1.00846
0.982451
0.962143
0.947118
0.936512
0.92939
0.924888
0.922377
0.921361
1.09873
1.10591
1.10634
1.09467
1.06973
1.0378
1.00642
0.980056
0.959716
0.94481
0.934387
0.92746
0.923136
0.920779
0.919894
1.10121
1.10876
1.10905
1.09634
1.0698
1.03643
1.0042
0.977532
0.957195
0.942436
0.932215
0.925495
0.921359
0.919162
0.91841
1.10379
1.11173
1.11184
1.09797
1.06971
1.03487
1.00181
0.974877
0.954581
0.939996
0.929998
0.923498
0.919558
0.917526
0.916911
1.10647
1.11482
1.1147
1.09954
1.06945
1.03309
0.999236
0.972089
0.951873
0.937491
0.927736
0.921469
0.917733
0.915871
0.915396
1.10924
1.11804
1.11763
1.10103
1.06899
1.03109
0.996477
0.969166
0.949073
0.934924
0.92543
0.919411
0.915886
0.914198
0.913867
1.11213
1.12139
1.12062
1.10243
1.06832
1.02885
0.993525
0.966107
0.94618
0.932293
0.923082
0.917322
0.914016
0.912508
0.912323
1.11513
1.12489
1.12366
1.10372
1.06741
1.02636
0.990375
0.962914
0.943197
0.929603
0.920694
0.915205
0.912127
0.910802
0.910766
1.11826
1.12854
1.12675
1.10486
1.06624
1.0236
0.987023
0.959585
0.940125
0.926853
0.918267
0.913061
0.910216
0.909079
0.909194
1.12151
1.13235
1.12988
1.10584
1.06478
1.02056
0.983467
0.956122
0.936966
0.924047
0.915803
0.910892
0.908287
0.907341
0.907609
1.12491
1.13633
1.13302
1.10663
1.063
1.01722
0.979703
0.952528
0.933722
0.921186
0.913304
0.908699
0.90634
0.905588
0.906012
1.12846
1.14048
1.13618
1.10718
1.06087
1.01357
0.975731
0.948806
0.930398
0.918274
0.910772
0.906484
0.904377
0.903821
0.904402
1.13218
1.1448
1.13931
1.10747
1.05837
1.00961
0.971553
0.944958
0.926996
0.915314
0.90821
0.904248
0.902397
0.902041
0.90278
1.13607
1.14931
1.14241
1.10745
1.05546
1.00532
0.967171
0.94099
0.923521
0.912309
0.905621
0.901994
0.900404
0.900249
0.901147
1.14015
1.15401
1.14544
1.10708
1.05212
1.00069
0.962589
0.936907
0.919975
0.909261
0.903006
0.899723
0.898397
0.898446
0.899502
1.14444
1.1589
1.14836
1.10631
1.04832
0.99573
0.957813
0.932716
0.916366
0.906177
0.90037
0.897437
0.896379
0.896631
0.897847
1.14895
1.16398
1.15113
1.10509
1.04402
0.990423
0.952852
0.928424
0.912698
0.903059
0.897715
0.895138
0.89435
0.894807
0.896182
1.15371
1.16924
1.15371
1.10336
1.0392
0.984778
0.947715
0.924039
0.908976
0.899913
0.895044
0.892829
0.892312
0.892974
0.894508
1.15874
1.17467
1.15603
1.10107
1.03383
0.978797
0.942415
0.919569
0.905207
0.896742
0.89236
0.890511
0.890266
0.891132
0.892824
1.16406
1.18027
1.15805
1.09815
1.0279
0.972492
0.936966
0.915024
0.901398
0.893552
0.889668
0.888188
0.888215
0.889284
0.891132
1.1697
1.18602
1.15967
1.09454
1.02139
0.965876
0.931384
0.910414
0.897554
0.890347
0.88697
0.88586
0.886158
0.887429
0.889431
1.17569
1.19188
1.16084
1.09018
1.01428
0.958969
0.925686
0.905749
0.893683
0.887134
0.88427
0.883531
0.884098
0.885568
0.887723
1.18205
1.19782
1.16145
1.085
1.00658
0.951794
0.919891
0.901039
0.889793
0.883918
0.881572
0.881203
0.882037
0.883703
0.886006
1.18883
1.20379
1.1614
1.07895
0.998284
0.944382
0.91402
0.896296
0.885892
0.880705
0.87888
0.878877
0.879974
0.881834
0.884283
1.19606
1.20974
1.16059
1.07195
0.989407
0.936766
0.908093
0.891531
0.881987
0.8775
0.876197
0.876557
0.877913
0.879961
0.882552
1.20378
1.21559
1.15889
1.06397
0.979976
0.928986
0.902132
0.886754
0.878087
0.87431
0.873527
0.874245
0.875853
0.878086
0.880815
1.21202
1.22125
1.15619
1.05495
0.970025
0.921085
0.896158
0.881976
0.874201
0.871141
0.870873
0.871942
0.873797
0.876209
0.879071
1.22083
1.2266
1.15234
1.04486
0.959605
0.913111
0.890191
0.87721
0.870337
0.867999
0.86824
0.86965
0.871746
0.874331
0.87732
1.23024
1.23152
1.1472
1.03368
0.948781
0.905112
0.88425
0.872465
0.866505
0.86489
0.86563
0.867373
0.8697
0.872451
0.875564
1.24028
1.23585
1.14063
1.02141
0.93763
0.897139
0.878354
0.867753
0.862715
0.86182
0.863048
0.86511
0.86766
0.870571
0.8738
1.25099
1.23939
1.13247
1.00807
0.926246
0.88924
0.872519
0.863086
0.858976
0.858795
0.860495
0.862865
0.865628
0.86869
0.872031
1.26237
1.24193
1.12258
0.993703
0.914733
0.881462
0.866759
0.858477
0.855298
0.855821
0.857976
0.860639
0.863603
0.86681
0.870256
1.27442
1.24321
1.11082