/*--------------------------------*- C++ -*----------------------------------*\
  =========                 |
  \\      /  F ield         | OpenFOAM: The Open Source CFD Toolbox
   \\    /   O peration     | Website:  https://openfoam.org
    \\  /    A nd           | Version:  6.0
     \\/     M anipulation  |
\*---------------------------------------------------------------------------*/
FoamFile
{
    version     2.0;
    format      ascii;
    class       volVectorField;
    location    "0.8";
    object      U;
}
// * * * * * * * * * * * * * * * * * * * * * * * * * * * * * * * * * * * * * //

dimensions      [0 1 -1 0 0 0 0];

internalField   nonuniform List<vector> 
24000
(
(0.999995 -4.92893e-06 -7.95923e-17)
(0.999952 -2.24044e-05 1.08364e-16)
(0.999879 -6.28039e-05 -1.90527e-16)
(0.999798 -0.000130575 2.10237e-16)
(0.999735 -0.000216114 -1.03716e-15)
(0.999705 -0.000302969 -6.14835e-16)
(0.999711 -0.000379399 6.29519e-16)
(0.999755 -0.000424542 -1.3949e-15)
(0.999829 -0.000418774 4.379e-16)
(0.99992 -0.000338911 -3.21976e-16)
(1 -8.59967e-05 -3.11546e-16)
(1.00087 0.000856607 -4.6366e-16)
(0.99999 -1.11569e-05 1.16679e-16)
(0.999914 -4.93948e-05 -1.60349e-16)
(0.999786 -0.000131843 3.56014e-16)
(0.999647 -0.000258748 -8.88899e-17)
(0.999545 -0.0004106 4.61605e-16)
(0.999503 -0.000559919 6.21778e-16)
(0.999524 -0.000686917 -3.50215e-16)
(0.999613 -0.000754795 1.48173e-15)
(0.999754 -0.000728665 -3.10941e-16)
(0.999927 -0.000572345 1.59662e-17)
(1.00004 -0.000121243 8.13757e-17)
(1.00153 0.00129669 1.54325e-16)
(0.99999 -1.66307e-05 -8.88709e-17)
(0.999925 -6.72971e-05 2.16058e-16)
(0.999816 -0.00016056 -1.23392e-16)
(0.999701 -0.000286531 4.51183e-16)
(0.999625 -0.00042361 2.51388e-16)
(0.999607 -0.00054668 2.31227e-16)
(0.999647 -0.000641195 5.1791e-16)
(0.999746 -0.000675014 -6.5866e-16)
(0.999886 -0.000617577 -3.6759e-16)
(1.00006 -0.000451062 -1.29758e-16)
(1.00012 -1.02025e-05 -2.90363e-17)
(1.00164 0.00120208 4.87959e-16)
(0.999989 -2.31158e-05 -3.79473e-17)
(0.999938 -8.70704e-05 -2.04422e-16)
(0.99985 -0.000190105 -3.1565e-16)
(0.999757 -0.000314474 -2.23677e-16)
(0.999701 -0.000440166 -1.31004e-16)
(0.999698 -0.000546551 -9.05081e-16)
(0.999746 -0.000624064 -1.43393e-15)
(0.999845 -0.000645813 1.63843e-16)
(0.999979 -0.000584531 4.69195e-17)
(1.00014 -0.000436996 6.44969e-16)
(1.00017 -5.42556e-05 -4.1172e-16)
(1.00154 0.000922173 -5.70582e-16)
(0.999987 -3.05801e-05 6.76034e-17)
(0.99994 -0.000110094 3.3001e-17)
(0.999857 -0.00022893 1.59964e-16)
(0.999764 -0.000364856 -7.56105e-17)
(0.999708 -0.000500574 2.07758e-16)
(0.999705 -0.000618214 1.86992e-16)
(0.999754 -0.000709082 1.45065e-15)
(0.999857 -0.000746383 -9.4781e-17)
(0.999999 -0.000700473 -2.79662e-16)
(1.00018 -0.000565896 7.60102e-17)
(1.00022 -0.000213373 2.84125e-16)
(1.00144 0.000658378 -1.5104e-16)
(0.999984 -3.87287e-05 3.91208e-18)
(0.999938 -0.000133795 -1.89883e-17)
(0.999858 -0.000267884 -2.135e-17)
(0.999766 -0.000415449 -3.86543e-18)
(0.999711 -0.000561793 -8.62216e-16)
(0.99971 -0.00069058 1.05512e-15)
(0.999763 -0.00079271 2.9291e-17)
(0.999873 -0.000840258 1.46119e-16)
(1.00003 -0.000801095 6.9118e-16)
(1.00024 -0.000658835 -3.402e-16)
(1.0003 -0.000305499 5.15576e-16)
(1.0014 0.000554708 3.45888e-16)
(0.99998 -4.74831e-05 -3.5403e-18)
(0.999939 -0.000157083 2.04769e-16)
(0.999868 -0.000302757 -2.07657e-16)
(0.999785 -0.000455866 -1.01246e-16)
(0.999739 -0.000604121 4.43099e-16)
(0.999748 -0.000732118 -2.17976e-16)
(0.999811 -0.000830518 -6.03707e-16)
(0.999932 -0.000871618 -3.13214e-16)
(1.0001 -0.000823736 1.22074e-16)
(1.00032 -0.000661428 6.01653e-16)
(1.00041 -0.000298838 -1.217e-15)
(1.00142 0.000562515 3.1706e-16)
(0.999976 -5.67463e-05 -5.22918e-17)
(0.999941 -0.000180239 7.92731e-17)
(0.999882 -0.00033557 2.39284e-16)
(0.999811 -0.000491609 4.52952e-16)
(0.999778 -0.000638748 2.41133e-16)
(0.999799 -0.000761961 -2.67573e-16)
(0.999876 -0.000851136 -2.90935e-16)
(1.00001 -0.000879444 -1.39452e-16)
(1.00018 -0.000817371 4.81685e-17)
(1.00041 -0.000636014 -1.30351e-16)
(1.00052 -0.000269863 1.04195e-15)
(1.00146 0.000564807 -5.48027e-16)
(0.99997 -6.63131e-05 2.05887e-17)
(0.999941 -0.00020345 -1.94673e-16)
(0.999891 -0.000368395 1.46035e-17)
(0.999832 -0.000528345 -7.22882e-17)
(0.99981 -0.000677017 7.29374e-17)
(0.999843 -0.000799405 -6.10813e-17)
(0.999931 -0.000883679 5.11819e-17)
(1.00007 -0.000903327 5.58428e-16)
(1.00026 -0.00083079 -6.92161e-17)
(1.0005 -0.000637298 -7.8938e-16)
(1.00063 -0.000273799 -8.78939e-16)
(1.0015 0.000514789 9.7476e-16)
(0.999964 -7.59138e-05 7.31731e-17)
(0.999939 -0.000226453 4.86602e-18)
(0.999897 -0.000401318 1.84373e-16)
(0.999848 -0.00056649 -4.83334e-16)
(0.999835 -0.000719552 -1.15348e-16)
(0.999876 -0.00084556 5.22006e-16)
(0.999975 -0.000930661 -4.43417e-16)
(1.00013 -0.000947822 -6.68753e-16)
(1.00032 -0.000870541 2.04817e-16)
(1.00058 -0.000670361 2.05374e-16)
(1.00072 -0.000310886 6.53555e-16)
(1.00155 0.000435081 -1.37826e-16)
(0.999957 -8.53006e-05 -1.00363e-16)
(0.999935 -0.000248928 -2.31045e-17)
(0.9999 -0.000433782 -2.19736e-16)
(0.999861 -0.000604593 3.65582e-17)
(0.999857 -0.000762802 1.67118e-16)
(0.999907 -0.000893763 -3.60257e-16)
(1.00001 -0.000982132 2.70659e-16)
(1.00018 -0.000999919 7.53508e-16)
(1.00039 -0.000921057 -5.61842e-16)
(1.00065 -0.00071582 2.24101e-16)
(1.00082 -0.00035809 -8.46594e-16)
(1.0016 0.000359258 -9.02887e-16)
(0.99995 -9.42496e-05 6.51566e-18)
(0.999929 -0.000270696 1.91914e-16)
(0.999901 -0.000465609 -1.92457e-16)
(0.999873 -0.000642207 1.48821e-16)
(0.99988 -0.000805141 -4.57309e-16)
(0.99994 -0.000940115 -2.03748e-16)
(1.00006 -0.00103119 6.63442e-17)
(1.00023 -0.00104947 -3.02618e-16)
(1.00045 -0.000969199 -3.93929e-16)
(1.00072 -0.000758145 3.62667e-16)
(1.00092 -0.000399355 2.85393e-16)
(1.00166 0.000299319 1.0061e-17)
(0.999941 -0.000102576 2.45159e-17)
(0.999922 -0.000291691 -1.91778e-17)
(0.9999 -0.00049698 5.303e-16)
(0.999884 -0.000679966 1.5296e-16)
(0.999903 -0.000847444 2.61402e-16)
(0.999974 -0.000985245 -2.92176e-16)
(1.0001 -0.00107757 -1.47756e-16)
(1.00029 -0.00109493 1.20477e-16)
(1.00052 -0.00101212 4.65266e-16)
(1.0008 -0.000794363 -1.21845e-15)
(1.00101 -0.000433171 -4.86102e-16)
(1.00173 0.000249135 5.41149e-16)
(0.999932 -0.000110118 -7.5716e-17)
(0.999913 -0.000311868 -6.73812e-17)
(0.999898 -0.00052805 -4.1911e-16)
(0.999892 -0.000718567 -3.31134e-16)
(0.999924 -0.000891228 -2.3205e-16)
(1.00001 -0.00103163 3.64713e-16)
(1.00015 -0.00112442 2.50805e-16)
(1.00034 -0.00113994 -2.76297e-16)
(1.00059 -0.00105375 -3.70766e-16)
(1.00088 -0.000829311 -1.328e-16)
(1.00111 -0.000465596 6.90343e-16)
(1.0018 0.00019964 -4.80756e-16)
(0.999921 -0.000116761 4.07561e-17)
(0.999903 -0.000331184 3.22129e-17)
(0.999893 -0.000558807 4.95061e-17)
(0.999897 -0.000758182 7.89783e-17)
(0.999941 -0.000937232 8.21097e-17)
(1.00004 -0.001081 -1.48131e-16)
(1.00019 -0.00117453 7.76657e-18)
(1.0004 -0.00118824 -3.82687e-16)
(1.00066 -0.00109852 3.62336e-16)
(1.00096 -0.000867873 1.38114e-15)
(1.00121 -0.000501369 -2.05257e-16)
(1.00187 0.000147893 6.69442e-16)
(0.99991 -0.000122422 -3.93528e-17)
(0.999892 -0.000349608 1.48643e-18)
(0.999888 -0.000589091 1.47749e-16)
(0.9999 -0.000798424 2.08905e-16)
(0.999955 -0.000985057 2.31065e-16)
(1.00006 -0.00113329 -1.5012e-16)
(1.00023 -0.00122833 -2.4174e-16)
(1.00045 -0.00124072 5.91162e-16)
(1.00072 -0.00114756 1.43153e-16)
(1.00104 -0.000910805 -1.48857e-15)
(1.0013 -0.000540302 2.35293e-16)
(1.00195 9.67553e-05 2.21859e-17)
(0.999898 -0.00012707 9.00409e-17)
(0.999881 -0.000367148 3.30766e-17)
(0.999882 -0.000618743 -3.19355e-16)
(0.999903 -0.000838684 1.37807e-16)
(0.999968 -0.00103364 -5.60871e-17)
(1.00009 -0.00118713 3.67085e-16)
(1.00027 -0.00128427 6.24987e-16)
(1.00051 -0.00129563 1.0523e-16)
(1.00079 -0.00119887 5.10265e-16)
(1.00112 -0.000955533 1.23752e-15)
(1.0014 -0.000579403 1.43137e-15)
(1.00203 4.93165e-05 -5.33945e-16)
(0.999885 -0.000130702 3.46077e-17)
(0.999869 -0.00038385 -2.74327e-17)
(0.999876 -0.000647689 3.03753e-16)
(0.999905 -0.000878467 -2.7704e-16)
(0.999982 -0.00108196 3.92124e-16)
(1.00012 -0.00124098 4.02931e-18)
(1.00031 -0.00134037 -4.06306e-16)
(1.00056 -0.00135061 1.28107e-16)
(1.00086 -0.00124982 -4.41816e-16)
(1.00121 -0.000999365 -2.1625e-16)
(1.0015 -0.000616537 -5.74119e-16)
(1.00211 5.93529e-06 -1.05971e-16)
(0.999871 -0.000133348 -4.15033e-17)
(0.999857 -0.000399802 -2.30998e-16)
(0.99987 -0.000675996 -1.26424e-16)
(0.999909 -0.000917623 1.55151e-16)
(0.999996 -0.00112957 -2.81772e-17)
(1.00014 -0.00129405 -2.61818e-16)
(1.00035 -0.00139559 -5.4602e-17)
(1.00062 -0.00140454 -3.37457e-17)
(1.00093 -0.00129939 -5.30331e-16)
(1.00129 -0.00104173 -3.8904e-16)
(1.0016 -0.000652165 -1.72119e-15)
(1.0022 -3.5787e-05 1.01971e-15)
(0.999856 -0.000135049 -3.95449e-17)
(0.999845 -0.000415098 2.40485e-16)
(0.999865 -0.000703817 -1.71647e-16)
(0.999912 -0.000956302 7.66037e-17)
(1.00001 -0.00117662 -1.88053e-16)
(1.00017 -0.00134648 -4.26006e-16)
(1.00039 -0.00145017 5.40487e-17)
(1.00067 -0.00145784 -6.90144e-17)
(1.001 -0.00134839 2.8709e-16)
(1.00137 -0.001084 4.46203e-16)
(1.00169 -0.000688266 1.54026e-15)
(1.00228 -7.80429e-05 -9.85961e-16)
(0.999839 -0.000135861 2.84439e-17)
(0.999831 -0.00042983 -1.11964e-17)
(0.999858 -0.000731331 2.72223e-17)
(0.999915 -0.000994806 -6.35343e-17)
(1.00003 -0.00122358 -2.36295e-16)
(1.0002 -0.00139891 -9.44835e-18)
(1.00044 -0.00150498 -1.25344e-16)
(1.00073 -0.00151172 -6.69612e-16)
(1.00107 -0.00139836 4.03482e-16)
(1.00145 -0.0011279 2.18509e-16)
(1.00179 -0.000726456 6.51565e-17)
(1.00237 -0.000121726 2.21643e-16)
(0.999822 -0.000135835 3.2535e-17)
(0.999817 -0.000444062 -2.63835e-16)
(0.999851 -0.000758654 5.16558e-16)
(0.999918 -0.00103339 4.91514e-17)
(1.00004 -0.00127089 1.43332e-16)
(1.00023 -0.00145197 8.68923e-16)
(1.00048 -0.00156079 7.14665e-16)
(1.00079 -0.00156708 3.61727e-16)
(1.00114 -0.00145024 -9.58546e-16)
(1.00154 -0.00117414 -2.79556e-16)
(1.00189 -0.000766819 9.24345e-17)
(1.00245 -0.000165697 -3.30821e-17)
(0.999803 -0.000135032 -6.09715e-17)
(0.999802 -0.000457838 1.05101e-16)
(0.999843 -0.000785837 -6.96515e-17)
(0.999919 -0.00107217 -8.84467e-17)
(1.00005 -0.00131879 -2.54992e-16)
(1.00025 -0.00150596 -5.04543e-16)
(1.00052 -0.00161787 -2.74261e-16)
(1.00084 -0.00162407 -2.17527e-17)
(1.00121 -0.001504 2.77809e-16)
(1.00162 -0.00122222 -2.64925e-16)
(1.00198 -0.000808273 -1.56255e-15)
(1.00254 -0.000208681 7.90098e-16)
(0.999782 -0.000133503 4.45174e-17)
(0.999786 -0.000471183 6.34195e-18)
(0.999833 -0.000812853 -1.89538e-16)
(0.999919 -0.00111114 -1.44954e-16)
(1.00007 -0.00136728 -8.0436e-17)
(1.00028 -0.00156084 -1.18901e-16)
(1.00056 -0.00167607 -2.16921e-16)
(1.0009 -0.00168228 -2.31437e-16)
(1.00128 -0.0015589 -6.7462e-17)
(1.0017 -0.00127106 -2.45789e-16)
(1.00208 -0.000849438 9.27762e-17)
(1.00263 -0.000249353 -1.57208e-16)
(0.999761 -0.000131307 1.52594e-17)
(0.999769 -0.000484122 1.49338e-16)
(0.999823 -0.000839661 4.08747e-17)
(0.999919 -0.00115019 -1.56956e-17)
(1.00008 -0.00141621 9.8783e-17)
(1.0003 -0.00161643 2.77606e-16)
(1.0006 -0.00173504 1.06868e-16)
(1.00095 -0.00174117 2.67315e-16)
(1.00135 -0.00161416 3.13396e-16)
(1.00179 -0.00131971 -3.05825e-16)
(1.00218 -0.000889495 1.00348e-15)
(1.00273 -0.000287384 -6.20175e-16)
(0.999738 -0.0001285 -2.06922e-17)
(0.999751 -0.000496677 -1.95386e-17)
(0.999811 -0.000866207 -1.4768e-16)
(0.999917 -0.0011892 -9.71916e-17)
(1.00009 -0.00146539 -3.48379e-17)
(1.00033 -0.00167249 -1.78796e-16)
(1.00064 -0.0017945 1.04063e-17)
(1.00101 -0.00180034 -3.11156e-16)
(1.00142 -0.0016693 -2.70311e-17)
(1.00187 -0.00136771 1.05099e-15)
(1.00227 -0.000928228 4.95551e-16)
(1.00282 -0.00032309 5.29071e-17)
(0.999714 -0.000125145 -9.84471e-18)
(0.999732 -0.000508892 -1.14629e-16)
(0.999799 -0.000892486 -5.05087e-17)
(0.999915 -0.00122807 -7.5459e-17)
(1.0001 -0.00151463 5.57124e-16)
(1.00035 -0.00172882 -1.2908e-16)
(1.00068 -0.00185423 1.53675e-16)
(1.00107 -0.00185958 -1.59678e-16)
(1.00149 -0.00172417 -2.55138e-16)
(1.00195 -0.0014151 -2.65018e-16)
(1.00237 -0.000965954 -1.96268e-17)
(1.00292 -0.000357321 -2.00451e-16)
(0.999689 -0.000121304 3.40885e-17)
(0.999712 -0.000520815 -4.08413e-17)
(0.999787 -0.000918527 1.7155e-16)
(0.999912 -0.00126674 3.46318e-16)
(1.00011 -0.0015638 -5.26794e-16)
(1.00038 -0.00178525 4.98623e-16)
(1.00072 -0.00191411 -2.75762e-16)
(1.00112 -0.00191885 -1.43991e-16)
(1.00157 -0.00177886 -1.93998e-16)
(1.00204 -0.00146213 -3.54815e-16)
(1.00247 -0.00100315 -1.50548e-16)
(1.00301 -0.000390668 -1.20251e-16)
(0.999662 -0.000117048 -5.82263e-18)
(0.999691 -0.000532518 -1.56634e-17)
(0.999773 -0.000944426 -1.57753e-17)
(0.999909 -0.0013053 -3.35234e-16)
(1.00012 -0.0016129 -1.43923e-16)
(1.0004 -0.00184173 -1.30449e-17)
(1.00076 -0.00197413 -3.89449e-16)
(1.00118 -0.00197825 7.17863e-16)
(1.00164 -0.00183361 -5.84274e-18)
(1.00213 -0.00150923 2.5065e-16)
(1.00256 -0.00104043 1.77516e-16)
(1.00311 -0.000423777 -5.39606e-18)
(0.999635 -0.000112444 -1.88912e-17)
(0.999669 -0.000544071 1.07852e-16)
(0.999759 -0.000970305 3.21169e-17)
(0.999905 -0.00134386 4.60757e-16)
(1.00013 -0.00166204 2.51453e-16)
(1.00043 -0.00189834 -4.21862e-16)
(1.0008 -0.00203439 1.9158e-16)
(1.00124 -0.00203794 -3.78201e-16)
(1.00171 -0.00188871 1.30958e-15)
(1.00221 -0.00155682 -1.01807e-16)
(1.00266 -0.00107832 2.23725e-17)
(1.00321 -0.000457182 -1.40146e-16)
(0.999606 -0.000107569 -1.97122e-17)
(0.999646 -0.000555554 7.53465e-17)
(0.999743 -0.000996326 -9.05052e-17)
(0.999901 -0.00138267 -4.47178e-16)
(1.00014 -0.00171147 4.63044e-16)
(1.00045 -0.00195534 2.70881e-16)
(1.00084 -0.00209513 3.42642e-16)
(1.00129 -0.00209825 1.5334e-16)
(1.00178 -0.00194458 -1.08795e-16)
(1.0023 -0.00160539 5.46218e-16)
(1.00275 -0.00111733 -9.90431e-16)
(1.0033 -0.000491271 1.11562e-15)
(0.999576 -0.000102491 2.74676e-17)
(0.999621 -0.000567034 -1.44207e-16)
(0.999726 -0.00102263 -8.41887e-17)
(0.999895 -0.00142198 -2.68171e-17)
(1.00014 -0.00176153 -1.77103e-16)
(1.00048 -0.00201308 -5.03209e-18)
(1.00088 -0.00215673 -2.81646e-16)
(1.00135 -0.00215954 -2.13188e-16)
(1.00186 -0.00200159 -1.20283e-15)
(1.00238 -0.00165528 -3.9703e-16)
(1.00285 -0.00115773 -2.55162e-16)
(1.0034 -0.000526187 -2.99165e-17)
(0.999545 -9.72898e-05 1.05339e-17)
(0.999595 -0.000578575 -1.18559e-17)
(0.999707 -0.00104934 -4.25973e-17)
(0.999887 -0.00146202 3.25321e-16)
(1.00015 -0.00181257 -5.52335e-16)
(1.0005 -0.00207195 -4.09904e-16)
(1.00092 -0.00221957 3.52212e-16)
(1.00141 -0.0022222 -2.33052e-17)
(1.00193 -0.0020601 7.28948e-17)
(1.00247 -0.00170675 4.20754e-16)
(1.00295 -0.00119966 -1.68101e-16)
(1.0035 -0.000561919 3.02357e-16)
(0.999512 -9.20349e-05 -1.51742e-17)
(0.999567 -0.00059022 1.70039e-16)
(0.999686 -0.00107654 2.8841e-16)
(0.999878 -0.00150295 -9.60825e-17)
(1.00016 -0.00186483 4.35263e-17)
(1.00052 -0.00213224 1.82122e-16)
(1.00096 -0.00228395 -4.20489e-16)
(1.00146 -0.00228646 4.42793e-16)
(1.002 -0.00212022 3.44316e-16)
(1.00255 -0.00175978 -2.83697e-16)
(1.00304 -0.00124289 3.24518e-18)
(1.00359 -0.000598119 -1.89622e-17)
(0.999479 -8.68042e-05 -4.29464e-18)
(0.999538 -0.000602011 -2.47024e-16)
(0.999664 -0.00110424 -4.848e-17)
(0.999867 -0.00154484 5.79056e-17)
(1.00016 -0.00191844 6.51602e-16)
(1.00054 -0.00219412 5.20282e-17)
(1.001 -0.00234999 3.90422e-16)
(1.00152 -0.00235236 -7.23205e-16)
(1.00207 -0.0021819 3.63233e-16)
(1.00263 -0.00181417 -4.36329e-16)
(1.00314 -0.00128712 9.35733e-16)
(1.00369 -0.000634304 -4.63696e-16)
(0.999445 -8.16693e-05 2.14673e-17)
(0.999508 -0.000613976 1.09519e-16)
(0.999641 -0.00113242 -1.16298e-16)
(0.999854 -0.00158764 4.78705e-17)
(1.00016 -0.00197335 -3.91969e-16)
(1.00056 -0.00225753 -1.38007e-16)
(1.00103 -0.0024176 2.26569e-17)
(1.00157 -0.00241975 5.18231e-16)
(1.00214 -0.00224489 3.12804e-16)
(1.00272 -0.00186956 -2.15905e-17)
(1.00323 -0.00133193 1.23281e-15)
(1.00379 -0.000670236 -6.06518e-16)
(0.99941 -7.67076e-05 1.44319e-18)
(0.999477 -0.000626153 1.19536e-16)
(0.999616 -0.00116107 1.19408e-16)
(0.99984 -0.00163126 -1.43923e-17)
(1.00016 -0.00202942 2.86656e-16)
(1.00057 -0.00232229 3.70685e-16)
(1.00107 -0.00248658 -1.13124e-16)
(1.00162 -0.00248837 5.20568e-16)
(1.00221 -0.00230886 -1.19461e-15)
(1.0028 -0.00192564 -1.32508e-16)
(1.00333 -0.00137705 -1.7746e-15)
(1.00388 -0.000706057 1.39932e-16)
(0.999375 -7.19901e-05 -6.22626e-17)
(0.999445 -0.000638578 7.43745e-17)
(0.99959 -0.00119014 -2.12513e-17)
(0.999825 -0.00167556 1.55002e-16)
(1.00016 -0.00208642 -2.13434e-16)
(1.00059 -0.00238811 -5.20183e-16)
(1.0011 -0.0025566 -4.00168e-17)
(1.00168 -0.00255788 -3.71051e-16)
(1.00228 -0.0023735 1.27249e-15)
(1.00289 -0.00198212 -4.28571e-17)
(1.00342 -0.00142225 3.80819e-16)
(1.00398 -0.000741651 6.99246e-16)
(0.999339 -6.75916e-05 1.54836e-17)
(0.999412 -0.000651304 -3.18865e-16)
(0.999564 -0.00121964 1.09885e-16)
(0.99981 -0.00172044 -5.09592e-16)
(1.00016 -0.00214415 2.54956e-16)
(1.00061 -0.00245473 8.44161e-16)
(1.00114 -0.00262738 -2.18892e-16)
(1.00173 -0.00262804 -5.18349e-16)
(1.00235 -0.00243861 -4.0495e-16)
(1.00297 -0.00203889 -8.00502e-17)
(1.00352 -0.00146756 3.94683e-16)
(1.00408 -0.000777171 -6.39319e-16)
(0.999302 -6.35779e-05 3.55098e-17)
(0.999378 -0.000664384 9.26405e-17)
(0.999537 -0.00124956 -3.33705e-16)
(0.999794 -0.00176584 4.62138e-16)
(1.00016 -0.00220246 -6.9482e-16)
(1.00062 -0.00252195 -6.94079e-16)
(1.00117 -0.00269871 2.64618e-16)
(1.00178 -0.00269865 9.30644e-16)
(1.00242 -0.00250406 -5.2425e-16)
(1.00305 -0.0020959 2.10944e-16)
(1.00361 -0.001513 -1.70317e-16)
(1.00417 -0.000812682 5.9881e-17)
(0.999264 -6.0015e-05 -6.04865e-18)
(0.999343 -0.000677883 1.99937e-16)
(0.99951 -0.00127997 2.66243e-16)
(0.999777 -0.00181176 -3.16878e-16)
(1.00016 -0.0022613 1.54161e-16)
(1.00064 -0.00258968 4.27554e-16)
(1.00121 -0.00277051 1.43786e-16)
(1.00183 -0.00276968 -9.64663e-17)
(1.00249 -0.00256988 7.34856e-16)
(1.00314 -0.00215326 3.73891e-16)
(1.00371 -0.00155868 7.02651e-17)
(1.00427 -0.000848524 6.31708e-17)
(0.999226 -5.69573e-05 1.35978e-17)
(0.999308 -0.000691861 -2.23042e-16)
(0.999482 -0.00131094 -5.89173e-17)
(0.99976 -0.00185825 1.241e-16)
(1.00015 -0.00232068 7.50202e-16)
(1.00065 -0.00265791 -3.84794e-16)
(1.00124 -0.00284277 -3.27846e-16)
(1.00189 -0.00284115 -7.45155e-17)
(1.00256 -0.00263613 -7.26804e-16)
(1.00322 -0.00221105 4.22519e-16)
(1.0038 -0.00160466 -5.87571e-17)
(1.00437 -0.000884631 3.75699e-16)
(0.999187 -5.4456e-05 -1.07896e-17)
(0.999272 -0.000706376 1.39656e-16)
(0.999453 -0.00134253 -9.6348e-17)
(0.999743 -0.00190539 3.61493e-16)
(1.00015 -0.00238069 -7.0476e-16)
(1.00067 -0.00272671 4.95166e-16)
(1.00127 -0.00291556 -4.81705e-17)
(1.00194 -0.00291314 -5.03363e-17)
(1.00263 -0.00270293 7.52029e-16)
(1.0033 -0.00226937 -2.89887e-16)
(1.0039 -0.00165104 -2.37069e-16)
(1.00447 -0.000921181 -9.48893e-17)
(0.999148 -5.25482e-05 1.51872e-18)
(0.999234 -0.000721475 -2.60301e-17)
(0.999423 -0.00137481 1.17401e-16)
(0.999724 -0.00195326 -4.00963e-16)
(1.00015 -0.0024414 3.47952e-16)
(1.00068 -0.00279619 1.16412e-16)
(1.00131 -0.00298899 1.67684e-16)
(1.00199 -0.00298576 -8.75474e-16)
(1.00269 -0.00277031 -3.67307e-16)
(1.00339 -0.00232822 -1.32078e-15)
(1.00399 -0.00169783 -6.89904e-16)
(1.00456 -0.000957923 -7.05849e-16)
(0.999108 -5.12656e-05 -1.97161e-17)
(0.999196 -0.000737196 1.8044e-17)
(0.999393 -0.00140784 -2.19995e-16)
(0.999705 -0.00200193 1.44619e-17)
(1.00014 -0.00250293 -8.83959e-17)
(1.00069 -0.00286644 5.2482e-18)
(1.00134 -0.00306315 3.09757e-16)
(1.00204 -0.00305906 1.18356e-15)
(1.00276 -0.00283835 1.02887e-16)
(1.00347 -0.00238765 8.24308e-16)
(1.00409 -0.0017449 -1.20827e-16)
(1.00466 -0.000995053 1.28084e-15)
(0.999067 -5.06244e-05 1.89696e-17)
(0.999157 -0.000753562 1.09549e-17)
(0.999361 -0.00144163 2.97307e-16)
(0.999685 -0.00205142 -1.73858e-16)
(1.00014 -0.00256528 -2.03562e-16)
(1.00071 -0.00293748 -2.35108e-16)
(1.00137 -0.00313806 -1.42608e-16)
(1.00209 -0.00313305 -4.74548e-16)
(1.00283 -0.002907 8.53984e-17)
(1.00355 -0.00244757 8.18934e-16)
(1.00418 -0.00179228 7.94283e-16)
(1.00476 -0.00103209 -1.13734e-15)
(0.999026 -5.06349e-05 -1.93668e-17)
(0.999117 -0.000770593 -2.39524e-16)
(0.999329 -0.0014762 -1.27493e-16)
(0.999664 -0.00210175 2.92026e-17)
(1.00013 -0.00262847 5.10299e-16)
(1.00072 -0.00300933 -4.04621e-16)
(1.0014 -0.00321371 -3.61101e-16)
(1.00214 -0.00320772 -4.46372e-16)
(1.0029 -0.00297623 -5.35095e-16)
(1.00364 -0.00250797 -1.76932e-15)
(1.00428 -0.00184027 -5.91118e-16)
(1.00486 -0.00106935 5.76531e-16)
(0.998984 -5.12912e-05 9.69245e-18)
(0.999075 -0.000788297 2.00044e-16)
(0.999295 -0.00151155 6.03223e-17)
(0.999642 -0.00215289 3.7211e-16)
(1.00013 -0.00269245 -5.88986e-16)
(1.00073 -0.00308193 5.74097e-16)
(1.00143 -0.00329003 -6.83909e-18)
(1.00219 -0.003283 1.05186e-15)
(1.00297 -0.00304599 3.79731e-16)
(1.00372 -0.00256878 2.30728e-15)
(1.00437 -0.00188885 3.28707e-16)
(1.00496 -0.00110655 5.37214e-16)
(0.998941 -5.25809e-05 -1.97885e-17)
(0.999033 -0.000806681 4.29723e-17)
(0.99926 -0.00154767 9.35716e-17)
(0.999619 -0.00220481 -1.45524e-16)
(1.00012 -0.0027572 5.03244e-16)
(1.00074 -0.00315523 -6.05694e-16)
(1.00146 -0.00336701 5.52986e-16)
(1.00224 -0.00335888 -1.41956e-16)
(1.00303 -0.00311631 2.3165e-16)
(1.0038 -0.0026301 -1.68251e-15)
(1.00447 -0.00193806 9.98691e-16)
(1.00506 -0.00114369 -1.19873e-15)
(0.998897 -5.44767e-05 2.12846e-17)
(0.998989 -0.000825745 -1.18958e-16)
(0.999224 -0.00158456 -1.72916e-16)
(0.999596 -0.0022575 -1.70922e-16)
(1.00011 -0.00282266 5.21239e-17)
(1.00075 -0.00322919 -1.59451e-16)
(1.00149 -0.00344461 -3.01203e-16)
(1.00229 -0.00343536 -6.6835e-16)
(1.0031 -0.00318721 -2.39349e-16)
(1.00388 -0.00269199 3.93222e-16)
(1.00456 -0.001988 -9.80965e-16)
(1.00516 -0.00118069 6.92947e-16)
(0.998853 -5.69468e-05 5.12858e-17)
(0.998945 -0.000845491 1.44654e-17)
(0.999188 -0.00162223 -4.60127e-17)
(0.999571 -0.00231097 1.2421e-16)
(1.0001 -0.00288885 -6.87185e-16)
(1.00076 -0.00330384 1.16315e-16)
(1.00152 -0.00352288 5.03974e-16)
(1.00233 -0.00351253 -2.81326e-16)
(1.00317 -0.00325884 9.44947e-17)
(1.00397 -0.00275464 -1.23765e-16)
(1.00466 -0.00203909 2.23898e-16)
(1.00527 -0.00121813 -5.22105e-16)
(0.998808 -5.99466e-05 -3.34786e-17)
(0.998899 -0.000865911 7.35218e-17)
(0.99915 -0.00166067 -1.34506e-16)
(0.999545 -0.00236522 -8.05659e-17)
(1.00009 -0.00295581 5.11212e-16)
(1.00077 -0.00337922 2.11415e-16)
(1.00155 -0.0036019 -2.23145e-16)
(1.00238 -0.00359049 4.57657e-16)
(1.00323 -0.00333132 1.50622e-16)
(1.00405 -0.0028182 2.97075e-16)
(1.00475 -0.00209137 -3.05699e-16)
(1.00537 -0.00125596 -1.09579e-17)
(0.998761 -6.34295e-05 -5.12707e-17)
(0.998852 -0.000886995 -2.66838e-17)
(0.99911 -0.00169989 1.3866e-16)
(0.999518 -0.0024203 1.22545e-16)
(1.00008 -0.00302359 1.59366e-16)
(1.00077 -0.00345544 4.31027e-16)
(1.00157 -0.0036818 -1.93418e-16)
(1.00243 -0.00366942 -8.62483e-17)
(1.0033 -0.00340485 -1.82744e-16)
(1.00413 -0.00288286 -6.67785e-18)
(1.00485 -0.00214496 6.62758e-18)
(1.00547 -0.00129408 3.8208e-16)
(0.998714 -6.7341e-05 8.62557e-17)
(0.998803 -0.00090872 -1.39852e-17)
(0.99907 -0.00173988 1.60278e-16)
(0.99949 -0.00247621 -7.32097e-17)
(1.00007 -0.00309225 -1.40314e-16)
(1.00078 -0.0035326 -5.67471e-16)
(1.0016 -0.00376271 -3.43618e-16)
(1.00248 -0.00374945 2.23705e-16)
(1.00337 -0.00347955 3.52213e-17)
(1.00421 -0.00294871 5.3524e-17)
(1.00494 -0.00219974 8.27322e-17)
(1.00558 -0.00133269 3.41407e-17)
(0.998665 -7.16289e-05 -8.60316e-17)
(0.998754 -0.00093106 1.31634e-16)
(0.999028 -0.00178064 -2.35968e-16)
(0.99946 -0.00253299 1.6235e-16)
(1.00005 -0.00316187 -3.7695e-18)
(1.00079 -0.0036108 3.85234e-16)
(1.00163 -0.00384475 3.35351e-16)
(1.00252 -0.00383072 -2.2392e-16)
(1.00343 -0.00355553 3.68252e-16)
(1.0043 -0.00301583 -2.3852e-16)
(1.00504 -0.00225561 7.11376e-16)
(1.00568 -0.00137162 7.15057e-16)
(0.998616 -7.62374e-05 6.59303e-17)
(0.998703 -0.000953975 -9.52867e-17)
(0.998984 -0.0018221 -4.00322e-17)
(0.999429 -0.0025906 1.20851e-16)
(1.00004 -0.00323244 -1.51675e-16)
(1.00079 -0.00369008 -2.35883e-16)
(1.00165 -0.00392798 3.60217e-16)
(1.00257 -0.00391326 -2.10935e-16)
(1.0035 -0.00363281 -4.48408e-16)
(1.00438 -0.00308417 2.4105e-16)
(1.00513 -0.0023124 -4.08295e-16)
(1.00579 -0.00141124 -5.60146e-16)
(0.998564 -8.11145e-05 2.74094e-17)
(0.998651 -0.00097742 -1.01337e-16)
(0.99894 -0.00186425 4.14061e-16)
(0.999396 -0.00264901 -2.02332e-16)
(1.00002 -0.00330397 8.26777e-17)
(1.00079 -0.00377045 -1.91764e-16)
(1.00167 -0.00401243 -4.73393e-16)
(1.00261 -0.00399708 4.11091e-16)
(1.00356 -0.00371137 4.73553e-16)
(1.00446 -0.00315371 -5.97316e-16)
(1.00523 -0.00237002 -2.32739e-16)
(1.00589 -0.0014519 -1.75589e-16)
(0.998512 -8.62087e-05 -7.85634e-17)
(0.998597 -0.00100135 3.06066e-17)
(0.998894 -0.001907 -1.87417e-16)
(0.999362 -0.00270815 2.56398e-17)
(1.00001 -0.00337637 1.14107e-16)
(1.00079 -0.00385186 4.6589e-16)
(1.0017 -0.00409802 5.03888e-18)
(1.00265 -0.00408211 -2.43245e-17)
(1.00362 -0.00379113 -6.51135e-16)
(1.00454 -0.00322431 9.55257e-17)
(1.00533 -0.0024283 -1.34273e-16)
(1.006 -0.00149362 7.15636e-17)
(0.998457 -9.14742e-05 -1.26854e-17)
(0.998543 -0.0010257 -2.33488e-17)
(0.998846 -0.0019503 -2.73503e-16)
(0.999327 -0.00276795 -4.997e-17)
(0.999987 -0.00344959 -1.79593e-16)
(1.00079 -0.00393423 -1.29942e-16)
(1.00172 -0.0041847 -1.32495e-16)
(1.0027 -0.00416828 1.62761e-16)
(1.00369 -0.00387203 1.83128e-16)
(1.00462 -0.00329593 3.13097e-16)
(1.00542 -0.00248711 4.40588e-16)
(1.0061 -0.0015363 -2.26324e-16)
(0.998401 -9.68655e-05 3.06773e-17)
(0.998487 -0.00105044 1.59421e-17)
(0.998798 -0.00199409 2.61128e-16)
(0.999291 -0.00282833 -5.24544e-17)
(0.999967 -0.00352352 -9.67658e-17)
(1.00079 -0.00401747 -1.49094e-16)
(1.00174 -0.00427236 4.421e-16)
(1.00274 -0.00425549 -2.96426e-16)
(1.00375 -0.00395394 1.04683e-16)
(1.00471 -0.00336848 4.07766e-16)
(1.00552 -0.00254637 -2.58952e-16)
(1.00621 -0.00158002 -4.02626e-17)
(0.998344 -0.000102342 -4.1945e-17)
(0.99843 -0.00107552 4.33924e-17)
(0.998748 -0.00203831 8.89979e-17)
(0.999254 -0.00288922 1.89586e-16)
(0.999946 -0.0035981 3.41599e-16)
(1.00079 -0.0041015 -2.54237e-16)
(1.00176 -0.00436093 -1.68604e-16)
(1.00278 -0.00434369 1.77729e-17)
(1.00382 -0.00403686 -3.10701e-16)
(1.00479 -0.00344197 -4.4687e-16)
(1.00562 -0.00260614 5.94359e-16)
(1.00631 -0.00162492 2.47364e-16)
(0.998284 -0.000107863 6.751e-17)
(0.998372 -0.0011009 8.24705e-17)
(0.998698 -0.00208292 -8.45395e-17)
(0.999215 -0.00295058 -1.71921e-16)
(0.999924 -0.00367326 4.47034e-17)
(1.00079 -0.00418627 4.16267e-16)
(1.00178 -0.00445037 -2.97114e-16)
(1.00282 -0.00443285 -1.07327e-17)
(1.00388 -0.00412077 3.96496e-16)
(1.00487 -0.00351639 -3.88341e-16)
(1.00572 -0.00266656 -5.04666e-16)
(1.00642 -0.00167103 -1.28387e-16)
(0.998223 -0.000113395 8.35232e-18)
(0.998313 -0.00112655 8.44367e-18)
(0.998646 -0.0021279 -2.7816e-16)
(0.999176 -0.00301239 -2.2685e-16)
(0.999901 -0.003749 -3.81649e-16)
(1.00079 -0.00427177 5.19704e-17)
(1.0018 -0.00454068 8.52157e-17)
(1.00287 -0.00452299 -5.92814e-17)
(1.00394 -0.0042057 -3.25708e-16)
(1.00495 -0.00359184 7.29351e-16)
(1.00582 -0.00272752 3.77075e-16)
(1.00653 -0.00171869 -1.15493e-16)
(0.99816 -0.0001189 -3.96559e-17)
(0.998252 -0.00115243 -7.72846e-17)
(0.998593 -0.00217323 3.70811e-16)
(0.999135 -0.00307464 3.3769e-16)
(0.999877 -0.00382532 -7.42232e-18)
(1.00078 -0.00435802 7.22306e-17)
(1.00181 -0.00463189 -1.12131e-16)
(1.00291 -0.00461416 8.23789e-17)
(1.00401 -0.00429171 3.46714e-16)
(1.00504 -0.00366834 -1.80076e-16)
(1.00592 -0.00278927 1.28048e-16)
(1.00664 -0.00176732 2.14487e-16)
(0.998096 -0.000124349 -2.48138e-18)
(0.99819 -0.00117853 5.34727e-17)
(0.998539 -0.00221892 -1.62345e-16)
(0.999093 -0.00313737 -3.19155e-16)
(0.999853 -0.00390227 1.93261e-16)
(1.00078 -0.00444508 -4.43173e-16)
(1.00183 -0.00472409 1.30944e-16)
(1.00295 -0.00470645 -1.94423e-16)
(1.00407 -0.00437891 3.07233e-17)
(1.00512 -0.00374601 1.84686e-16)
(1.00602 -0.00285231 -1.5885e-16)
(1.00675 -0.00181713 -4.77928e-16)
(0.998029 -0.00012971 2.29238e-17)
(0.998127 -0.00120481 -1.48469e-16)
(0.998484 -0.00226496 1.66575e-16)
(0.99905 -0.0032006 2.79747e-16)
(0.999827 -0.00397989 -3.59747e-16)
(1.00077 -0.00453301 -3.04365e-17)
(1.00185 -0.00481733 2.1893e-16)
(1.00299 -0.00479992 -2.6417e-16)
(1.00413 -0.00446736 -3.19973e-16)
(1.00521 -0.00382489 9.04351e-17)
(1.00612 -0.00291671 -2.76731e-16)
(1.00686 -0.00186765 4.20878e-16)
(0.997961 -0.000134957 1.50645e-17)
(0.998062 -0.00123125 7.82517e-17)
(0.998427 -0.00231135 -7.72892e-17)
(0.999006 -0.00326437 2.35735e-16)
(0.9998 -0.00405826 1.74829e-16)
(1.00077 -0.00462191 1.4721e-16)
(1.00187 -0.00491173 -2.47547e-16)
(1.00303 -0.0048947 3.77183e-16)
(1.0042 -0.00455716 -3.35211e-18)
(1.00529 -0.00390508 -7.16944e-16)
(1.00623 -0.00298241 1.36884e-16)
(1.00698 -0.00191852 -2.64863e-17)
(0.99789 -0.000140068 -2.40149e-17)
(0.997995 -0.00125784 8.0834e-17)
(0.998368 -0.00235809 -2.69251e-16)
(0.99896 -0.00332869 -1.97497e-16)
(0.999771 -0.0041374 4.01988e-17)
(1.00076 -0.00471182 1.54784e-16)
(1.00188 -0.00500735 2.58562e-16)
(1.00307 -0.00499083 3.52805e-17)
(1.00426 -0.00464836 2.79431e-17)
(1.00538 -0.00398659 4.77387e-16)
(1.00633 -0.00304943 1.44994e-16)
(1.00709 -0.00196944 -2.29729e-16)
(0.997818 -0.000145022 -1.89824e-17)
(0.997927 -0.00128454 -2.24299e-17)
(0.998309 -0.0024052 2.85385e-16)
(0.998913 -0.00339362 4.5578e-18)
(0.999742 -0.0042174 2.45813e-16)
(1.00075 -0.00480283 -2.31706e-16)
(1.0019 -0.00510428 -1.51649e-16)
(1.00311 -0.00508841 -4.504e-17)
(1.00433 -0.00474106 5.42816e-18)
(1.00546 -0.00406953 2.8997e-16)
(1.00643 -0.0031181 -4.51195e-16)
(1.00721 -0.00202081 -2.64111e-16)
(0.997744 -0.000149803 5.17632e-18)
(0.997858 -0.00131134 -7.87935e-17)
(0.998247 -0.00245266 -2.76056e-16)
(0.998865 -0.00345917 4.92065e-17)
(0.999711 -0.00429827 2.29805e-17)
(1.00074 -0.00489499 2.92448e-18)
(1.00191 -0.00520258 -8.01241e-17)
(1.00315 -0.00518751 3.48286e-16)
(1.00439 -0.00483531 3.8173e-16)
(1.00555 -0.00415391 -2.53709e-16)
(1.00654 -0.00318829 6.8341e-16)