/*--------------------------------*- C++ -*----------------------------------*\
  =========                 |
  \\      /  F ield         | OpenFOAM: The Open Source CFD Toolbox
   \\    /   O peration     | Website:  https://openfoam.org
    \\  /    A nd           | Version:  6.0
     \\/     M anipulation  |
\*---------------------------------------------------------------------------*/
FoamFile
{
    version     2.0;
    format      ascii;
    class       volVectorField;
    location    "0.8";
    object      U;
}
// * * * * * * * * * * * * * * * * * * * * * * * * * * * * * * * * * * * * * //

dimensions      [0 1 -1 0 0 0 0];

internalField   nonuniform List<vector> 
34500
(
(0.999997 5.08378e-06 -4.63274e-17)
(0.999971 -8.13568e-06 -8.13411e-18)
(0.999923 -3.29723e-05 1.42185e-16)
(0.999861 -7.41929e-05 -1.07625e-16)
(0.999793 -0.000134241 3.35352e-17)
(0.99973 -0.000211802 -1.01421e-16)
(0.99968 -0.000302883 -1.00938e-16)
(0.999651 -0.000401522 8.6473e-17)
(0.999646 -0.000499042 1.07194e-16)
(0.999667 -0.000587189 -6.8258e-16)
(0.999712 -0.000656358 -1.0393e-15)
(0.999774 -0.000707883 1.26624e-16)
(0.999849 -0.000725322 4.33238e-16)
(0.999973 -0.000772561 -2.06673e-16)
(0.999035 -0.00124195 7.57513e-17)
(0.999992 1.36772e-05 3.24443e-17)
(0.999946 -1.71933e-05 9.76189e-17)
(0.999862 -6.8902e-05 7.17354e-17)
(0.999753 -0.000148652 -3.02087e-16)
(0.999636 -0.000261052 -5.05648e-16)
(0.999528 -0.0004034 -5.501e-17)
(0.999446 -0.0005685 2.55368e-16)
(0.999401 -0.000744929 -6.76832e-16)
(0.999402 -0.000916726 -1.78497e-16)
(0.99945 -0.00106779 6.80825e-16)
(0.99954 -0.00117979 1.26071e-15)
(0.999663 -0.00125444 -6.28184e-16)
(0.999794 -0.00126004 -9.82216e-16)
(1.00007 -0.00128058 -3.93581e-16)
(0.999132 -0.00168448 5.17249e-16)
(0.99999 2.14445e-05 1.04668e-17)
(0.99995 -2.21072e-05 -1.22894e-16)
(0.99988 -8.38797e-05 -1.2513e-16)
(0.99979 -0.000167578 4.55484e-16)
(0.999696 -0.000277181 -2.86023e-17)
(0.999613 -0.000409404 -1.63924e-16)
(0.999554 -0.00055793 9.77579e-17)
(0.999528 -0.000713047 3.84307e-16)
(0.999542 -0.000860668 2.39236e-19)
(0.999598 -0.000986388 -3.92539e-16)
(0.999689 -0.00107299 -7.27082e-16)
(0.99981 -0.00112322 4.12987e-16)
(0.999917 -0.0011114 2.24298e-16)
(1.00021 -0.00109367 1.63941e-16)
(0.999643 -0.00122039 -2.43057e-16)
(0.999986 2.85829e-05 -1.73534e-17)
(0.999953 -2.79518e-05 -9.02215e-18)
(0.999899 -9.97483e-05 4.83069e-17)
(0.999831 -0.000187049 -3.05262e-16)
(0.999761 -0.00029315 3.72031e-16)
(0.999704 -0.000414641 3.29725e-16)
(0.999667 -0.000546178 -3.99185e-16)
(0.999659 -0.000680699 -4.19572e-16)
(0.999683 -0.000806471 4.34568e-16)
(0.999741 -0.00091245 -4.69985e-16)
(0.999827 -0.000983852 -2.44091e-16)
(0.999941 -0.00102548 -3.84663e-16)
(1.00002 -0.00102173 5.41051e-16)
(1.00029 -0.00100527 -4.78766e-17)
(0.999917 -0.00112274 2.13789e-17)
(0.999981 3.56391e-05 -1.70422e-17)
(0.999949 -3.49161e-05 1.53288e-16)
(0.999898 -0.000120824 6.95351e-17)
(0.999834 -0.000220481 1.69687e-16)
(0.999772 -0.00033714 4.6722e-17)
(0.999722 -0.000467234 -1.5815e-16)
(0.999693 -0.000605064 1.02452e-16)
(0.999693 -0.000744249 2.6609e-16)
(0.999725 -0.000873059 -4.17298e-16)
(0.99979 -0.000981834 -2.30734e-16)
(0.999883 -0.0010562 1.0052e-15)
(1 -0.00110153 6.3315e-16)
(1.00008 -0.00110689 -2.89028e-16)
(1.00032 -0.00108852 5.90652e-16)
(1.00008 -0.00119822 -5.85593e-16)
(0.999974 4.29459e-05 1.83506e-17)
(0.99994 -4.16041e-05 -9.47936e-17)
(0.999889 -0.000142483 -1.86288e-16)
(0.999827 -0.000256751 -5.29169e-17)
(0.999766 -0.000387692 1.0938e-16)
(0.999719 -0.000531526 -1.08782e-16)
(0.999696 -0.000681663 1.48078e-16)
(0.999704 -0.000831257 1.31091e-16)
(0.999745 -0.000967617 2.90763e-16)
(0.999821 -0.00108132 -1.00156e-16)
(0.999924 -0.00115761 2.87792e-18)
(1.00006 -0.00120078 -3.88637e-16)
(1.00015 -0.00120169 1.82749e-17)
(1.00037 -0.00116325 -4.67673e-16)
(1.00024 -0.00119762 7.39477e-17)
(0.999966 5.05552e-05 3.25521e-18)
(0.999932 -4.76026e-05 -3.55815e-17)
(0.999883 -0.000162449 -2.90118e-17)
(0.999825 -0.000289538 1.75679e-16)
(0.99977 -0.000431995 -2.20358e-16)
(0.999729 -0.000585942 2.75309e-16)
(0.999715 -0.000744178 -6.18867e-16)
(0.999732 -0.00089924 -3.69594e-16)
(0.999784 -0.00103779 -1.51476e-16)
(0.999871 -0.00115048 6.7072e-16)
(0.999984 -0.00122267 -7.67425e-16)
(1.00013 -0.00125718 2.97639e-16)
(1.00023 -0.00124727 4.55334e-16)
(1.00043 -0.00118546 -9.56434e-17)
(1.00038 -0.00115601 -1.20425e-16)
(0.999957 5.84697e-05 1.51151e-17)
(0.999924 -5.31655e-05 3.22806e-17)
(0.999879 -0.000181338 2.50219e-17)
(0.999827 -0.000320028 -1.50814e-16)
(0.99978 -0.000472081 3.28727e-16)
(0.999749 -0.000633638 -1.39521e-16)
(0.999745 -0.000797266 2.01425e-16)
(0.999773 -0.000954934 -1.46178e-16)
(0.999835 -0.00109301 3.97282e-16)
(0.999933 -0.00120212 1.77604e-16)
(1.00005 -0.00126814 2.44511e-16)
(1.00021 -0.00129257 -5.64427e-17)
(1.00032 -0.00127188 -5.03758e-16)
(1.0005 -0.00119133 1.13602e-15)
(1.00052 -0.00112577 1.86071e-16)
(0.999947 6.67333e-05 -1.12149e-17)
(0.999914 -5.8479e-05 9.89351e-17)
(0.999873 -0.000199928 1.50756e-16)
(0.999828 -0.000350145 1.11879e-16)
(0.99979 -0.000511605 -4.88464e-16)
(0.999769 -0.000680471 1.40898e-16)
(0.999775 -0.000849233 3.20538e-16)
(0.999814 -0.00100933 7.72026e-16)
(0.999888 -0.00114694 -3.85149e-16)
(0.999996 -0.00125244 8.99761e-17)
(1.00013 -0.00131231 4.48664e-16)
(1.00029 -0.00132688 -3.23373e-16)
(1.00042 -0.00129586 -1.53805e-16)
(1.00058 -0.00120001 -3.80152e-16)
(1.00064 -0.00110944 8.3842e-17)
(0.999935 7.54066e-05 4.06814e-17)
(0.999903 -6.35334e-05 -8.9718e-17)
(0.999866 -0.000218328 8.85004e-18)
(0.999828 -0.000380214 -1.10141e-16)
(0.999799 -0.000551194 4.10467e-16)
(0.999788 -0.000727335 7.95733e-17)
(0.999805 -0.000901073 2.701e-16)
(0.999855 -0.00106346 -5.72759e-16)
(0.99994 -0.00120051 4.1563e-17)
(1.00006 -0.00130243 -7.86311e-17)
(1.0002 -0.00135626 -1.39558e-16)
(1.00037 -0.00136137 4.40877e-17)
(1.00051 -0.00132061 5.91481e-16)
(1.00067 -0.0012124 -8.03008e-16)
(1.00075 -0.00110344 -2.688e-16)
(0.999922 8.45271e-05 -2.62191e-17)
(0.99989 -6.82995e-05 3.52424e-17)
(0.999858 -0.000236483 -1.47486e-16)
(0.999827 -0.000410124 2.49867e-16)
(0.999807 -0.000590656 -3.61431e-16)
(0.999807 -0.00077391 -3.02948e-16)
(0.999836 -0.000952224 -3.38696e-16)
(0.999897 -0.00111645 3.90962e-17)
(0.999993 -0.00125265 -8.13666e-17)
(1.00012 -0.00135104 -4.24236e-16)
(1.00027 -0.00139937 -7.20594e-16)
(1.00045 -0.00139627 2.85565e-16)
(1.0006 -0.00134745 -3.27985e-16)
(1.00076 -0.00123051 9.05697e-16)
(1.00086 -0.00110956 5.36205e-17)
(0.999908 9.4118e-05 -2.45509e-17)
(0.999877 -7.27744e-05 -1.0421e-16)
(0.999848 -0.000254445 1.50696e-16)
(0.999824 -0.000440046 -2.34086e-16)
(0.999814 -0.000630408 7.68433e-17)
(0.999825 -0.000820986 4.54013e-16)
(0.999865 -0.00100393 5.53712e-17)
(0.999939 -0.00117006 -6.73187e-17)
(1.00005 -0.00130561 1.81458e-16)
(1.00019 -0.00140105 -1.56825e-16)
(1.00034 -0.00144502 -9.50146e-17)
(1.00053 -0.00143548 -6.67272e-17)
(1.00069 -0.00138035 -2.86834e-16)
(1.00085 -0.00125728 -6.20541e-16)
(1.00096 -0.00112639 1.23928e-17)
(0.999892 0.000104185 -2.17629e-18)
(0.999862 -7.69684e-05 1.40466e-16)
(0.999837 -0.000272305 -2.2146e-16)
(0.999819 -0.00047024 8.33834e-17)
(0.999818 -0.000671026 -9.35338e-17)
(0.999839 -0.000869628 -1.54704e-16)
(0.999891 -0.00105789 -3.88798e-17)
(0.999977 -0.00122658 3.64908e-16)
(1.0001 -0.0013622 -6.29991e-16)
(1.00025 -0.00145562 4.20077e-16)
(1.00041 -0.00149634 2.2039e-16)
(1.00061 -0.00148163 1.83949e-16)
(1.00078 -0.00142066 7.48797e-16)
(1.00094 -0.00129159 7.2914e-16)
(1.00107 -0.00114847 5.47688e-16)
(0.999875 0.000114725 8.30189e-18)
(0.999845 -8.08698e-05 5.28652e-17)
(0.999824 -0.000290066 1.76018e-16)
(0.999812 -0.000500738 5.57551e-17)
(0.999818 -0.000712611 1.70589e-16)
(0.99985 -0.000920082 1.68004e-16)
(0.999913 -0.00111455 -1.18431e-17)
(1.00001 -0.00128666 4.92798e-17)
(1.00014 -0.00142314 9.3737e-16)
(1.0003 -0.00151519 -1.13864e-16)
(1.00048 -0.00155314 5.41914e-16)
(1.00068 -0.00153347 -7.38592e-16)
(1.00087 -0.0014657 1.36865e-16)
(1.00104 -0.00132885 -1.3432e-15)
(1.00117 -0.00117011 -6.15464e-16)
(0.999857 0.000125713 9.9381e-18)
(0.999827 -8.44724e-05 -1.17656e-16)
(0.999809 -0.000307677 1.54753e-16)
(0.999803 -0.000531379 -2.24044e-16)
(0.999817 -0.000754823 1.56793e-16)
(0.999858 -0.0009718 2.07145e-17)
(0.999933 -0.00117316 1.94957e-16)
(1.00004 -0.00134932 -2.59921e-16)
(1.00018 -0.00148711 -8.38746e-16)
(1.00036 -0.00157795 2.49173e-16)
(1.00054 -0.00161289 -5.59947e-16)
(1.00076 -0.0015876 1.12757e-16)
(1.00095 -0.00151136 -4.89872e-16)
(1.00113 -0.00136451 2.65396e-16)
(1.00128 -0.00118833 -1.08342e-16)
(0.999836 0.000137114 3.32329e-17)
(0.999808 -8.77759e-05 7.18709e-17)
(0.999793 -0.000325075 -3.58867e-16)
(0.999792 -0.000561941 2.88306e-16)
(0.999814 -0.000797159 -2.79878e-16)
(0.999865 -0.00102391 -3.72858e-16)
(0.99995 -0.00123245 -3.82813e-16)
(1.00007 -0.00141285 3.37488e-16)
(1.00022 -0.00155198 7.1862e-16)
(1.00041 -0.00164134 1.62961e-16)
(1.00061 -0.00167256 9.46648e-17)
(1.00083 -0.00164062 7.00477e-17)
(1.00103 -0.00155442 -7.32396e-16)
(1.00122 -0.00139611 6.43267e-17)
(1.0014 -0.001203 6.317e-16)
(0.999815 0.000148868 -8.96445e-17)
(0.999787 -9.08103e-05 -9.2376e-17)
(0.999775 -0.000342241 3.42764e-17)
(0.99978 -0.000592274 -2.64269e-16)
(0.99981 -0.000839222 -1.79621e-17)
(0.999871 -0.00107566 4.81504e-16)
(0.999968 -0.00129127 5.50529e-17)
(1.0001 -0.00147574 3.03983e-16)
(1.00027 -0.0016159 -6.02648e-16)
(1.00046 -0.00170329 -3.09544e-16)
(1.00067 -0.00173003 4.44395e-16)
(1.0009 -0.00169062 -1.48983e-16)
(1.00112 -0.00159371 4.83339e-16)
(1.00132 -0.00142375 7.48731e-16)
(1.00151 -0.00121622 -5.97457e-17)
(0.999791 0.000160912 2.80835e-17)
(0.999765 -9.36168e-05 1.14729e-17)
(0.999757 -0.000359196 1.15591e-16)
(0.999768 -0.000622328 2.25806e-18)
(0.999806 -0.000880823 9.88328e-17)
(0.999877 -0.00112667 -2.89541e-16)
(0.999985 -0.00134897 5.98039e-16)
(1.00013 -0.00153711 -1.53428e-16)
(1.00031 -0.00167789 6.52232e-16)
(1.00052 -0.00176284 -3.41189e-16)
(1.00074 -0.0017846 -5.43209e-16)
(1.00098 -0.00173745 5.24205e-16)
(1.00121 -0.00163 -8.83612e-16)
(1.00141 -0.00144933 -1.30098e-15)
(1.00162 -0.00123067 -3.29013e-16)
(0.999767 0.000173168 3.12681e-18)
(0.999742 -9.62589e-05 1.9494e-17)
(0.999737 -0.000376011 -3.12072e-17)
(0.999755 -0.00065218 1.58623e-16)
(0.999802 -0.000922026 1.0879e-16)
(0.999884 -0.00117695 -4.26578e-17)
(1 -0.00140555 -3.60476e-16)
(1.00016 -0.00159696 -3.4748e-16)
(1.00035 -0.00173804 -2.34861e-16)
(1.00057 -0.00182034 4.32762e-16)
(1.00081 -0.00183706 3.35288e-16)
(1.00106 -0.00178251 -4.92891e-16)
(1.00129 -0.00166539 1.09461e-15)
(1.00151 -0.00147551 1.37086e-15)
(1.00172 -0.00124855 4.6287e-17)
(0.999741 0.000185566 3.57545e-17)
(0.999717 -9.87961e-05 -4.75868e-17)
(0.999716 -0.000392774 2.29377e-16)
(0.999741 -0.000681973 -4.56818e-17)
(0.999797 -0.000963069 -1.74345e-16)
(0.99989 -0.00122687 7.391e-17)
(1.00002 -0.00146152 -1.29661e-16)
(1.00019 -0.00165599 2.93381e-16)
(1.0004 -0.00179728 7.71169e-17)
(1.00063 -0.00187705 5.39054e-17)
(1.00088 -0.00188908 -2.57141e-16)
(1.00114 -0.00182786 3.41277e-16)
(1.00138 -0.00170215 1.73903e-16)
(1.0016 -0.00150438 1.55303e-16)
(1.00182 -0.00127054 3.93151e-16)
(0.999713 0.000198032 -1.83809e-17)
(0.999691 -0.000101294 2.72409e-17)
(0.999694 -0.000409583 -3.71819e-16)
(0.999726 -0.000711886 -2.37875e-16)
(0.999791 -0.00100427 3.29212e-16)
(0.999895 -0.00127695 -8.91208e-17)
(1.00004 -0.00151766 5.20574e-16)
(1.00022 -0.00171524 -1.41329e-16)
(1.00044 -0.00185693 -7.50611e-18)
(1.00069 -0.00193454 -1.49894e-16)
(1.00094 -0.00194243 3.84839e-16)
(1.00121 -0.00187533 -2.42524e-16)
(1.00147 -0.00174185 -7.97008e-16)
(1.0017 -0.00153682 -1.89594e-16)
(1.00192 -0.00129598 -4.49107e-16)
(0.999685 0.000210507 2.47434e-17)
(0.999664 -0.000103801 1.12545e-16)
(0.999671 -0.00042651 3.35125e-16)
(0.999709 -0.000742055 2.60082e-16)
(0.999784 -0.00104589 -3.20576e-17)
(0.999899 -0.00132764 -1.30223e-16)
(1.00006 -0.00157462 -5.76296e-16)
(1.00025 -0.0017756 -6.69987e-17)
(1.00048 -0.00191806 -3.42261e-16)
(1.00074 -0.00199398 1.10842e-16)
(1.00101 -0.00199822 -7.05384e-16)
(1.00129 -0.00192577 3.40202e-16)
(1.00155 -0.00178478 1.14819e-15)
(1.00179 -0.00157228 -8.84696e-16)
(1.00202 -0.00132325 5.23541e-16)
(0.999655 0.000222934 -1.99517e-17)
(0.999635 -0.00010636 -1.58356e-16)
(0.999646 -0.000443606 -1.918e-16)
(0.99969 -0.000772558 -9.56578e-17)
(0.999774 -0.00108808 -6.12598e-17)
(0.9999 -0.00137918 8.40975e-17)
(1.00007 -0.00163279 -3.22033e-17)
(1.00028 -0.00183756 -4.42292e-16)
(1.00052 -0.00198119 -1.30172e-16)
(1.00079 -0.0020558 -3.27711e-17)
(1.00107 -0.00205666 6.42042e-16)
(1.00136 -0.00197894 1.07363e-16)
(1.00164 -0.00183019 -9.54627e-16)
(1.00189 -0.00160942 5.06261e-16)
(1.00213 -0.00135075 -1.01339e-16)
(0.999624 0.000235278 1.8023e-17)
(0.999605 -0.000108997 9.31081e-17)
(0.999619 -0.000460881 9.2314e-17)
(0.99967 -0.000803392 1.79523e-16)
(0.999763 -0.0011308 -9.7807e-17)
(0.9999 -0.00143154 -2.751e-17)
(1.00008 -0.00169212 1.98752e-16)
(1.0003 -0.00190103 2.96971e-16)
(1.00056 -0.00204615 -2.14016e-17)
(1.00084 -0.00211963 -3.58466e-16)
(1.00114 -0.00211709 -2.75503e-16)
(1.00144 -0.00203382 -4.84179e-16)
(1.00172 -0.00187673 2.03036e-17)
(1.00198 -0.00164675 2.62139e-16)
(1.00223 -0.00137743 -1.58423e-16)
(0.999592 0.000247504 -9.63679e-18)
(0.999573 -0.000111737 -5.50991e-17)
(0.999591 -0.000478339 1.40197e-16)
(0.999648 -0.00083451 1.47036e-17)
(0.99975 -0.00117394 -1.24507e-16)
(0.999897 -0.0014845 1.00397e-16)
(1.00009 -0.00175228 -4.79557e-17)
(1.00033 -0.00196555 2.73819e-16)
(1.0006 -0.0021123 5.05883e-16)
(1.00089 -0.00218466 7.85515e-17)
(1.0012 -0.00217847 2.37751e-16)
(1.00151 -0.00208922 2.41932e-16)
(1.00181 -0.00192322 5.96946e-17)
(1.00208 -0.00168336 -5.39462e-16)
(1.00233 -0.00140318 1.30614e-16)
(0.999559 0.000259601 1.29086e-17)
(0.99954 -0.00011459 1.16048e-17)
(0.999562 -0.000495961 -2.86417e-16)
(0.999625 -0.00086584 -1.25121e-16)
(0.999735 -0.00121733 1.75903e-16)
(0.999893 -0.00153778 -2.74568e-17)
(1.0001 -0.00181283 1.83625e-16)
(1.00035 -0.00203054 -2.43871e-16)
(1.00063 -0.00217891 1.39008e-16)
(1.00094 -0.00225002 1.15597e-16)
(1.00126 -0.00223989 1.21999e-16)
(1.00159 -0.00214427 1.55195e-16)
(1.00189 -0.00196904 2.15635e-16)
(1.00217 -0.00171911 3.03263e-17)
(1.00244 -0.00142863 7.6831e-17)
(0.999524 0.000271558 -3.97165e-17)
(0.999506 -0.000117577 1.05089e-16)
(0.999531 -0.000513748 1.64456e-16)
(0.9996 -0.000897337 -1.05266e-16)
(0.999719 -0.00126087 -6.84319e-17)
(0.999889 -0.00159115 3.89473e-17)
(1.00011 -0.00187344 -2.00043e-16)
(1.00037 -0.00209553 -1.30885e-16)
(1.00067 -0.00224544 -1.71899e-16)
(1.00099 -0.00231517 2.73176e-16)
(1.00133 -0.0023009 -3.789e-16)
(1.00166 -0.00219876 2.9586e-16)
(1.00198 -0.00201437 1.44832e-16)
(1.00227 -0.00175463 5.41611e-16)
(1.00254 -0.00145482 -4.94909e-16)
(0.999489 0.000283383 1.67588e-17)
(0.99947 -0.000120703 -7.90977e-17)
(0.999498 -0.000531696 5.79108e-17)
(0.999574 -0.000928984 1.28077e-16)
(0.999703 -0.0013045 -8.87906e-17)
(0.999883 -0.00164454 -1.5005e-16)
(1.00011 -0.00193398 -7.10384e-17)
(1.00039 -0.00216038 9.78895e-17)
(1.0007 -0.00231176 -4.47725e-16)
(1.00104 -0.00238007 6.60528e-17)
(1.00139 -0.00236165 2.51756e-16)
(1.00174 -0.00225309 -7.03401e-16)
(1.00207 -0.00205987 1.41954e-16)
(1.00237 -0.00179082 2.17274e-17)
(1.00265 -0.00148242 3.64942e-16)
(0.999452 0.000295082 -6.37113e-18)
(0.999433 -0.000123983 9.69425e-17)
(0.999465 -0.000549826 -9.36546e-17)
(0.999547 -0.000960813 -5.81263e-17)
(0.999685 -0.00134828 -9.27011e-17)
(0.999877 -0.00169803 -4.902e-17)
(1.00012 -0.00199458 -1.05689e-16)
(1.00041 -0.00222528 7.54507e-17)
(1.00074 -0.00237817 2.90133e-17)
(1.00109 -0.00244514 -3.09986e-16)
(1.00145 -0.00242275 -3.69717e-16)
(1.00181 -0.00230806 4.1e-16)
(1.00215 -0.00210644 -3.57694e-16)
(1.00246 -0.00182852 -1.13794e-16)
(1.00275 -0.00151193 -1.11765e-17)
(0.999414 0.000306679 -1.92787e-17)
(0.999394 -0.000127417 -4.47827e-17)
(0.99943 -0.000568153 3.1628e-17)
(0.999519 -0.000992873 2.25364e-16)
(0.999666 -0.00139234 3.76337e-16)
(0.999869 -0.00175182 3.07212e-16)
(1.00013 -0.00205554 3.35627e-16)
(1.00043 -0.00229062 -2.141e-16)
(1.00077 -0.00244515 6.74492e-20)
(1.00114 -0.002511 2.32148e-16)
(1.00152 -0.00248491 4.57022e-17)
(1.00189 -0.00236442 2.5193e-16)
(1.00224 -0.00215473 2.02335e-16)
(1.00256 -0.00186813 -5.29682e-16)
(1.00285 -0.00154308 -3.47105e-16)
(0.999375 0.000318191 9.91907e-18)
(0.999354 -0.000131011 -8.09409e-17)
(0.999393 -0.000586702 -1.61897e-16)
(0.999489 -0.00102523 -1.58909e-16)
(0.999645 -0.00143679 1.46048e-17)
(0.99986 -0.00180614 -1.73441e-16)
(1.00013 -0.0021172 -3.77606e-16)
(1.00045 -0.00235686 2.88187e-16)
(1.0008 -0.00251327 2.34356e-16)
(1.00119 -0.00257826 -5.1667e-16)
(1.00158 -0.00254872 4.23728e-16)
(1.00197 -0.00242264 -3.08789e-16)
(1.00233 -0.00220499 -1.4226e-16)
(1.00266 -0.00190955 -1.24287e-16)
(1.00296 -0.00157537 1.47889e-16)
(0.999334 0.00032965 3.77581e-17)
(0.999313 -0.000134752 1.73676e-17)
(0.999356 -0.000605475 8.75635e-17)
(0.999458 -0.00105792 4.06736e-17)
(0.999623 -0.00148175 4.78507e-17)
(0.99985 -0.00186119 2.99966e-16)
(1.00013 -0.00217982 -1.35527e-16)
(1.00047 -0.00242433 1.48078e-16)
(1.00084 -0.00258287 8.50099e-17)
(1.00123 -0.00264723 5.92324e-17)
(1.00164 -0.00261439 1.97294e-16)
(1.00204 -0.00248274 -4.20485e-17)
(1.00242 -0.00225697 9.34022e-18)
(1.00276 -0.00195227 8.66898e-16)
(1.00306 -0.00160805 2.75113e-18)
(0.999292 0.000341077 -3.66496e-17)
(0.99927 -0.000138634 -1.26572e-17)
(0.999316 -0.000624478 5.72486e-17)
(0.999425 -0.00109097 -1.74539e-16)
(0.999599 -0.00152726 -2.79548e-16)
(0.999838 -0.00191703 -2.67828e-16)
(1.00013 -0.00224352 2.26911e-16)
(1.00048 -0.00249315 -8.2981e-17)
(1.00087 -0.00265404 9.67554e-18)
(1.00128 -0.00271791 -5.01329e-18)
(1.0017 -0.00268177 -2.72514e-16)
(1.00211 -0.0025444 -2.46207e-16)
(1.0025 -0.0023102 -1.58681e-16)
(1.00285 -0.00199569 2.40649e-17)
(1.00317 -0.00164072 -5.4179e-17)
(0.999249 0.000352503 -1.82967e-17)
(0.999226 -0.000142634 4.84226e-17)
(0.999275 -0.000643692 4.76393e-17)
(0.99939 -0.00112435 7.75212e-17)
(0.999574 -0.0015733 1.06026e-16)
(0.999824 -0.00197364 1.67539e-18)
(1.00013 -0.00230825 2.26812e-16)
(1.0005 -0.00256321 -5.05696e-16)
(1.0009 -0.00272661 2.57841e-16)
(1.00133 -0.00279002 2.62918e-16)
(1.00176 -0.00275047 -3.76046e-16)
(1.00219 -0.00260711 7.02053e-16)
(1.00259 -0.0023641 3.69366e-16)
(1.00295 -0.00203932 -6.87692e-16)
(1.00327 -0.00167312 -2.04294e-16)
(0.999203 0.000363949 3.78363e-17)
(0.99918 -0.000146738 2.93785e-17)
(0.999233 -0.000663104 4.58763e-18)
(0.999354 -0.00115806 -3.47515e-17)
(0.999547 -0.00161983 2.01581e-17)
(0.999808 -0.00203094 2.84394e-16)
(1.00013 -0.00237385 -4.58362e-17)
(1.00051 -0.00263431 3.2452e-16)
(1.00093 -0.00280027 -4.80122e-17)
(1.00137 -0.00286319 -2.90819e-16)
(1.00182 -0.00282006 6.01608e-16)
(1.00226 -0.00267042 -3.60913e-16)
(1.00268 -0.00241833 -4.88339e-16)
(1.00305 -0.002083 2.06254e-16)
(1.00338 -0.00170546 3.44327e-16)
(0.999156 0.000375441 -3.14641e-17)
(0.999133 -0.000150923 -1.32637e-17)
(0.999189 -0.000682689 -1.72953e-16)
(0.999316 -0.00119203 -8.45211e-17)
(0.999518 -0.00166676 5.20499e-17)
(0.999792 -0.00208878 -2.87103e-16)
(1.00013 -0.00244013 -8.43913e-17)
(1.00052 -0.00270618 2.82838e-16)
(1.00095 -0.00287472 -2.39169e-16)
(1.00141 -0.00293706 7.01243e-17)
(1.00188 -0.0028902 -3.34997e-16)
(1.00234 -0.00273411 1.05352e-17)
(1.00276 -0.00247279 2.64319e-16)
(1.00315 -0.00212683 1.38964e-16)
(1.00349 -0.00173805 -5.40728e-17)
(0.999108 0.000386992 3.00158e-17)
(0.999084 -0.000155177 -9.73837e-17)
(0.999143 -0.000702441 8.17439e-17)
(0.999277 -0.00122627 5.34994e-17)
(0.999489 -0.00171406 -4.03356e-17)
(0.999774 -0.0021471 -1.72459e-16)
(1.00013 -0.00250698 5.22861e-17)
(1.00053 -0.00277867 -1.2967e-16)
(1.00098 -0.00294979 -2.18607e-16)
(1.00146 -0.00301152 -2.73177e-17)
(1.00194 -0.00296084 -4.84124e-16)
(1.00241 -0.00279823 4.95279e-16)
(1.00285 -0.00252771 3.84749e-17)
(1.00325 -0.00217116 -7.93336e-17)
(1.00359 -0.00177132 -7.70778e-18)
(0.999058 0.000398622 -3.68155e-17)
(0.999034 -0.000159481 1.0025e-16)
(0.999097 -0.000722349 -2.30283e-17)
(0.999237 -0.00126076 -2.09769e-16)
(0.999458 -0.00176171 -9.99432e-17)
(0.999755 -0.00220586 1.16094e-16)
(1.00012 -0.00257436 -1.70336e-16)
(1.00054 -0.00285175 -1.9078e-16)
(1.00101 -0.00302547 3.24631e-16)
(1.0015 -0.0030866 1.12938e-16)
(1.002 -0.00303213 5.07983e-16)
(1.00249 -0.00286301 -3.8194e-16)
(1.00294 -0.00258338 1.37176e-16)
(1.00335 -0.00221635 -1.54327e-16)
(1.0037 -0.00180548 5.1381e-18)
(0.999006 0.000410336 2.27867e-17)
(0.998983 -0.000163831 -5.8013e-17)
(0.999048 -0.000742424 7.20594e-17)
(0.999195 -0.00129553 3.12553e-16)
(0.999426 -0.00180975 1.3263e-16)
(0.999735 -0.00226513 8.2278e-17)
(1.00012 -0.00264235 3.38326e-16)
(1.00055 -0.00292553 1.60765e-16)
(1.00104 -0.00310194 -2.64754e-16)
(1.00155 -0.00316253 4.51029e-16)
(1.00206 -0.00310435 2.50763e-16)
(1.00256 -0.00292883 -2.1216e-16)
(1.00303 -0.00264018 -4.05606e-16)
(1.00345 -0.00226267 -1.57496e-16)
(1.00381 -0.00184065 6.07223e-17)
(0.998952 0.000422147 4.67876e-18)
(0.998929 -0.000168212 -1.23597e-16)
(0.998999 -0.00076267 -9.17206e-17)
(0.999152 -0.0013306 -2.1521e-16)
(0.999393 -0.00185825 3.45683e-17)
(0.999714 -0.002325 -3.34133e-16)
(1.00011 -0.00271108 -3.59184e-16)
(1.00056 -0.00300019 -1.44465e-16)
(1.00106 -0.00317941 3.07725e-16)
(1.00159 -0.00323959 -3.2681e-16)
(1.00212 -0.0031778 1.15534e-16)
(1.00264 -0.00299592 2.14701e-16)
(1.00312 -0.00269827 3.25777e-16)
(1.00355 -0.00231017 1.98652e-16)
(1.00391 -0.00187667 1.68458e-17)
(0.998897 0.000434057 3.28874e-17)
(0.998875 -0.000172626 2.02009e-16)
(0.998948 -0.000783109 9.40152e-17)
(0.999108 -0.00136603 1.80668e-16)
(0.999358 -0.00190727 1.08245e-16)
(0.999692 -0.00238558 4.56285e-17)
(1.0001 -0.00278071 5.26309e-17)
(1.00057 -0.00307592 -1.2091e-16)
(1.00109 -0.00325811 -1.22591e-16)
(1.00163 -0.003318 1.43635e-17)
(1.00218 -0.00325267 -7.89446e-16)
(1.00272 -0.00306445 -3.08219e-16)
(1.00321 -0.00275773 3.23941e-16)
(1.00365 -0.00235881 -7.21921e-17)
(1.00402 -0.00191342 -1.99676e-16)
(0.998841 0.000446073 -4.42023e-17)
(0.998819 -0.000177064 -1.29452e-16)
(0.998895 -0.000803751 -1.85908e-16)
(0.999062 -0.00140185 6.10718e-17)
(0.999322 -0.00195689 -2.0536e-16)
(0.999668 -0.00244696 3.82509e-17)
(1.00009 -0.00285135 -4.73435e-17)
(1.00058 -0.00315286 -8.64161e-18)
(1.00112 -0.00333816 -1.4649e-16)
(1.00168 -0.00339786 -7.67962e-17)
(1.00224 -0.00332903 2.71877e-17)
(1.00279 -0.0031344 2.67674e-16)
(1.00329 -0.00281842 -1.34845e-16)
(1.00375 -0.00240839 2.66014e-16)
(1.00413 -0.00195067 9.38944e-17)
(0.998782 0.000458194 2.36247e-17)
(0.998761 -0.000181529 1.24014e-16)
(0.998841 -0.000824614 2.36191e-16)
(0.999014 -0.00143809 -6.82439e-17)
(0.999284 -0.00200716 -1.65558e-17)
(0.999643 -0.00250922 2.50661e-16)
(1.00008 -0.00292308 2.13124e-16)
(1.00059 -0.00323107 -1.46015e-16)
(1.00114 -0.00341961 3.91129e-16)
(1.00172 -0.00347918 3.54776e-16)
(1.0023 -0.00340682 3.77157e-16)
(1.00287 -0.00320565 -1.74089e-17)
(1.00338 -0.00288022 -2.98944e-16)
(1.00385 -0.00245878 -3.13748e-16)
(1.00424 -0.00198841 -3.01976e-17)
(0.998723 0.000470427 -2.02436e-17)
(0.998701 -0.000186016 -6.54887e-17)
(0.998785 -0.000845704 -1.95765e-16)
(0.998965 -0.00147478 1.25983e-16)
(0.999244 -0.00205809 1.20879e-16)
(0.999617 -0.00257237 -1.67835e-16)
(1.00007 -0.00299589 -8.47231e-17)
(1.00059 -0.00331053 8.37392e-18)
(1.00116 -0.00350241 -1.73826e-16)
(1.00176 -0.00356188 -3.03975e-16)
(1.00236 -0.00348593 -5.60733e-16)
(1.00294 -0.00327807 6.05396e-17)
(1.00347 -0.00294299 3.64993e-16)
(1.00395 -0.00250989 3.30246e-16)
(1.00435 -0.00202661 -6.93817e-17)
(0.998661 0.000482769 -1.61093e-17)
(0.99864 -0.000190536 -1.3173e-17)
(0.998727 -0.000867038 1.71314e-16)
(0.998914 -0.00151193 -1.61635e-16)
(0.999203 -0.00210971 -3.1939e-16)
(0.999589 -0.00263641 1.54991e-16)
(1.00006 -0.00306979 8.79442e-17)
(1.0006 -0.00339121 4.07187e-16)
(1.00118 -0.00358651 5.82117e-17)
(1.0018 -0.00364588 2.83036e-16)
(1.00242 -0.00356627 8.40256e-16)
(1.00301 -0.0033516 -2.30441e-16)
(1.00356 -0.00300672 -9.77564e-17)
(1.00405 -0.00256179 -1.15289e-17)
(1.00445 -0.00206546 -2.76355e-17)
(0.998599 0.000495226 4.50526e-17)
(0.998578 -0.000195087 4.92158e-17)
(0.998668 -0.000888622 -1.47339e-16)
(0.998861 -0.00154956 1.36867e-16)
(0.999161 -0.00216201 -9.21174e-17)
(0.999559 -0.00270134 -2.96552e-16)
(1.00004 -0.00314475 1.30317e-17)
(1.0006 -0.00347307 -3.50234e-17)
(1.00121 -0.00367185 -2.15888e-16)
(1.00184 -0.00373113 1.8195e-16)
(1.00248 -0.00364783 -7.84322e-16)
(1.00309 -0.00342625 -1.42702e-17)
(1.00365 -0.00307147 -1.7462e-16)
(1.00415 -0.00261457 3.25938e-17)
(1.00456 -0.00210501 -8.18614e-17)
(0.998534 0.000507793 -1.14965e-17)
(0.998513 -0.000199688 -1.17266e-17)
(0.998607 -0.000910476 2.03877e-17)
(0.998807 -0.00158767 -1.52202e-16)
(0.999117 -0.00221503 -2.73253e-17)
(0.999528 -0.00276719 3.62102e-16)
(1.00003 -0.00322077 -2.63878e-16)
(1.0006 -0.00355612 -3.26806e-16)
(1.00123 -0.00375846 3.4988e-16)
(1.00188 -0.00381768 -3.16499e-16)
(1.00253 -0.00373067 4.0047e-16)
(1.00317 -0.00350213 3.78746e-16)
(1.00374 -0.00313739 2.72656e-16)
(1.00426 -0.00266841 -1.81284e-16)
(1.00467 -0.00214541 -6.17062e-17)
(0.998469 0.000520478 -1.23986e-17)
(0.998447 -0.000204344 -7.19551e-17)
(0.998544 -0.000932611 -9.6888e-17)
(0.998751 -0.0016263 7.11074e-17)
(0.999071 -0.00226878 1.80208e-16)
(0.999496 -0.00283396 6.3205e-17)
(1.00001 -0.00329791 2.45238e-16)
(1.0006 -0.00364042 5.35952e-17)
(1.00125 -0.0038464 -4.60015e-16)
(1.00192 -0.0039056 1.60946e-16)
(1.00259 -0.00381489 -2.27448e-16)
(1.00324 -0.00357936 -1.88851e-16)
(1.00383 -0.00320457 -2.54247e-16)
(1.00436 -0.00272334 4.01488e-17)
(1.00478 -0.00218658 1.49018e-16)
(0.998402 0.000533272 -1.90307e-17)
(0.998379 -0.000209079 3.42726e-17)
(0.99848 -0.000955051 4.1376e-17)
(0.998694 -0.00166546 -1.42524e-16)
(0.999024 -0.00232331 6.955e-17)
(0.999462 -0.00290173 -2.1101e-16)
(0.999995 -0.00337621 -2.58463e-17)
(1.0006 -0.00372604 3.17307e-16)
(1.00127 -0.00393578 -2.02368e-16)
(1.00196 -0.00399503 -2.67459e-16)
(1.00265 -0.00390063 2.29674e-16)
(1.00332 -0.00365806 -6.81541e-17)
(1.00392 -0.00327312 -7.20447e-16)
(1.00446 -0.00277943 7.34578e-17)
(1.0049 -0.00222853 1.07203e-16)
(0.998333 0.000546181 -9.79551e-18)
(0.99831 -0.000213904 3.34299e-17)
(0.998414 -0.000977812 1.25939e-17)
(0.998634 -0.00170518 1.89986e-17)
(0.998975 -0.00237863 1.20021e-16)
(0.999427 -0.00297052 6.66886e-17)
(0.999976 -0.00345576 -2.19632e-16)
(1.0006 -0.00381307 -2.00531e-17)
(1.00128 -0.00402668 6.06128e-16)
(1.002 -0.00408605 -1.94379e-16)
(1.00271 -0.00398797 -5.7139e-18)
(1.00339 -0.00373827 2.87346e-17)
(1.00401 -0.003343 2.7727e-17)
(1.00457 -0.00283656 -5.08597e-17)
(1.00501 -0.00227105 1.69214e-17)
(0.998263 0.000559193 2.58132e-17)
(0.998239 -0.000218845 -6.81908e-17)
(0.998346 -0.00100092 -7.78883e-17)
(0.998573 -0.00174549 1.49154e-19)
(0.998925 -0.00243479 -1.81229e-16)
(0.99939 -0.00304041 -2.89397e-17)
(0.999955 -0.00353661 4.26455e-17)
(1.0006 -0.00390158 -4.82865e-17)
(1.0013 -0.00411918 -4.10369e-16)
(1.00203 -0.00417872 5.46322e-16)
(1.00276 -0.00407692 -3.11723e-17)
(1.00347 -0.00381998 -5.70641e-17)
(1.0041 -0.00341416 3.36217e-16)
(1.00467 -0.00289467 -3.76824e-16)
(1.00512 -0.00231414 7.94614e-18)
(0.998191 0.000572311 2.73887e-18)
(0.998166 -0.000223915 8.18056e-17)
(0.998276 -0.00102439 2.19845e-16)
(0.998511 -0.0017864 -5.54401e-17)
(0.998872 -0.00249181 1.17779e-16)
(0.999352 -0.00311139 -1.8301e-16)
(0.999933 -0.00361877 -2.19159e-16)
(1.0006 -0.00399157 5.26342e-18)
(1.00132 -0.00421327 2.38935e-16)
(1.00207 -0.004273 -4.76832e-16)
(1.00282 -0.00416743 1.18754e-16)
(1.00354 -0.00390309 -2.06346e-17)
(1.00419 -0.00348648 2.59741e-16)
(1.00477 -0.0029536 8.02102e-17)
(1.00523 -0.00235764 -1.24771e-16)
(0.998117 0.000585518 1.0525e-18)
(0.998091 -0.00022914 -8.87867e-17)
(0.998205 -0.00104824 -1.25473e-16)
(0.998446 -0.00182793 2.07654e-17)
(0.998819 -0.00254971 -2.18815e-17)
(0.999312 -0.00318348 1.66121e-16)
(0.99991 -0.00370225 3.59826e-16)
(1.00059 -0.00408304 -3.19159e-16)
(1.00133 -0.00430892 3.63016e-16)
(1.00211 -0.00436885 3.20852e-17)
(1.00288 -0.00425943 7.11967e-17)
(1.00362 -0.00398753 -1.37469e-16)
(1.00429 -0.00355991 2.65305e-16)
(1.00488 -0.00301337 1.50261e-16)
(1.00535 -0.00240171 1.96011e-16)
(0.998042 0.000598813 -8.60793e-18)
(0.998014 -0.000234533 8.46935e-17)
(0.998131 -0.00107249 1.54547e-16)
(0.99838 -0.00187009 5.33947e-17)
(0.998763 -0.00260847 1.56171e-16)
(0.99927 -0.00325667 1.19936e-16)
(0.999885 -0.00378702 -3.23136e-16)
(1.00059 -0.00417594 6.47369e-16)
(1.00135 -0.00440608 -2.03619e-16)
(1.00214 -0.00446621 -6.77322e-17)
(1.00293 -0.00435286 -2.45114e-16)
(1.00369 -0.00407324 -1.07622e-16)
(1.00438 -0.00363441 -2.95254e-16)
(1.00499 -0.00307397 -1.0872e-16)
(1.00546 -0.00244633 4.7144e-17)
(0.997965 0.000612176 -3.05692e-17)
(0.997936 -0.000240116 -9.0573e-17)
(0.998056 -0.00109715 -1.08383e-17)
(0.998312 -0.00191289 1.06221e-16)
(0.998706 -0.0026681 -1.42126e-16)
(0.999227 -0.00333096 -1.04361e-16)
(0.99986 -0.00387307 4.04363e-16)
(1.00058 -0.00427025 -1.20765e-16)
(1.00136 -0.00450472 -5.15922e-16)
(1.00218 -0.00456505 7.09978e-17)
(1.00299 -0.00444771 -1.24456e-16)
(1.00377 -0.00416024 2.30206e-16)
(1.00447 -0.00371006 3.68602e-16)
(1.00509 -0.00313551 3.28154e-16)
(1.00558 -0.00249174 -2.74745e-16)
(0.997885 0.000625602 1.83329e-18)
(0.997856 -0.000245901 -1.7471e-17)
(0.997979 -0.00112225 -7.23178e-17)
(0.998242 -0.00195635 4.50775e-17)
(0.998647 -0.00272862 -7.88072e-17)
(0.999183 -0.00340633 1.34406e-16)
(0.999833 -0.00396038 -1.16195e-16)
(1.00057 -0.00436596 3.98756e-17)
(1.00138 -0.00460483 -1.0814e-16)
(1.00221 -0.00466538 2.75099e-16)
(1.00305 -0.00454401 3.36548e-16)
(1.00384 -0.00424861 1.94476e-18)
(1.00457 -0.00378692 -5.86642e-16)
(1.0052 -0.00319809 -3.99002e-16)
(1.0057 -0.00253794 2.71815e-16)