1.275 	2.15223e-18 	-2.76991e-20 	0.211371 	-0.0100664 	-1.2146e-22
1.825 	2.15223e-18 	-1.39322e-20 	0.508069 	-0.00979966 	-1.16764e-22
2.375 	2.15223e-18 	-2.66896e-23 	0.753108 	-0.00604145 	-5.04284e-24
