1.45 	0 	0 	-0.305144
2.35 	0 	0 	-0.0997531
