1.45 	0 	0 	-0.306168
2.35 	0 	0 	-0.132581
