1.45 	0 	0 	-0.223891
2.35 	0 	0 	0.00114561
