1.45 	0 	0 	-0.0798753
2.35 	0 	0 	0.0322078
