/*--------------------------------*- C++ -*----------------------------------*\
  =========                 |
  \\      /  F ield         | OpenFOAM: The Open Source CFD Toolbox
   \\    /   O peration     | Website:  https://openfoam.org
    \\  /    A nd           | Version:  6.0
     \\/     M anipulation  |
\*---------------------------------------------------------------------------*/
FoamFile
{
    version     2.0;
    format      ascii;
    class       surfaceScalarField;
    location    "184";
    object      phi;
}
// * * * * * * * * * * * * * * * * * * * * * * * * * * * * * * * * * * * * * //

dimensions      [0 3 -1 0 0 0 0];

internalField   nonuniform List<scalar> 
68636
(
3.02267e-05
0.00310561
3.35542e-09
6.08407e-05
0.00307075
9.10888e-05
0.00300253
0.000120478
0.00290147
0.000148621
0.00276858
0.000175171
0.00260532
0.000199814
0.00241351
0.000222266
0.00219524
0.000242269
0.00195294
0.000259596
0.00168922
0.00027405
0.00140701
0.00028547
0.00110928
0.000293748
0.000799407
0.00029873
0.00048011
0.000150307
0.000298442
2.99462e-05
0.00307565
9.28191e-09
6.02824e-05
0.00304041
9.02557e-05
0.00297256
0.000119378
0.00287234
0.000147264
0.00274069
0.000173572
0.00257901
0.000197989
0.00238909
0.000220236
0.00217299
0.000240056
0.00193311
0.000257225
0.00167205
0.000271548
0.00139269
0.000282861
0.00109796
0.000291101
0.000791159
0.00029582
0.000475379
0.000150335
0.000295774
2.96682e-05
0.00304597
1.50865e-08
5.97289e-05
0.00301035
8.94302e-05
0.00294285
0.000118288
0.00284348
0.000145921
0.00271305
0.000171989
0.00255294
0.000196185
0.00236489
0.000218229
0.00215095
0.000237868
0.00191347
0.000254881
0.00165504
0.000269074
0.00137849
0.000280276
0.00108676
0.000288444
0.000782993
0.000293234
0.000470592
0.00014989
0.000293689
2.93929e-05
0.00301656
2.07855e-08
5.91808e-05
0.00298056
8.86125e-05
0.00291342
0.000117208
0.00281489
0.00014459
0.00268567
0.000170421
0.00252711
0.000194397
0.00234091
0.00021624
0.0021291
0.000235701
0.00189401
0.000252558
0.00163818
0.000266621
0.00136443
0.000277716
0.00107566
0.000285791
0.000774914
0.000290606
0.000465771
0.000149131
0.000291354
2.91202e-05
0.00298741
2.64288e-08
5.86376e-05
0.00295105
8.78022e-05
0.00288426
0.000116138
0.00278655
0.000143271
0.00265853
0.000168867
0.00250152
0.000192624
0.00231715
0.000214269
0.00210746
0.000233551
0.00187472
0.000250254
0.00162148
0.00026419
0.00135049
0.00027518
0.00106467
0.000283157
0.000766939
0.000287938
0.000460993
0.000148203
0.000288878
2.88499e-05
0.00295853
3.20863e-08
5.80993e-05
0.0029218
8.69991e-05
0.00285536
0.000115078
0.00275847
0.000141964
0.00263165
0.000167327
0.00247615
0.000190867
0.00229361
0.000212314
0.00208601
0.000231421
0.00185561
0.000247971
0.00160492
0.00026178
0.00133668
0.000272669
0.00105378
0.000280551
0.000759054
0.000285285
0.000456255
0.000147123
0.000286358
2.8582e-05
0.00292991
3.77602e-08
5.75658e-05
0.00289281
8.6203e-05
0.00282672
0.000114026
0.00273065
0.000140668
0.002605
0.0001658
0.00245102
0.000189126
0.00227029
0.000210378
0.00206476
0.000229311
0.00183668
0.000245709
0.00158853
0.000259391
0.001323
0.000270182
0.00104299
0.000277976
0.000751263
0.000282658
0.000451576
0.000145973
0.000283819
2.83164e-05
0.00290155
4.34837e-08
5.70369e-05
0.00286409
8.5414e-05
0.00279834
0.000112984
0.00270308
0.000139384
0.0025786
0.000164287
0.00242612
0.000187401
0.00224717
0.000208459
0.0020437
0.000227219
0.00181792
0.000243468
0.00157228
0.000257025
0.00130944
0.000267719
0.00103229
0.00027543
0.000743549
0.000280062
0.000446941
0.000144748
0.000281282
2.80532e-05
0.00287345
4.92705e-08
5.65127e-05
0.00283563
8.4632e-05
0.00277022
0.000111952
0.00267576
0.000138111
0.00255244
0.000162788
0.00240144
0.000185692
0.00222427
0.000206558
0.00202284
0.000225147
0.00179933
0.000241247
0.00155618
0.00025468
0.00129601
0.000265277
0.0010217
0.000272912
0.000735917
0.000277496
0.00044236
0.000143493
0.00027876
2.77923e-05
0.0028456
5.51009e-08
5.59932e-05
0.00280743
8.38569e-05
0.00274236
0.000110928
0.00264869
0.00013685
0.00252652
0.000161302
0.00237699
0.000183997
0.00220157
0.000204673
0.00200216
0.000223093
0.00178091
0.000239046
0.00154022
0.000252355
0.0012827
0.000262858
0.00101119
0.000270419
0.000728354
0.000274958
0.000437819
0.000142193
0.000276254
2.75336e-05
0.002818
6.09754e-08
5.54782e-05
0.00277949
8.30886e-05
0.00271475
0.000109914
0.00262186
0.0001356
0.00250084
0.00015983
0.00235276
0.000182318
0.00217908
0.000202806
0.00198167
0.000221058
0.00176266
0.000236866
0.00152442
0.000250052
0.00126951
0.00026046
0.00100079
0.000267951
0.000720865
0.000272447
0.000433325
0.000140883
0.000273765
2.72773e-05
0.00279066
6.68685e-08
5.49678e-05
0.0027518
8.23272e-05
0.00268739
0.000108908
0.00259528
0.000134361
0.00247538
0.00015837
0.00232875
0.000180654
0.0021568
0.000200955
0.00196137
0.000219041
0.00174457
0.000234705
0.00150875
0.00024777
0.00125645
0.000258084
0.000990471
0.000265506
0.000713442
0.000269961
0.000428868
0.000139546
0.000271295
2.70231e-05
0.00276356
7.27442e-08
5.44619e-05
0.00272436
8.15725e-05
0.00266028
0.000107912
0.00256894
0.000133133
0.00245016
0.000156924
0.00230496
0.000179005
0.00213472
0.000199122
0.00194126
0.000217043
0.00172665
0.000232563
0.00149323
0.000245509
0.0012435
0.000255729
0.000980253
0.000263083
0.000706089
0.000267499
0.000424455
0.00013821
0.000268843
2.67713e-05
0.00273671
7.85757e-08
5.39605e-05
0.00269717
8.08245e-05
0.00263341
0.000106925
0.00254284
0.000131916
0.00242517
0.000155491
0.00228138
0.000177371
0.00211284
0.000197305
0.00192132
0.000215062
0.00170889
0.000230441
0.00147785
0.000243268
0.00123067
0.000253395
0.000970125
0.000260683
0.000698799
0.00026506
0.000420076
0.000136855
0.000266411
2.65216e-05
0.00271011
8.43289e-08
5.34635e-05
0.00267023
8.00833e-05
0.00260679
0.000105946
0.00251698
0.00013071
0.00240041
0.00015407
0.00225802
0.000175752
0.00209116
0.000195504
0.00190157
0.0002131
0.0016913
0.000228339
0.00146262
0.000241048
0.00121797
0.000251082
0.000960092
0.000258305
0.000691578
0.000262643
0.00041574
0.000135506
0.000264
2.62742e-05
0.00268374
8.99723e-08
5.2971e-05
0.00264353
7.93486e-05
0.00258041
0.000104976
0.00249135
0.000129515
0.00237587
0.000152663
0.00223487
0.000174147
0.00206967
0.000193719
0.001882
0.000211155
0.00167386
0.000226255
0.00144752
0.000238848
0.00120537
0.00024879
0.000950149
0.000255948
0.000684418
0.000260249
0.000411436
0.000134144
0.000261608
2.6029e-05
0.00265762
9.54842e-08
5.24829e-05
0.00261708
7.86205e-05
0.00255428
0.000104015
0.00246596
0.000128331
0.00235155
0.000151268
0.00221194
0.000172557
0.00204838
0.000191951
0.0018626
0.000209228
0.00165659
0.00022419
0.00143255
0.000236668
0.00119289
0.000246519
0.000940299
0.000253612
0.000677326
0.000257877
0.000407174
0.00013279
0.000259237
2.5786e-05
0.00263173
1.00844e-07
5.19992e-05
0.00259086
7.7899e-05
0.00252838
0.000103062
0.00244079
0.000127157
0.00232746
0.000149886
0.00218921
0.000170981
0.00202729
0.000190199
0.00184339
0.000207318
0.00163946
0.000222145
0.00141773
0.000234508
0.00118053
0.000244269
0.000930537
0.000251298
0.000670296
0.000255526
0.000402944
0.000131428
0.000256885
2.55452e-05
0.00260608
1.06036e-07
5.15199e-05
0.00256489
7.7184e-05
0.00250271
0.000102118
0.00241586
0.000125994
0.00230358
0.000148516
0.00216668
0.000169419
0.00200638
0.000188462
0.00182434
0.000205426
0.0016225
0.000220117
0.00140304
0.000232368
0.00116828
0.000242039
0.000920866
0.000249006
0.000663331
0.000253197
0.000398755
0.000130078
0.000254553
2.53066e-05
0.00258066
1.11056e-07
5.10448e-05
0.00253915
7.64754e-05
0.00247728
0.000101183
0.00239115
0.000124841
0.00227992
0.000147159
0.00214437
0.000167872
0.00198567
0.000186741
0.00180547
0.000203551
0.00160569
0.000218108
0.00138848
0.000230247
0.00115614
0.00023983
0.000911282
0.000246734
0.000656426
0.000250889
0.000394599
0.000128724
0.00025224
2.50702e-05
0.00255548
1.15897e-07
5.05741e-05
0.00251365
7.57732e-05
0.00245208
0.000100256
0.00236667
0.000123699
0.00225648
0.000145813
0.00212225
0.000166338
0.00196514
0.000185036
0.00178678
0.000201693
0.00158904
0.000216118
0.00137405
0.000228146
0.00114411
0.000237641
0.000901787
0.000244483
0.000649585
0.000248602
0.000390482
0.000127385
0.000249946
2.4836e-05
0.00253052
1.20563e-07
5.01077e-05
0.00248837
7.50774e-05
0.00242711
9.93373e-05
0.00234241
0.000122567
0.00223325
0.000144481
0.00210034
0.000164819
0.00194481
0.000183347
0.00176825
0.000199852
0.00157253
0.000214145
0.00135976
0.000226064
0.00113219
0.000235473
0.000892377
0.000242253
0.000642804
0.000246336
0.000386398
0.000126045
0.000247673
2.4604e-05
0.00250579
1.25058e-07
4.96455e-05
0.00246333
7.43879e-05
0.00240237
9.84271e-05
0.00231837
0.000121446
0.00221023
0.00014316
0.00207863
0.000163313
0.00192465
0.000181672
0.00174989
0.000198027
0.00155618
0.000212191
0.0013456
0.000224
0.00112039
0.000233324
0.000883054
0.000240043
0.000636086
0.00024409
0.000382353
0.000124721
0.00024542
2.43741e-05
0.00248129
1.29392e-07
4.91876e-05
0.00243852
7.37047e-05
0.00237785
9.75251e-05
0.00229455
0.000120334
0.00218742
0.000141851
0.00205711
0.000161821
0.00190468
0.000180013
0.0017317
0.000196219
0.00153997
0.000210254
0.00133156
0.000221956
0.00110868
0.000231195
0.000873815
0.000237854
0.000629425
0.000241866
0.000378339
0.000123397
0.000243187
2.41464e-05
0.00245701
1.3358e-07
4.87338e-05
0.00241393
7.30277e-05
0.00235356
9.66312e-05
0.00227095
0.000119233
0.00216482
0.000140554
0.00203579
0.000160342
0.00188489
0.000178369
0.00171367
0.000194427
0.00152391
0.000208334
0.00131766
0.00021993
0.00109709
0.000229085
0.000864661
0.000235685
0.000622826
0.000239662
0.000374364
0.000122088
0.000240975
2.39207e-05
0.00243295
1.37642e-07
4.82842e-05
0.00238957
7.23568e-05
0.00232949
9.57455e-05
0.00224756
0.000118142
0.00214242
0.000139268
0.00201466
0.000158877
0.00186529
0.00017674
0.00169581
0.000192652
0.001508
0.000206433
0.00130387
0.000217923
0.0010856
0.000226995
0.000855589
0.000233535
0.000616284
0.000237478
0.00037042
0.000120781
0.000238783
2.36972e-05
0.00240911
1.416e-07
4.78387e-05
0.00236543
7.16921e-05
0.00230563
9.48679e-05
0.00222438
0.00011706
0.00212023
0.000137995
0.00199373
0.000157425
0.00184586
0.000175125
0.00167811
0.000190893
0.00149223
0.000204548
0.00129022
0.000215934
0.00107421
0.000224923
0.0008466
0.000231406
0.000609803
0.000235314
0.000366513
0.000119489
0.00023661
2.34758e-05
0.00238549
1.45482e-07
4.73972e-05
0.00234151
7.10334e-05
0.002282
9.39982e-05
0.00220142
0.000115989
0.00209824
0.000136733
0.00197298
0.000155986
0.0018266
0.000173525
0.00166057
0.00018915
0.00147661
0.000202681
0.00127669
0.000213963
0.00106293
0.000222871
0.000837692
0.000229295
0.000603378
0.00023317
0.000362637
0.000118198
0.000234458
2.32564e-05
0.00236208
1.49313e-07
4.69598e-05
0.0023178
7.03807e-05
0.00225858
9.31364e-05
0.00217866
0.000114927
0.00207645
0.000135482
0.00195243
0.00015456
0.00180752
0.00017194
0.00164319
0.000187422
0.00146112
0.00020083
0.00126328
0.000212011
0.00105175
0.000220837
0.000828866
0.000227205
0.000597011
0.000231046
0.000358797
0.000116924
0.000232324
2.3039e-05
0.00233889
1.53116e-07
4.65265e-05
0.00229431
6.9734e-05
0.00223537
9.22824e-05
0.00215611
0.000113874
0.00205486
0.000134243
0.00193206
0.000153147
0.00178862
0.000170369
0.00162597
0.000185711
0.00144578
0.000198997
0.00124999
0.000210076
0.00104067
0.000218823
0.000820118
0.000225133
0.0005907
0.000228941
0.000354988
0.000115652
0.00023021
2.28237e-05
0.00231591
1.56911e-07
4.6097e-05
0.00227104
6.90931e-05
0.00221237
9.14362e-05
0.00213377
0.000112832
0.00203346
0.000133015
0.00191188
0.000151747
0.00176989
0.000168813
0.0016089
0.000184014
0.00143058
0.00019718
0.00123683
0.000208158
0.00102969
0.000216826
0.000811451
0.00022308
0.000584447
0.000226855
0.000351215
0.000114395
0.000228115
2.26103e-05
0.00229314
1.60712e-07
4.56715e-05
0.00224798
6.84581e-05
0.00218959
9.05977e-05
0.00211163
0.000111798
0.00201226
0.000131798
0.00189188
0.00015036
0.00175132
0.00016727
0.00159199
0.000182334
0.00141552
0.00019538
0.00122378
0.000206259
0.00101881
0.000214848
0.000802861
0.000221046
0.000578248
0.000224788
0.000347472
0.000113142
0.000226038
2.2399e-05
0.00227058
1.64528e-07
4.52499e-05
0.00222513
6.78288e-05
0.00216701
8.97667e-05
0.00208969
0.000110774
0.00199126
0.000130592
0.00187206
0.000148985
0.00173293
0.000165742
0.00157523
0.000180668
0.00140059
0.000193596
0.00121085
0.000204376
0.00100803
0.000212888
0.00079435
0.00021903
0.000572106
0.00022274
0.000343764
0.000111904
0.000223981
2.21895e-05
0.00224822
1.68361e-07
4.48321e-05
0.00220249
6.72053e-05
0.00214463
8.89434e-05
0.00206795
0.00010976
0.00197044
0.000129397
0.00185242
0.000147623
0.0017147
0.000164227
0.00155863
0.000179018
0.0013858
0.000191828
0.00119804
0.000202511
0.000997347
0.000210945
0.000785915
0.000217033
0.000566017
0.00022071
0.000340086
0.00011067
0.000221942
2.1982e-05
0.00222606
1.72208e-07
4.44182e-05
0.00218005
6.65874e-05
0.00212247
8.81275e-05
0.00204641
0.000108754
0.00194981
0.000128213
0.00183296
0.000146273
0.00169664
0.000162726
0.00154218
0.000177383
0.00137114
0.000190077
0.00118535
0.000200663
0.000986762
0.000209021
0.000777557
0.000215055
0.000559984
0.0002187
0.000336442
0.000109451
0.000219922
2.17764e-05
0.00220411
1.76061e-07
4.4008e-05
0.00215782
6.59751e-05
0.0021005
8.7319e-05
0.00202507
0.000107758
0.00192937
0.000127039
0.00181368
0.000144935
0.00167875
0.000161239
0.00152587
0.000175763
0.00135662
0.000188341
0.00117277
0.000198831
0.000976271
0.000207114
0.000769273
0.000213094
0.000554004
0.000216707
0.000332828
0.000108236
0.000217919
2.15726e-05
0.00218236
1.79906e-07
4.36015e-05
0.00213579
6.53684e-05
0.00207873
8.65178e-05
0.00200392
0.000106771
0.00190912
0.000125876
0.00179458
0.00014361
0.00166101
0.000159765
0.00150972
0.000174157
0.00134223
0.000186622
0.00116031
0.000197017
0.000965877
0.000205225
0.000761066
0.000211151
0.000548078
0.000214733
0.000329248
0.000107036
0.000215935
2.13707e-05
0.0021608
1.83726e-07
4.31988e-05
0.00211396
6.47672e-05
0.00205716
8.57239e-05
0.00198296
0.000105792
0.00188905
0.000124724
0.00177564
0.000142297
0.00164344
0.000158305
0.00149371
0.000172566
0.00132797
0.000184918
0.00114796
0.000195219
0.000955576
0.000203353
0.000752931
0.000209226
0.000542204
0.000212776
0.000325697
0.000105841
0.000213969
2.11707e-05
0.00213945
1.87502e-07
4.27996e-05
0.00209233
6.41715e-05
0.00203579
8.49372e-05
0.0019622
0.000104823
0.00186917
0.000123583
0.00175688
0.000140995
0.00162603
0.000156858
0.00147785
0.00017099
0.00131383
0.000183229
0.00113572
0.000193437
0.000945368
0.000201498
0.000744871
0.000207319
0.000536383
0.000210838
0.000322179
0.00010466
0.000212021
2.09724e-05
0.00211828
1.91216e-07
4.24041e-05
0.0020709
6.35812e-05
0.00201461
8.41577e-05
0.00194162
0.000103862
0.00184946
0.000122451
0.0017383
0.000139705
0.00160877
0.000155425
0.00146213
0.000169428
0.00129983
0.000181557
0.00112359
0.000191672
0.000935253
0.00019966
0.000736882
0.000205429
0.000530613
0.000208917
0.00031869
0.000103485
0.00021009
2.0776e-05
0.00209731
1.94851e-07
4.20122e-05
0.00204966
6.29962e-05
0.00199363
8.33852e-05
0.00192123
0.00010291
0.00182994
0.00012133
0.00171988
0.000138428
0.00159168
0.000154004
0.00144655
0.00016788
0.00128595
0.000179899
0.00111157
0.000189923
0.000925229
0.000197838
0.000728967
0.000203556
0.000524896
0.000207014
0.000315233
0.000102324
0.000208177
2.05813e-05
0.00207653
1.98398e-07
4.16239e-05
0.00202862
6.24165e-05
0.00197284
8.26198e-05
0.00190103
0.000101967
0.00181059
0.000120219
0.00170162
0.000137161
0.00157474
0.000152596
0.00143112
0.000166347
0.0012722
0.000178256
0.00109966
0.000188189
0.000915296
0.000196034
0.000721122
0.000201701
0.000519229
0.000205128
0.000311805
0.000101169
0.000206281
2.03884e-05
0.00205594
2.01853e-07
4.12391e-05
0.00200777
6.18421e-05
0.00195224
8.18612e-05
0.00188101
0.000101033
0.00179142
0.000119119
0.00168354
0.000135907
0.00155795
0.000151201
0.00141582
0.000164827
0.00125858
0.000176629
0.00108786
0.000186472
0.000905453
0.000194246
0.000713348
0.000199862
0.000513614
0.000203259
0.000308409
0.000100027
0.000204403
2.01973e-05
0.00203554
2.05221e-07
4.08577e-05
0.00198711
6.12729e-05
0.00193182
8.11096e-05
0.00186117
0.000100106
0.00177242
0.000118028
0.00166561
0.000134663
0.00154131
0.000149819
0.00140067
0.000163321
0.00124508
0.000175016
0.00107616
0.000184771
0.000895698
0.000192474
0.000705644
0.00019804
0.000508047
0.000201407
0.000305041
9.88905e-05
0.000202542
2.00078e-05
0.00201532
2.08514e-07
4.04798e-05
0.00196664
6.07089e-05
0.00191159
8.03649e-05
0.00184152
9.91886e-05
0.0017536
0.000116947
0.00164786
0.000133431
0.00152483
0.00014845
0.00138565
0.00016183
0.0012317
0.000173418
0.00106457
0.000183085
0.000886032
0.000190719
0.000698009
0.000196235
0.000502532
0.000199573
0.000301705
9.77672e-05
0.000200697
1.98201e-05
0.00199529
2.11751e-07
4.01054e-05
0.00194635
6.015e-05
0.00189155
7.96269e-05
0.00182204
9.82793e-05
0.00173494
0.000115876
0.00163026
0.000132211
0.00150849
0.000147093
0.00137076
0.000160351
0.00121844
0.000171835
0.00105309
0.000181414
0.000876453
0.00018898
0.000690443
0.000194446
0.000497064
0.000197755
0.000298396
9.66499e-05
0.00019887
1.96341e-05
0.00197544
2.14956e-07
3.97343e-05
0.00192625
5.95962e-05
0.00187168
7.88956e-05
0.00180274
9.73782e-05
0.00171646
0.000114815
0.00161282
0.000131001
0.00149231
0.000145748
0.00135602
0.000158886
0.0012053
0.000170266
0.00104171
0.000179759
0.000866961
0.000187256
0.000682946
0.000192674
0.000491647
0.000195953
0.000295117
9.5545e-05
0.00019706
1.94497e-05
0.00195577
2.18153e-07
3.93666e-05
0.00190634
5.90474e-05
0.001852
7.81709e-05
0.00178362
9.64853e-05
0.00169815
0.000113764
0.00159554
0.000129803
0.00147627
0.000144416
0.0013414
0.000157435
0.00119228
0.000168712
0.00103043
0.000178119
0.000857554
0.000185549
0.000675515
0.000190918
0.000486277
0.000194168
0.000291867
9.44464e-05
0.000195266
1.9267e-05
0.00193629
2.21366e-07
3.90022e-05
0.0018866
5.85036e-05
0.0018325
7.74529e-05
0.00176467
9.56005e-05
0.00168
0.000112722
0.00157842
0.000128615
0.00146038
0.000143096
0.00132692
0.000155997
0.00117938
0.000167172
0.00101926
0.000176494
0.000848232
0.000183857
0.000668152
0.000189178
0.000480955
0.0001924
0.000288646
9.33597e-05
0.000193488
1.9086e-05
0.00191698
2.24612e-07
3.86411e-05
0.00186705
5.79647e-05
0.00181318
7.67414e-05
0.00174589
9.47238e-05
0.00166202
0.000111689
0.00156146
0.000127438
0.00144463
0.000141787
0.00131258
0.000154572
0.00116659
0.000165646
0.00100818
0.000174883
0.000838994
0.00018218
0.000660855
0.000187454
0.000475681
0.000190648
0.000285452
9.22796e-05
0.000191726
1.89066e-05
0.00189784
2.27905e-07
3.82834e-05
0.00184767
5.74307e-05
0.00179403
7.60363e-05
0.00172729
9.38551e-05
0.0016442
0.000110667
0.00154464
0.000126272
0.00142902
0.000140491
0.00129836
0.00015316
0.00115393
0.000164134
0.000997209
0.000173288
0.00082984
0.000180519
0.000653624
0.000185746
0.000470454
0.000188911
0.000282287
9.1211e-05
0.000189981
1.87288e-05
0.00187888
2.3125e-07
3.79288e-05
0.00182847
5.69016e-05
0.00177506
7.53377e-05
0.00170885
9.29943e-05
0.00162654
0.000109653
0.00152799
0.000125117
0.00141356
0.000139207
0.00128427
0.000151761
0.00114137
0.000162635
0.000986334
0.000171707
0.000820768
0.000178874
0.000646457
0.000184054
0.000465273
0.000187191
0.00027915
9.01493e-05
0.000188251
1.85526e-05
0.00186009
2.34646e-07
3.75775e-05
0.00180944
5.63773e-05
0.00175626
7.46455e-05
0.00169058
9.21414e-05
0.00160905
0.000108649
0.00151148
0.000123972
0.00139823
0.000137935
0.0012703
0.000150375
0.00112893
0.000161151
0.000975558
0.000170141
0.000811778
0.000177243
0.000639355
0.000182377
0.00046014
0.000185486
0.000276041
8.90987e-05
0.000186538
1.8378e-05
0.00184148
2.38086e-07
3.72294e-05
0.00179059
5.58578e-05
0.00173763
7.39596e-05
0.00167248
9.12963e-05
0.00159171
0.000107653
0.00149512
0.000122838
0.00138305
0.000136674
0.00125647
0.000149001
0.0011166
0.00015968
0.000964879
0.000168589
0.000802869
0.000175627
0.000632317
0.000180715
0.000455051
0.000183797
0.000272959
8.80554e-05
0.000184839
1.8205e-05
0.00182303
2.41561e-07
3.68844e-05
0.00177191
5.53431e-05
0.00171917
7.328e-05
0.00165454
9.04589e-05
0.00157453
0.000106667
0.00147891
0.000121714
0.001368
0.000135424
0.00124276
0.00014764
0.00110439
0.000158223
0.000954297
0.000167051
0.000794041
0.000174026
0.000625342
0.000179069
0.000450008
0.000182124
0.000269904
8.70226e-05
0.000183157
1.80335e-05
0.00180475
2.45055e-07
3.65426e-05
0.0017534
5.4833e-05
0.00170088
7.26065e-05
0.00163677
8.96292e-05
0.00155751
0.00010569
0.00146285
0.000120601
0.00135309
0.000134186
0.00122917
0.000146292
0.00109228
0.000156779
0.00094381
0.000165528
0.000785291
0.00017244
0.000618429
0.000177438
0.00044501
0.000180466
0.000266876
8.59973e-05
0.00018149
1.78636e-05
0.00178664
2.48557e-07
3.62039e-05
0.00173506
5.43276e-05
0.00168276
7.19392e-05
0.00161916
8.8807e-05
0.00154064
0.000104722
0.00144694
0.000119497
0.00133832
0.00013296
0.00121571
0.000144956
0.00108029
0.000155348
0.000933418
0.000164018
0.000776621
0.000170868
0.000611579
0.000175822
0.000440057
0.000178823
0.000263876
8.4982e-05
0.000179838
1.76953e-05
0.00176869
2.52051e-07
3.58683e-05
0.00171689
5.38268e-05
0.0016648
7.1278e-05
0.00160171
8.79923e-05
0.00152393
0.000103763
0.00143117
0.000118404
0.00132368
0.000131745
0.00120237
0.000143632
0.0010684
0.00015393
0.000923119
0.000162523
0.000768029
0.000169311
0.00060479
0.00017422
0.000435148
0.000177195
0.000260901
8.39743e-05
0.000178202
1.75284e-05
0.00175091
2.55527e-07
3.55358e-05
0.00169888
5.33305e-05
0.00164701
7.06228e-05
0.00158441
8.71851e-05
0.00150736
0.000102812
0.00141554
0.000117321
0.00130917
0.000130541
0.00118915
0.00014232
0.00105662
0.000152526
0.000912914
0.000161041
0.000759514
0.000167768
0.000598062
0.000172634
0.000430283
0.000175582
0.000257953
8.29761e-05
0.00017658
1.73631e-05
0.00173329
2.58972e-07
3.52062e-05
0.00168104
5.28388e-05
0.00162937
6.99737e-05
0.00156728
8.63853e-05
0.00149095
0.000101871
0.00140005
0.000116247
0.00129479
0.000129347
0.00117605
0.000141021
0.00104495
0.000151134
0.0009028
0.000159572
0.000751076
0.00016624
0.000591394
0.000171061
0.000425461
0.000173984
0.00025503
8.19856e-05
0.000174973
1.71992e-05
0.00171583
2.62379e-07
3.48797e-05
0.00166336
5.23516e-05
0.0016119
6.93304e-05
0.0015503
8.55928e-05
0.00147469
0.000100938
0.00138471
0.000115184
0.00128055
0.000128165
0.00116307
0.000139733
0.00103338
0.000149755
0.000892778
0.000158117
0.000742713
0.000164725
0.000584786
0.000169504
0.000420682
0.0001724
0.000252134
8.10041e-05
0.000173382
1.70369e-05
0.00169852
2.65741e-07
3.45561e-05
0.00164584
5.18688e-05
0.00159459
6.8693e-05
0.00153347
8.48076e-05
0.00145858
0.000100013
0.0013695
0.00011413
0.00126643
0.000126994
0.0011502
0.000138457
0.00102191
0.000148389
0.000882846
0.000156676
0.000734426
0.000163224
0.000578238
0.00016796
0.000415946
0.000170831
0.000249263
8.00305e-05
0.000171804
1.6876e-05
0.00168138
2.6905e-07
3.42355e-05
0.00162848
5.13904e-05
0.00157743
6.80615e-05
0.0015168
8.40295e-05
0.00144261
9.90968e-05
0.00135443
0.000113086
0.00125244
0.000125833
0.00113745
0.000137193
0.00101055
0.000147035
0.000873004
0.000155248
0.000726214
0.000161737
0.000571748
0.000166431
0.000411252
0.000169277
0.000246418
7.90654e-05
0.000170242
1.67166e-05
0.00166439
2.72306e-07
3.39178e-05
0.00161128
5.09164e-05
0.00156043
6.74357e-05
0.00150028
8.32585e-05
0.00142678
9.81891e-05
0.0013395
0.000112051
0.00123858
0.000124684
0.00112482
0.000135941
0.000999297
0.000145694
0.000863251
0.000153833
0.000718075
0.000160264
0.000565316
0.000164916
0.0004066
0.000167737
0.000243597
7.81085e-05
0.000168693
1.65586e-05
0.00164756
2.75506e-07
3.3603e-05
0.00159424
5.04467e-05
0.00154359
6.68157e-05
0.00148392
8.24946e-05
0.00141111
9.72897e-05
0.00132471
0.000111026
0.00122484
0.000123544
0.0011123
0.0001347
0.000988141
0.000144365
0.000853585
0.000152431
0.000710009
0.000158805
0.000558942
0.000163415
0.000401989
0.000166211
0.000240801
7.71595e-05
0.000167159
1.6402e-05
0.00163088
2.78651e-07
3.3291e-05
0.00157735
4.99813e-05
0.0015269
6.62013e-05
0.0014677
8.17377e-05
0.00139557
9.63985e-05
0.00131005
0.000110011
0.00121123
0.000122415
0.0010999
0.00013347
0.000977086
0.000143048
0.000844007
0.000151041
0.000702016
0.000157358
0.000552625
0.000161928
0.000397419
0.000164699
0.000238031
7.6219e-05
0.000165639
1.62468e-05
0.00161435
2.81747e-07
3.29819e-05
0.00156061
4.95201e-05
0.00151036
6.55925e-05
0.00145162
8.09878e-05
0.00138017
9.55155e-05
0.00129552
0.000109004
0.00119774
0.000121297
0.00108761
0.000132252
0.000966131
0.000141744
0.000834515
0.000149665
0.000694095
0.000155926
0.000546364
0.000160454
0.00039289
0.000163201
0.000235284
7.5286e-05
0.000164133
1.60931e-05
0.00159797
2.84802e-07
3.26756e-05
0.00154403
4.90631e-05
0.00149398
6.49893e-05
0.0014357
8.02447e-05
0.00136492
9.46406e-05
0.00128112
0.000108007
0.00118437
0.000120189
0.00107542
0.000131045
0.000955275
0.000140451
0.000825108
0.000148301
0.000686245
0.000154506
0.00054016
0.000158994
0.000388402
0.000161717
0.000232562
7.43617e-05
0.000162641
1.59407e-05
0.00158174
2.87825e-07
3.23721e-05
0.0015276
4.86104e-05
0.00147774
6.43916e-05
0.00141992
7.95084e-05
0.0013498
9.37737e-05
0.00126686
0.000107019
0.00117113
0.000119091
0.00106335
0.000129849
0.000944517
0.000139171
0.000815786
0.00014695
0.000678465
0.000153099
0.000534011
0.000157548
0.000383953
0.000160246
0.000229863
7.34444e-05
0.000161163
1.57897e-05
0.00156566
2.90831e-07
3.20713e-05
0.00151132
4.81617e-05
0.00146165
6.37994e-05
0.00140428
7.87788e-05
0.00133482
9.29148e-05
0.00125272
0.00010604
0.001158
0.000118003
0.00105139
0.000128664
0.000933855
0.000137902
0.000806548
0.000145612
0.000670755
0.000151706
0.000527917
0.000156115
0.000379544
0.000158789
0.000227189
7.25359e-05
0.000159698
1.564e-05
0.00154973
2.93833e-07
3.17733e-05
0.00149518
4.77171e-05
0.0014457
6.32126e-05
0.00138878
7.8056e-05
0.00131998
9.20637e-05
0.00123872
0.00010507
0.001145
0.000116925
0.00103954
0.00012749
0.00092329
0.000136645
0.000797392
0.000144285
0.000663114
0.000150325
0.000521877
0.000154695
0.000375173
0.000157346
0.000224538
7.1634e-05
0.000158247
1.54917e-05
0.00153394
2.96847e-07
3.1478e-05
0.0014792
4.72766e-05
0.0014299
6.26312e-05
0.00137343
7.73397e-05
0.00130527
9.12205e-05
0.00122483
0.00010411
0.00113211
0.000115857
0.00102779
0.000126327
0.00091282
0.000135399
0.00078832
0.000142971
0.000655542
0.000148957
0.000515891
0.000153288
0.000370842
0.000155915
0.00022191
7.0741e-05
0.000156809
1.53448e-05
0.00151829
2.99884e-07
3.11853e-05
0.00146336
4.68401e-05
0.00141425
6.2055e-05
0.00135821
7.66301e-05
0.0012907
9.0385e-05
0.00121108
0.000103157
0.00111933
0.000114799
0.00101615
0.000125174
0.000902445
0.000134165
0.000779328
0.000141669
0.000648038
0.000147601
0.000509959
0.000151894
0.000366549
0.000154498
0.000219305
6.98539e-05
0.000155384
1.51991e-05
0.00150279
3.02959e-07
3.08954e-05
0.00144766
4.64076e-05
0.00139874
6.14842e-05
0.00134314
7.59269e-05
0.00127625
8.95572e-05
0.00119745
0.000102214
0.00110668
0.00011375
0.00100461
0.000124032
0.000892163
0.000132942
0.000770418
0.000140379
0.000640601
0.000146258
0.00050408
0.000150513
0.000362295
0.000153095
0.000216724
6.8976e-05
0.000153973
1.50548e-05
0.00148743
3.06077e-07
3.0608e-05
0.00143211
4.59791e-05
0.00138337
6.09186e-05
0.0013282
7.52302e-05
0.00126194
8.8737e-05
0.00118394
0.000101279
0.00109414
0.000112711
0.00099318
0.000122901
0.000881973
0.000131731
0.000761588
0.000139101
0.00063323
0.000144928
0.000498253
0.000149145
0.000358078
0.000151704
0.000214164
6.81036e-05
0.000152575
1.49118e-05
0.00147221
3.09244e-07
3.03233e-05
0.00141669
4.55545e-05
0.00136814
6.03582e-05
0.00131339
7.45399e-05
0.00124776
8.79243e-05
0.00117056
0.000100353
0.00108171
0.000111682
0.000981851
0.00012178
0.000871875
0.000130531
0.000752837
0.000137835
0.000625926
0.00014361
0.000492478
0.000147789
0.000353899
0.000150326
0.000211628
6.72404e-05
0.000151189
1.477e-05
0.00145713
3.1246e-07
3.00411e-05
0.00140142
4.51337e-05
0.00135304
5.98029e-05
0.00129872
7.38559e-05
0.00123371
8.71192e-05
0.00115729
9.94359e-05
0.00106939
0.000110662
0.000970625
0.000120669
0.000861868
0.000129342
0.000744164
0.000136581
0.000618686
0.000142304
0.000486755
0.000146446
0.000349756
0.00014896
0.000209113
6.63822e-05
0.000149817
1.46295e-05
0.00144218
3.15724e-07
2.97616e-05
0.00138629
4.47168e-05
0.00133809
5.92526e-05
0.00128419
7.31782e-05
0.00121978
8.63214e-05
0.00114415
9.85268e-05
0.00105718
0.000109652
0.000959499
0.000119569
0.000851951
0.000128164
0.000735569
0.000135338
0.000611512
0.00014101
0.000481083
0.000145115
0.000345651
0.000147608
0.000206621
6.55334e-05
0.000148457
1.44903e-05
0.00142737
3.1903e-07
2.94845e-05
0.0013713
4.43037e-05
0.00132327
5.87075e-05
0.00126978
7.25068e-05
0.00120598
8.55309e-05
0.00113113
9.76261e-05
0.00104509
0.000108651
0.000948474
0.000118479
0.000842124
0.000126996
0.000727052
0.000134106
0.000604402
0.000139728
0.000475461
0.000143797
0.000341581
0.000146268
0.00020415
6.46893e-05
0.00014711
1.43523e-05
0.0014127
3.22371e-07
2.921e-05
0.00135644
4.38944e-05
0.00130858
5.81673e-05
0.00125551
7.18415e-05
0.00119231
8.47478e-05
0.00111822
9.67337e-05
0.0010331
0.000107659
0.000937548
0.000117399
0.000832384
0.00012584
0.00071861
0.000132886
0.000597355
0.000138458
0.000469889
0.000142491
0.000337548
0.00014494
0.000201702
6.38547e-05
0.000145775
1.42156e-05
0.00139816
3.2574e-07
2.8938e-05
0.00134172
4.34888e-05
0.00129403
5.76321e-05
0.00124137
7.11823e-05
0.00117876
8.39718e-05
0.00110543
9.58496e-05
0.00102123
0.000106677
0.000926721
0.000116329
0.000822732
0.000124694
0.000710245
0.000131678
0.000590371
0.0001372
0.000464367
0.000141197
0.00033355
0.000143625
0.000199273
6.30243e-05
0.000144453
1.40801e-05
0.00138375
3.29128e-07
2.86685e-05
0.00132713
4.30869e-05
0.00127962
5.71018e-05
0.00122735
7.05292e-05
0.00116533
8.3203e-05
0.00109276
9.49736e-05
0.00100945
0.000105703
0.000915991
0.000115269
0.000813167
0.000123559
0.000701954
0.00013048
0.00058345