/*--------------------------------*- C++ -*----------------------------------*\
  =========                 |
  \\      /  F ield         | OpenFOAM: The Open Source CFD Toolbox
   \\    /   O peration     | Website:  https://openfoam.org
    \\  /    A nd           | Version:  6.0
     \\/     M anipulation  |
\*---------------------------------------------------------------------------*/
FoamFile
{
    version     2.0;
    format      ascii;
    class       volScalarField;
    location    "0.4";
    object      p;
}
// * * * * * * * * * * * * * * * * * * * * * * * * * * * * * * * * * * * * * //

dimensions      [0 2 -2 0 0 0 0];

internalField   nonuniform List<scalar> 
200
(
5.60259e-07
-0.00230862
-0.00419955
-0.00509962
-0.00510173
-0.0042662
-0.00252439
0.000329258
0.00464522
0.0109232
0.019795
0.031944
0.0479064
0.0677009
0.0902926
0.113085
0.131942
0.14241
0.142344
0.135607
0.00237489
-0.000140461
-0.0015716
-0.00203391
-0.00181681
-0.000889672
0.00088713
0.00371727
0.00788085
0.0137494
0.0217963
0.0325752
0.0466093
0.0641108
0.0844727
0.105674
0.12411
0.135472
0.136646
0.129324
0.00423108
0.000797113
-0.000655863
-0.000951913
-0.000704294
0.000132324
0.0017114
0.00419217
0.00775973
0.0126642
0.0192806
0.0281624
0.0400196
0.0555011
0.0746613
0.0961754
0.116755
0.131352
0.134447
0.12526
0.00361954
-0.000824065
-0.00241981
-0.00266865
-0.00247323
-0.00177436
-0.000445661
0.00157256
0.00432069
0.0078999
0.012595
0.0190089
0.0281269
0.0411692
0.0590723
0.0815709
0.106094
0.126813
0.134866
0.125775
-0.00127955
-0.00636517
-0.00772743
-0.007638
-0.00721436
-0.00634753
-0.00496908
-0.00316939
-0.00109324
0.00119259
0.0038813
0.00762471
0.0136666
0.0237763
0.0398313
0.0629485
0.0920154
0.121298
0.138712
0.13461
-0.0125444
-0.0172544
-0.0171897
-0.0158252
-0.0143922
-0.0126561
-0.0106141
-0.0085144
-0.00666512
-0.00525401
-0.00413043
-0.00257689
0.000858702
0.00836311
0.0225797
0.0459588
0.0793313
0.118499
0.15006
0.158832
-0.0332585
-0.0347646
-0.0305094
-0.0260868
-0.0224097
-0.0188997
-0.015535
-0.0126263
-0.0105247
-0.00941182
-0.00907044
-0.00865381
-0.00650909
-0.000135112
0.0136478
0.0382614
0.0763067
0.126264
0.176918
0.209323
-0.0705196
-0.0596632
-0.0456929
-0.0356996
-0.0284649
-0.0225558
-0.0176534
-0.0138684
-0.0113763
-0.0101891
-0.00991133
-0.00949953
-0.00707169
0.000187035
0.0159671
0.0445574
0.0901377
0.154618
0.233575
0.308197
-0.146818
-0.0895945
-0.0539781
-0.0367612
-0.0265535
-0.0192775
-0.0139838
-0.0103181
-0.00809616
-0.00710389
-0.00678855
-0.00596955
-0.00261185
0.00634688
0.0251424
0.0593273
0.115895
0.203084
0.331703
0.494569
-0.307969
-0.112699
-0.0367436
-0.0176685
-0.0102196
-0.00540209
-0.00247285
-0.000913164
-0.000317559
-0.000434544
-0.000771185
-0.000231894
0.00313346
0.0123441
0.031792
0.0679376
0.131452
0.242132
0.437167
0.752174
)
;

boundaryField
{
    movingWall
    {
        type            zeroGradient;
    }
    fixedWalls
    {
        type            zeroGradient;
    }
    frontAndBack
    {
        type            empty;
    }
}


// ************************************************************************* //
