1.275 	2.15223e-18 	-2.76991e-20 	-0.0341898 	-0.000448384 	-1.97051e-22
1.825 	2.15223e-18 	-1.39322e-20 	-0.00896859 	-0.00276828 	1.76518e-21
2.375 	2.15223e-18 	-2.66896e-23 	0.116721 	-0.0032506 	-7.36886e-22
