1.45 	0 	0 	-0.279598
2.35 	0 	0 	-0.0465145
