1.45 	0 	0 	-0.291341
2.35 	0 	0 	-0.126563
