1.45 	0 	0 	-0.0081387 	-0.00256909 	3.78264e-21
2.35 	0 	0 	0.061339 	-0.00662969 	2.28496e-21
