/*--------------------------------*- C++ -*----------------------------------*\
  =========                 |
  \\      /  F ield         | OpenFOAM: The Open Source CFD Toolbox
   \\    /   O peration     | Website:  https://openfoam.org
    \\  /    A nd           | Version:  6.0
     \\/     M anipulation  |
\*---------------------------------------------------------------------------*/
FoamFile
{
    version     2.0;
    format      ascii;
    class       volVectorField;
    location    "83";
    object      U;
}
// * * * * * * * * * * * * * * * * * * * * * * * * * * * * * * * * * * * * * //

dimensions      [0 1 -1 0 0 0 0];

internalField   nonuniform List<vector> 
34500
(
(0.999996 1.22838e-05 -4.63392e-17)
(0.999968 -3.03222e-06 -8.13742e-18)
(0.999914 -3.1901e-05 1.42255e-16)
(0.999842 -8.01538e-05 -1.07683e-16)
(0.999763 -0.000150506 3.35619e-17)
(0.999688 -0.000241721 -1.01488e-16)
(0.999629 -0.000349294 -1.00996e-16)
(0.999592 -0.000465903 8.65568e-17)
(0.999584 -0.000582441 1.07246e-16)
(0.999602 -0.000693538 -6.82957e-16)
(0.999646 -0.000791264 -1.03999e-15)
(0.999703 -0.000898595 1.26759e-16)
(0.999772 -0.00098899 4.33816e-16)
(0.999987 -0.00124607 -2.07163e-16)
(0.997028 -0.0031235 7.69896e-17)
(0.999991 3.2896e-05 3.24525e-17)
(0.99994 -3.60084e-06 9.76573e-17)
(0.999844 -6.41669e-05 7.17723e-17)
(0.999719 -0.000157572 -3.02264e-16)
(0.999582 -0.000288981 -5.05965e-16)
(0.999454 -0.000456652 -5.5054e-17)
(0.999355 -0.000651318 2.5554e-16)
(0.9993 -0.000858981 -6.77266e-16)
(0.999296 -0.00106036 -1.7862e-16)
(0.999341 -0.00124607 6.81298e-16)
(0.999428 -0.00139825 1.26164e-15)
(0.999543 -0.0015575 -6.28794e-16)
(0.999638 -0.00167362 -9.83565e-16)
(1.00015 -0.00197246 -3.94612e-16)
(0.997097 -0.00383577 5.2451e-16)
(0.999987 5.04791e-05 1.04695e-17)
(0.999941 -1.17368e-06 -1.22943e-16)
(0.999859 -7.44846e-05 -1.25193e-16)
(0.999752 -0.000174633 4.55752e-16)
(0.999637 -0.000306383 -2.86271e-17)
(0.99953 -0.000468511 -1.64043e-16)
(0.999452 -0.000652032 9.78359e-17)
(0.999413 -0.000844474 3.84571e-16)
(0.999421 -0.00102512 2.28197e-19)
(0.999475 -0.00118625 -3.92804e-16)
(0.999564 -0.00130886 -7.27642e-16)
(0.999685 -0.00142831 4.13393e-16)
(0.999719 -0.00151605 2.24604e-16)
(1.0003 -0.00169551 1.64327e-16)
(0.998302 -0.00256098 -2.458e-16)
(0.999983 6.55436e-05 -1.73579e-17)
(0.999944 -1.06234e-06 -9.02593e-18)
(0.999876 -8.64805e-05 4.8332e-17)
(0.99979 -0.000192086 -3.05445e-16)
(0.9997 -0.0003223 3.72274e-16)
(0.999617 -0.000476451 3.29951e-16)
(0.999559 -0.000647084 -3.99471e-16)
(0.999533 -0.000824849 -4.19886e-16)
(0.999547 -0.00099028 4.34895e-16)
(0.9996 -0.001139 -4.70358e-16)
(0.99968 -0.0012534 -2.44312e-16)
(0.9998 -0.00136672 -3.85077e-16)
(0.999775 -0.0014714 5.41883e-16)
(1.0003 -0.00161315 -4.80128e-17)
(0.998891 -0.00236739 2.1609e-17)
(0.999976 7.89475e-05 -1.70466e-17)
(0.999937 -3.30571e-06 1.5335e-16)
(0.999872 -0.000104523 6.95718e-17)
(0.999791 -0.000223907 1.69789e-16)
(0.999709 -0.000365846 4.67535e-17)
(0.999635 -0.000529326 -1.58264e-16)
(0.999585 -0.000707214 1.02528e-16)
(0.999565 -0.000891597 2.6629e-16)
(0.999584 -0.00106336 -4.17623e-16)
(0.99964 -0.00122044 -2.30934e-16)
(0.99972 -0.00134479 1.00609e-15)
(0.999849 -0.00147067 6.33832e-16)
(0.999802 -0.00159539 -2.89483e-16)
(1.00022 -0.00172381 5.92135e-16)
(0.999223 -0.0024224 -5.90486e-16)
(0.999968 9.12559e-05 1.83554e-17)
(0.999927 -6.28633e-06 -9.48319e-17)
(0.999861 -0.000123798 -1.86386e-16)
(0.999781 -0.000258983 -5.295e-17)
(0.999703 -0.000415945 1.09456e-16)
(0.999634 -0.000592309 -1.08865e-16)
(0.999593 -0.000780181 1.48191e-16)
(0.999583 -0.000971617 1.31193e-16)
(0.99961 -0.00114722 2.90994e-16)
(0.999676 -0.00130595 -1.00246e-16)
(0.999763 -0.0014289 2.88734e-18)
(0.999909 -0.00154834 -3.89063e-16)
(0.999861 -0.00166654 1.83049e-17)
(1.00016 -0.00175677 -4.68885e-16)
(0.999475 -0.00224636 7.45014e-17)
(0.999959 0.000102708 3.25608e-18)
(0.999917 -9.42362e-06 -3.55961e-17)
(0.999853 -0.000141972 -2.90277e-17)
(0.999776 -0.000291263 1.7579e-16)
(0.999705 -0.000460998 -2.2051e-16)
(0.999646 -0.000647045 2.75509e-16)
(0.999616 -0.000840618 -6.19346e-16)
(0.999617 -0.00103338 -3.69888e-16)
(0.999656 -0.00120604 -1.51598e-16)
(0.999734 -0.00135812 6.71282e-16)
(0.999827 -0.00147117 -7.68127e-16)
(0.999988 -0.00157292 2.97967e-16)
(0.99995 -0.00167769 4.56088e-16)
(1.00014 -0.00172758 -9.58972e-17)
(0.999637 -0.00207679 -1.21256e-16)
(0.999949 0.000113493 1.51192e-17)
(0.999906 -1.28169e-05 3.22937e-17)
(0.999846 -0.000159545 2.50349e-17)
(0.999775 -0.000321878 -1.50911e-16)
(0.999711 -0.000503338 3.28964e-16)
(0.999662 -0.000698092 -1.39631e-16)
(0.999643 -0.000896741 2.01576e-16)
(0.999656 -0.00109068 -1.46309e-16)
(0.999705 -0.00126126 3.97619e-16)
(0.999793 -0.00140834 1.77764e-16)
(0.999892 -0.0015148 2.44746e-16)
(1.00006 -0.00160308 -5.6499e-17)
(1.00005 -0.00170003 -5.04592e-16)
(1.00015 -0.00172147 1.13901e-15)
(0.999765 -0.00199442 1.87254e-16)
(0.999937 0.000123814 -1.12179e-17)
(0.999895 -1.6532e-05 9.89761e-17)
(0.999838 -0.000177144 1.50838e-16)
(0.999772 -0.000352325 1.11952e-16)
(0.999716 -0.000545634 -4.88821e-16)
(0.999676 -0.000749626 1.41006e-16)
(0.999667 -0.000954414 3.20799e-16)
(0.99969 -0.00115122 7.72677e-16)
(0.999749 -0.00132216 -3.85477e-16)
(0.999846 -0.00146729 9.00673e-17)
(0.999951 -0.00157068 4.49123e-16)
(1.00013 -0.00164921 -3.23743e-16)
(1.00014 -0.00173804 -1.54067e-16)
(1.00019 -0.00173471 -3.81112e-16)
(0.999907 -0.00193063 8.43281e-17)
(0.999925 0.000133891 4.06925e-17)
(0.999883 -2.04596e-05 -8.97554e-17)
(0.999829 -0.000194765 8.85521e-18)
(0.999769 -0.000382552 -1.10214e-16)
(0.99972 -0.000587448 4.10774e-16)
(0.99969 -0.000800403 7.96376e-17)
(0.99969 -0.00101096 2.70336e-16)
(0.999725 -0.00121016 -5.73262e-16)
(0.999793 -0.00138084 4.16002e-17)
(0.9999 -0.00152324 -7.86979e-17)
(1.00001 -0.00162255 -1.39684e-16)
(1.0002 -0.00169009 4.41355e-17)
(1.00024 -0.00176659 5.92485e-16)
(1.00026 -0.00173855 -8.05077e-16)
(1.00006 -0.00186252 -2.70281e-16)
(0.999912 0.000143896 -2.62262e-17)
(0.999869 -2.44967e-05 3.5257e-17)
(0.999819 -0.000212335 -1.47567e-16)
(0.999765 -0.000412363 2.50036e-16)
(0.999725 -0.000628233 -3.61706e-16)
(0.999705 -0.000849353 -3.03201e-16)
(0.999717 -0.00106461 -3.38988e-16)
(0.999763 -0.00126484 3.9126e-17)
(0.999842 -0.00143353 -8.1443e-17)
(0.999959 -0.00157126 -4.2465e-16)
(1.00008 -0.00166473 -7.21356e-16)
(1.00027 -0.00172017 2.85908e-16)
(1.00033 -0.00178323 -3.28528e-16)
(1.00034 -0.00173478 9.07966e-16)
(1.00021 -0.00180832 5.38853e-17)
(0.999897 0.000153991 -2.45576e-17)
(0.999855 -2.855e-05 -1.04255e-16)
(0.999809 -0.000229883 1.5078e-16)
(0.999761 -0.000441945 -2.34245e-16)
(0.99973 -0.000668417 7.69016e-17)
(0.99972 -0.000897352 4.54397e-16)
(0.999743 -0.00111703 5.54215e-17)
(0.999801 -0.00131803 -6.73864e-17)
(0.999891 -0.00148443 1.81632e-16)
(1.00002 -0.00161718 -1.5699e-16)
(1.00014 -0.00170495 -9.5126e-17)
(1.00034 -0.00174946 -6.68059e-17)
(1.00043 -0.00180063 -2.87319e-16)
(1.00043 -0.00173735 -6.2208e-16)
(1.00035 -0.00177548 1.24486e-17)
(0.999881 0.000164301 -2.17689e-18)
(0.999839 -3.25403e-05 1.40526e-16)
(0.999797 -0.00024746 -2.21585e-16)
(0.999756 -0.000471536 8.34406e-17)
(0.999734 -0.000708518 -9.36074e-17)
(0.999734 -0.000945372 -1.54836e-16)
(0.999767 -0.00116997 -3.89144e-17)
(0.999836 -0.0013726 3.65251e-16)
(0.999937 -0.00153776 -6.30611e-16)
(1.00008 -0.0016666 4.20502e-16)
(1.00021 -0.00174992 2.20628e-16)
(1.00041 -0.00178534 1.84182e-16)
(1.00052 -0.00182559 7.5005e-16)
(1.00052 -0.00175002 7.30903e-16)
(1.00049 -0.00175788 5.50116e-16)
(0.999864 0.000174947 8.30422e-18)
(0.999821 -3.63546e-05 5.28881e-17)
(0.999783 -0.000265007 1.76118e-16)
(0.999749 -0.000501124 5.57939e-17)
(0.999736 -0.000748525 1.70723e-16)
(0.999746 -0.000993355 1.6815e-16)
(0.999789 -0.00122334 -1.18538e-17)
(0.999869 -0.00142853 4.9329e-17)
(0.99998 -0.00159366 9.38307e-16)
(1.00013 -0.00171978 -1.13984e-16)
(1.00027 -0.00179961 5.42536e-16)
(1.00047 -0.00182702 -7.39535e-16)
(1.0006 -0.00185594 1.37111e-16)
(1.00062 -0.00176805 -1.34643e-15)
(1.00063 -0.00174824 -6.18114e-16)
(0.999846 0.000186011 9.94093e-18)
(0.999803 -3.9899e-05 -1.17707e-16)
(0.999768 -0.000282456 1.54842e-16)
(0.999741 -0.000530641 -2.24199e-16)
(0.999737 -0.000788272 1.56917e-16)
(0.999756 -0.00104085 2.07337e-17)
(0.99981 -0.00127623 1.9514e-16)
(0.9999 -0.00148439 -2.60175e-16)
(1.00002 -0.00165023 -8.39599e-16)
(1.00018 -0.00177432 2.4944e-16)
(1.00033 -0.0018511 -5.60593e-16)
(1.00054 -0.00187099 1.12892e-16)
(1.00068 -0.00188798 -4.90678e-16)
(1.00071 -0.00178765 2.66003e-16)
(1.00076 -0.00174428 -1.08783e-16)
(0.999827 0.000197577 3.32423e-17)
(0.999782 -4.30696e-05 7.19024e-17)
(0.999751 -0.000299726 -3.59073e-16)
(0.999731 -0.000560062 2.88509e-16)
(0.999736 -0.000827767 -2.801e-16)
(0.999766 -0.00108775 -3.73187e-16)
(0.99983 -0.00132823 -3.83175e-16)
(0.999931 -0.00153933 3.37825e-16)
(1.00006 -0.00170615 7.19365e-16)
(1.00023 -0.0018286 1.63146e-16)
(1.0004 -0.00190255 9.47745e-17)
(1.0006 -0.0019154 7.01319e-17)
(1.00076 -0.00192039 -7.33642e-16)
(1.0008 -0.00180824 6.44672e-17)
(1.00089 -0.00174558 6.34202e-16)
(0.999806 0.000209699 -8.96698e-17)
(0.999761 -4.57863e-05 -9.24168e-17)
(0.999733 -0.000316772 3.42952e-17)
(0.999718 -0.000589467 -2.64456e-16)
(0.999733 -0.000867286 -1.79783e-17)
(0.999773 -0.0011345 4.81935e-16)
(0.999848 -0.0013798 5.51033e-17)
(0.99996 -0.00159367 3.04297e-16)
(1.0001 -0.00176157 -6.03286e-16)
(1.00028 -0.00188263 -3.09883e-16)
(1.00046 -0.00195401 4.44939e-16)
(1.00067 -0.00196046 -1.49195e-16)
(1.00084 -0.00195384 4.84145e-16)
(1.0009 -0.00183079 7.50429e-16)
(1.00101 -0.00175218 -5.99653e-17)
(0.999784 0.000222443 2.80914e-17)
(0.999737 -4.79462e-05 1.14779e-17)
(0.999712 -0.000333492 1.15658e-16)
(0.999704 -0.000618867 2.25873e-18)
(0.999727 -0.000907097 9.8912e-17)
(0.999778 -0.0011817 -2.89801e-16)
(0.999865 -0.00143179 5.98628e-16)
(0.999988 -0.00164837 -1.53576e-16)
(1.00014 -0.00181741 6.52942e-16)
(1.00033 -0.0019373 -3.41586e-16)
(1.00052 -0.0020063 -5.43885e-16)
(1.00073 -0.00200695 5.24926e-16)
(1.00092 -0.00198909 -8.85147e-16)
(1.00099 -0.00185567 -1.30395e-15)
(1.00113 -0.00176278 -3.30235e-16)
(0.99976 0.000235852 3.12769e-18)
(0.999712 -4.94613e-05 1.95028e-17)
(0.99969 -0.000349764 -3.12262e-17)
(0.999686 -0.000648178 1.5874e-16)
(0.999718 -0.000947297 1.08881e-16)
(0.99978 -0.00122975 -4.26971e-17)
(0.999877 -0.00148492 -3.60828e-16)
(1.00001 -0.00170436 -3.47843e-16)
(1.00018 -0.00187462 -2.35115e-16)
(1.00038 -0.00199347 4.3327e-16)
(1.00058 -0.00206013 3.35718e-16)
(1.0008 -0.00205527 -4.93592e-16)
(1.001 -0.00202628 1.09648e-15)
(1.00108 -0.00188248 1.37389e-15)
(1.00125 -0.00177611 4.64473e-17)
(0.999735 0.000249983 3.57647e-17)
(0.999685 -5.0226e-05 -4.76089e-17)
(0.999665 -0.000365396 2.29519e-16)
(0.999667 -0.000677145 -4.57154e-17)
(0.999705 -0.00098767 -1.74497e-16)
(0.999777 -0.00127861 7.39823e-17)
(0.999887 -0.00153941 -1.29793e-16)
(1.00003 -0.00176202 2.9371e-16)
(1.00021 -0.00193363 7.72121e-17)
(1.00042 -0.00205143 5.39778e-17)
(1.00063 -0.00211553 -2.5748e-16)
(1.00086 -0.00210511 3.41767e-16)
(1.00108 -0.00206474 1.74215e-16)
(1.00117 -0.00191006 1.55661e-16)
(1.00137 -0.0017905 3.94534e-16)
(0.999709 0.000264875 -1.83861e-17)
(0.999657 -5.01669e-05 2.72534e-17)
(0.999639 -0.000380216 -3.72051e-16)
(0.999645 -0.000705444 -2.38061e-16)
(0.999691 -0.00102778 3.29506e-16)
(0.999772 -0.00132785 -8.92083e-17)
(0.999893 -0.00159493 5.21139e-16)
(1.00005 -0.00182113 -1.4148e-16)
(1.00024 -0.00199421 -7.50786e-18)
(1.00047 -0.00211086 -1.50078e-16)
(1.00069 -0.00217199 3.85365e-16)
(1.00093 -0.00215566 -2.42889e-16)
(1.00116 -0.00210352 -7.98405e-16)
(1.00127 -0.00193743 -1.89995e-16)
(1.00149 -0.00180539 -4.506e-16)
(0.999681 0.000280578 2.47506e-17)
(0.999628 -4.92103e-05 1.12599e-16)
(0.999612 -0.000394051 3.35338e-16)
(0.999622 -0.000732712 2.60287e-16)
(0.999674 -0.00106702 -3.20834e-17)
(0.999765 -0.00137669 -1.30358e-16)
(0.999897 -0.00165064 -5.76924e-16)
(1.00007 -0.00188086 -6.70723e-17)
(1.00027 -0.00205555 -3.42684e-16)
(1.00051 -0.0021709 1.10989e-16)
(1.00075 -0.00222856 -7.06372e-16)
(1.001 -0.00220586 3.40716e-16)
(1.00124 -0.00214161 1.15024e-15)
(1.00136 -0.00196377 -8.86631e-16)
(1.00162 -0.00182049 5.25299e-16)
(0.999652 0.000297128 -1.99575e-17)
(0.999597 -4.73271e-05 -1.58432e-16)
(0.999584 -0.000406813 -1.91923e-16)
(0.999599 -0.000758686 -9.57347e-17)
(0.999657 -0.00110487 -6.1315e-17)
(0.999757 -0.00142433 8.41833e-17)
(0.9999 -0.00170556 -3.22415e-17)
(1.00008 -0.00194014 -4.42827e-16)
(1.0003 -0.00211657 -1.30344e-16)
(1.00055 -0.0022305 -3.28102e-17)
(1.0008 -0.00228427 6.42952e-16)
(1.00107 -0.00225489 1.07531e-16)
(1.00132 -0.00217853 -9.56316e-16)
(1.00146 -0.00198914 5.07338e-16)
(1.00174 -0.00183671 -1.01659e-16)
(0.999621 0.000314576 1.80283e-17)
(0.999564 -4.44888e-05 9.31535e-17)
(0.999555 -0.00041846 9.23742e-17)
(0.999575 -0.000783216 1.7967e-16)
(0.999641 -0.00114095 -9.78992e-17)
(0.99975 -0.00147011 -2.75406e-17)
(0.999903 -0.00175875 1.98981e-16)
(1.0001 -0.00199795 2.97332e-16)
(1.00033 -0.00217625 -2.14375e-17)
(1.00059 -0.00228877 -3.58956e-16)
(1.00086 -0.00233847 -2.75902e-16)
(1.00114 -0.00230238 -4.84942e-16)
(1.0014 -0.00221435 2.03325e-17)
(1.00156 -0.00201407 2.62707e-16)
(1.00186 -0.001855 -1.58937e-16)
(0.999589 0.00033296 -9.63957e-18)
(0.999531 -4.07031e-05 -5.51264e-17)
(0.999525 -0.000429051 1.40289e-16)
(0.999551 -0.000806356 1.47167e-17)
(0.999624 -0.00117522 -1.24627e-16)
(0.999743 -0.00151375 1.00505e-16)
(0.999907 -0.00180976 -4.80107e-17)
(1.00012 -0.00205368 2.74164e-16)
(1.00036 -0.00223403 5.06549e-16)
(1.00064 -0.00234536 7.86553e-17)
(1.00092 -0.00239114 2.38104e-16)
(1.00121 -0.00234874 2.4231e-16)
(1.00148 -0.00224994 5.97949e-17)
(1.00165 -0.00203992 -5.40599e-16)
(1.00197 -0.00187692 1.31025e-16)
(0.999556 0.000352342 1.29125e-17)
(0.999496 -3.59598e-05 1.16105e-17)
(0.999494 -0.000438671 -2.86607e-16)
(0.999526 -0.000828292 -1.25225e-16)
(0.999608 -0.00120788 1.76073e-16)
(0.999736 -0.00155541 -2.74866e-17)
(0.999912 -0.0018586 1.83845e-16)
(1.00013 -0.00210731 -2.44179e-16)
(1.00039 -0.00228996 1.392e-16)
(1.00068 -0.0024005 1.15758e-16)
(1.00098 -0.00244284 1.2219e-16)
(1.00128 -0.00239487 1.55447e-16)
(1.00157 -0.0022865 2.16026e-16)
(1.00175 -0.00206805 3.03859e-17)
(1.00209 -0.00190332 7.7083e-17)
(0.999521 0.00037277 -3.97284e-17)
(0.999459 -3.02636e-05 1.05142e-16)
(0.999461 -0.00044745 1.64566e-16)
(0.999499 -0.000849345 -1.05355e-16)
(0.999591 -0.00123944 -6.84983e-17)
(0.999729 -0.00159569 3.89903e-17)
(0.999917 -0.00190589 -2.00281e-16)
(1.00015 -0.00215946 -1.31054e-16)
(1.00042 -0.00234474 -1.72128e-16)
(1.00072 -0.00245508 2.73571e-16)
(1.00103 -0.00249468 -3.79477e-16)
(1.00135 -0.00244209 2.96353e-16)
(1.00165 -0.00232544 1.451e-16)
(1.00185 -0.00209979 5.42753e-16)
(1.0022 -0.001935 -4.96449e-16)
(0.999485 0.000394317 1.67639e-17)
(0.999421 -2.3581e-05 -7.91382e-17)
(0.999426 -0.000455477 5.79507e-17)
(0.999471 -0.000869833 1.28186e-16)
(0.999572 -0.00127049 -8.88785e-17)
(0.999721 -0.00163539 -1.50218e-16)
(0.99992 -0.00195258 -7.11247e-17)
(1.00017 -0.00221116 9.80161e-17)
(1.00045 -0.00239946 -4.48351e-16)
(1.00077 -0.00251025 6.61579e-17)
(1.00109 -0.00254792 2.52153e-16)
(1.00141 -0.00249167 -7.04586e-16)
(1.00173 -0.00236785 1.42227e-16)
(1.00195 -0.00213584 2.17843e-17)
(1.00231 -0.00197145 3.66121e-16)
(0.999447 0.000417038 -6.37308e-18)
(0.99938 -1.58817e-05 9.69934e-17)
(0.999388 -0.00046282 -9.37182e-17)
(0.99944 -0.000890048 -5.8176e-17)
(0.99955 -0.00130163 -9.27958e-17)
(0.99971 -0.00167543 -4.90779e-17)
(0.999921 -0.0019998 -1.05821e-16)
(1.00018 -0.00226367 7.55514e-17)
(1.00048 -0.00245543 2.9046e-17)
(1.00081 -0.00256732 -3.10447e-16)
(1.00115 -0.00260379 -3.70308e-16)
(1.00148 -0.00254465 4.10696e-16)
(1.00182 -0.00241446 -3.58363e-16)
(1.00205 -0.00217647 -1.14025e-16)
(1.00242 -0.00201205 -1.1208e-17)
(0.999408 0.000441006 -1.92846e-17)
(0.999338 -7.09447e-06 -4.48059e-17)
(0.999348 -0.000469462 3.16508e-17)
(0.999406 -0.000910137 2.25563e-16)
(0.999524 -0.00133329 3.7672e-16)
(0.999696 -0.00171653 3.07566e-16)
(0.999919 -0.00204851 3.36052e-16)
(1.00019 -0.00231808 -2.14394e-16)
(1.0005 -0.00251377 5.80751e-20)
(1.00084 -0.00262731 2.3251e-16)
(1.0012 -0.00266309 4.5771e-17)
(1.00155 -0.00260152 2.52381e-16)
(1.0019 -0.00246526 2.02726e-16)
(1.00214 -0.00222109 -5.30828e-16)
(1.00253 -0.0020551 -3.48242e-16)
(0.999368 0.00046627 9.92211e-18)
(0.999294 2.8415e-06 -8.09843e-17)
(0.999306 -0.000475338 -1.62013e-16)
(0.999368 -0.000930116 -1.59048e-16)
(0.999495 -0.00136565 1.4624e-17)
(0.999677 -0.00175911 -1.73644e-16)
(0.999913 -0.00209933 -3.78093e-16)
(1.0002 -0.0023751 2.88588e-16)
(1.00052 -0.00257514 2.34699e-16)
(1.00088 -0.00269073 -5.17489e-16)
(1.00125 -0.00272607 4.24444e-16)
(1.00161 -0.00266211 -3.09334e-16)
(1.00198 -0.00251959 -1.42534e-16)
(1.00224 -0.00226858 -1.24564e-16)
(1.00264 -0.00209914 1.4836e-16)
(0.999326 0.000492885 3.77699e-17)
(0.999249 1.40102e-05 1.73771e-17)
(0.999261 -0.000480311 8.76266e-17)
(0.999327 -0.000949817 4.07127e-17)
(0.999462 -0.0013986 4.79072e-17)
(0.999654 -0.00180313 3.00332e-16)
(0.999902 -0.00215232 -1.35715e-16)
(1.0002 -0.00243484 1.48299e-16)
(1.00054 -0.00263957 8.51407e-17)
(1.00091 -0.00275738 5.93171e-17)
(1.0013 -0.00279219 1.97653e-16)
(1.00168 -0.00272549 -4.21261e-17)
(1.00205 -0.00257612 9.35847e-18)
(1.00234 -0.00231728 8.68804e-16)
(1.00276 -0.00214242 2.7595e-18)
(0.999283 0.000520874 -3.66611e-17)
(0.999201 2.64623e-05 -1.26642e-17)
(0.999213 -0.00048424 5.72917e-17)
(0.999283 -0.000968982 -1.74703e-16)
(0.999425 -0.00143176 -2.79851e-16)
(0.999627 -0.00184818 -2.68157e-16)
(0.999888 -0.00220703 2.27213e-16)
(1.0002 -0.00249677 -8.30942e-17)
(1.00055 -0.00270642 9.693e-18)
(1.00094 -0.00282642 -5.03261e-18)
(1.00134 -0.00286038 -2.72981e-16)
(1.00174 -0.00279033 -2.46675e-16)
(1.00213 -0.0026334 -1.59003e-16)
(1.00244 -0.00236578 2.41327e-17)
(1.00287 -0.00218428 -5.43575e-17)
(0.999237 0.000550261 -1.83025e-17)
(0.999152 4.02478e-05 4.84501e-17)
(0.999165 -0.000486964 4.76762e-17)
(0.999238 -0.000987269 7.75954e-17)
(0.999386 -0.00146461 1.06145e-16)
(0.999598 -0.00189356 1.67758e-18)
(0.999871 -0.00226262 2.27132e-16)
(1.0002 -0.00255992 -5.06467e-16)
(1.00057 -0.00277455 2.58268e-16)
(1.00097 -0.00289657 2.63365e-16)
(1.00139 -0.00292921 -3.7673e-16)
(1.0018 -0.00285514 7.03409e-16)
(1.00221 -0.00269002 3.70129e-16)
(1.00254 -0.00241297 -6.89229e-16)
(1.00299 -0.00222437 -2.04998e-16)
(0.999191 0.000581036 3.78483e-17)
(0.999102 5.53637e-05 2.93957e-17)
(0.999115 -0.000488391 4.59194e-18)
(0.999191 -0.00100439 -3.47858e-17)
(0.999345 -0.0014966 2.01829e-17)
(0.999567 -0.00193849 2.8477e-16)
(0.999852 -0.00231812 -4.58981e-17)
(1.0002 -0.00262318 3.25019e-16)
(1.00058 -0.00284277 -4.80807e-17)
(1.001 -0.00296657 -2.91337e-16)
(1.00143 -0.00299746 6.02733e-16)
(1.00187 -0.00291888 -3.61611e-16)
(1.00229 -0.00274528 -4.89358e-16)
(1.00263 -0.00245873 2.06712e-16)
(1.00311 -0.00226364 3.45483e-16)
(0.999142 0.000613192 -3.14742e-17)
(0.99905 7.17955e-05 -1.3271e-17)
(0.999063 -0.00048847 -1.73089e-16)
(0.999143 -0.00102013 -8.46066e-17)
(0.999304 -0.0015273 5.2113e-17)
(0.999535 -0.0019823 -2.87483e-16)
(0.999833 -0.0023727 -8.45138e-17)
(1.00019 -0.0026856 2.83295e-16)
(1.00059 -0.00291009 -2.39573e-16)
(1.00103 -0.0030355 7.02416e-17)
(1.00148 -0.00306439 -3.35626e-16)
(1.00193 -0.00298107 1.0559e-17)
(1.00238 -0.00279913 2.64879e-16)
(1.00273 -0.00250344 1.39287e-16)
(1.00323 -0.00230302 -5.42635e-17)
(0.999092 0.000646692 3.00256e-17)
(0.998997 8.94738e-05 -9.74412e-17)
(0.999011 -0.000487255 8.18085e-17)
(0.999095 -0.00103445 5.35527e-17)
(0.999262 -0.00155652 -4.03818e-17)
(0.999504 -0.00202467 -1.72695e-16)
(0.999814 -0.00242592 5.23661e-17)
(1.00019 -0.00274675 -1.29875e-16)
(1.0006 -0.00297616 -2.1899e-16)
(1.00106 -0.00310316 -2.73765e-17)
(1.00153 -0.00313006 -4.8507e-16)
(1.00199 -0.00304213 4.96302e-16)
(1.00246 -0.00285236 3.85579e-17)
(1.00283 -0.00254826 -7.95119e-17)
(1.00335 -0.00234403 -7.73498e-18)
(0.99904 0.000681512 -3.68277e-17)
(0.998942 0.00010833 1.0031e-16)
(0.998958 -0.000484842 -2.30467e-17)
(0.999046 -0.00104742 -2.09986e-16)
(0.999221 -0.00158426 -1.00063e-16)
(0.999472 -0.00206554 1.16253e-16)
(0.999795 -0.00247773 -1.70597e-16)
(1.00018 -0.00280664 -1.91096e-16)
(1.00062 -0.00304111 3.25209e-16)
(1.00109 -0.00316988 1.13145e-16)
(1.00158 -0.00319502 5.08992e-16)
(1.00206 -0.00310285 -3.82725e-16)
(1.00254 -0.00290592 1.37484e-16)
(1.00293 -0.00259415 -1.54693e-16)
(1.00346 -0.00238733 5.15668e-18)
(0.998985 0.000717608 2.27943e-17)
(0.998886 0.000128262 -5.8048e-17)
(0.998904 -0.000481405 7.2118e-17)
(0.998997 -0.00105926 3.12876e-16)
(0.999179 -0.00161075 1.32792e-16)
(0.999441 -0.00210515 8.23933e-17)
(0.999777 -0.00252842 3.38853e-16)
(1.00018 -0.00286565 1.61038e-16)
(1.00063 -0.00310547 -2.65234e-16)
(1.00112 -0.00323635 4.51899e-16)
(1.00162 -0.00326015 2.51281e-16)
(1.00212 -0.00316422 -2.12607e-16)
(1.00262 -0.00296078 -4.06517e-16)
(1.00303 -0.00264195 -1.57875e-16)
(1.00358 -0.00243361 6.09454e-17)
(0.998929 0.000754955 4.6803e-18)
(0.998828 0.000149192 -1.23674e-16)
(0.998848 -0.000477106 -9.17959e-17)
(0.998946 -0.00107021 -2.15436e-16)
(0.999137 -0.00163627 3.46121e-17)
(0.999409 -0.0021438 -3.3461e-16)
(0.999757 -0.00257832 -3.59751e-16)
(1.00018 -0.00292417 -1.44712e-16)
(1.00064 -0.00316973 3.08295e-16)
(1.00115 -0.00330315 -3.27447e-16)
(1.00167 -0.00332607 1.15791e-16)
(1.00219 -0.00322682 2.15174e-16)
(1.0027 -0.00301743 3.26524e-16)
(1.00313 -0.00269192 1.99138e-16)
(1.00369 -0.00248279 1.69129e-17)
(0.998871 0.000793513 3.28987e-17)
(0.998768 0.000171029 2.02135e-16)
(0.998791 -0.00047213 9.40934e-17)
(0.998894 -0.00108055 1.80858e-16)
(0.999093 -0.00166118 1.08382e-16)
(0.999376 -0.00218187 4.56902e-17)
(0.999738 -0.0026278 5.27133e-17)
(1.00017 -0.0029826 -1.21123e-16)
(1.00065 -0.0032343 -1.22818e-16)
(1.00118 -0.00337073 1.43918e-17)
(1.00172 -0.00339322 -7.91109e-16)
(1.00225 -0.00329109 -3.08901e-16)
(1.00278 -0.00307621 3.24708e-16)
(1.00322 -0.00274438 -7.23735e-17)
(1.0038 -0.0025353 -2.00452e-16)
(0.998811 0.000833264 -4.42176e-17)
(0.998706 0.00019372 -1.29534e-16)
(0.998731 -0.000466612 -1.86065e-16)
(0.99884 -0.00109053 6.11377e-17)
(0.999048 -0.00168578 -2.05617e-16)
(0.999342 -0.00221967 3.8303e-17)
(0.999717 -0.00267713 -4.74221e-17)
(1.00016 -0.00304117 -8.66025e-18)
(1.00066 -0.00329938 -1.46772e-16)
(1.00121 -0.00343924 -7.69551e-17)
(1.00176 -0.00346178 2.72369e-17)
(1.00232 -0.00335721 2.68285e-16)
(1.00286 -0.00313735 -1.35155e-16)
(1.00332 -0.00279964 2.66702e-16)
(1.00391 -0.0025913 9.42782e-17)
(0.998748 0.00087417 2.3633e-17)
(0.998642 0.000217201 1.24095e-16)
(0.998669 -0.000460694 2.36393e-16)
(0.998784 -0.00110042 -6.83173e-17)
(0.999 -0.00171045 -1.65763e-17)
(0.999306 -0.00225761 2.51029e-16)
(0.999694 -0.00272673 2.13474e-16)
(1.00016 -0.00310023 -1.46285e-16)
(1.00067 -0.00336529 3.91897e-16)
(1.00123 -0.00350904 3.5552e-16)
(1.00181 -0.00353213 3.77989e-16)
(1.00238 -0.00342565 -1.74428e-17)
(1.00294 -0.0032014 -2.99671e-16)
(1.00342 -0.00285837 -3.14566e-16)
(1.00401 -0.00265137 -3.03245e-17)
(0.998684 0.000916216 -2.02509e-17)
(0.998575 0.000241451 -6.55317e-17)
(0.998604 -0.000454464 -1.95936e-16)
(0.998725 -0.00111042 1.26123e-16)
(0.99895 -0.00173555 1.21038e-16)
(0.999268 -0.00229618 -1.68087e-16)
(0.99967 -0.00277714 -8.48637e-17)
(1.00015 -0.00316033 8.38073e-18)
(1.00068 -0.00343259 -1.74165e-16)
(1.00126 -0.00358069 -3.04621e-16)
(1.00185 -0.00360489 -5.62012e-16)
(1.00244 -0.00349708 6.06925e-17)
(1.00302 -0.00326905 3.65922e-16)
(1.00351 -0.0029212 3.31145e-16)
(1.00412 -0.00271542 -6.96907e-17)
(0.998617 0.000959364 -1.61152e-17)
(0.998506 0.000266431 -1.31819e-17)
(0.998536 -0.000448013 1.71466e-16)
(0.998663 -0.00112078 -1.61815e-16)
(0.998897 -0.00176153 -3.19812e-16)
(0.999226 -0.00233606 1.55225e-16)
(0.999643 -0.00282918 8.80959e-17)
(1.00014 -0.00322241 4.07949e-16)
(1.00069 -0.00350226 5.83375e-17)
(1.00128 -0.0036552 2.8366e-16)
(1.00189 -0.00368108 8.42205e-16)
(1.0025 -0.00357248 -2.30999e-16)
(1.0031 -0.00334111 -9.79938e-17)
(1.00361 -0.00298863 -1.1552e-17)
(1.00422 -0.00278316 -2.77641e-17)
(0.998549 0.00100359 4.50697e-17)
(0.998435 0.00029214 4.92502e-17)
(0.998465 -0.000441376 -1.47472e-16)
(0.998597 -0.00113167 1.37025e-16)
(0.99884 -0.0017888 -9.2248e-17)
(0.999181 -0.00237791 -2.97019e-16)
(0.999611 -0.00288377 1.30586e-17)
(1.00012 -0.00328754 -3.50864e-17)
(1.00069 -0.00357545 -2.16336e-16)
(1.0013 -0.00373368 1.82377e-16)
(1.00193 -0.00376166 -7.86195e-16)
(1.00256 -0.00365255 -1.43084e-17)
(1.00317 -0.00341787 -1.75077e-16)
(1.0037 -0.00306037 3.26972e-17)
(1.00433 -0.00285315 -8.2255e-17)
(0.998478 0.00104886 -1.15009e-17)
(0.998361 0.000318564 -1.17345e-17)
(0.998392 -0.000434568 2.04059e-17)
(0.998527 -0.00114319 -1.5238e-16)
(0.998779 -0.00181766 -2.73722e-17)
(0.999131 -0.00242229 3.62676e-16)
(0.999576 -0.0029417 -2.64352e-16)
(1.0001 -0.00335665 -3.27455e-16)
(1.00069 -0.0036531 3.50641e-16)
(1.00132 -0.00381695 -3.17213e-16)
(1.00197 -0.00384715 4.01442e-16)
(1.00261 -0.00373739 3.79731e-16)
(1.00325 -0.00349887 2.73408e-16)
(1.0038 -0.00313534 -1.81808e-16)
(1.00443 -0.00292373 -6.20104e-17)
(0.998406 0.00109514 -1.24035e-17)
(0.998286 0.000345716 -7.20074e-17)
(0.998315 -0.000427528 -9.69824e-17)
(0.998454 -0.00115527 7.11933e-17)
(0.998713 -0.00184811 1.80458e-16)
(0.999076 -0.00246934 6.33135e-17)
(0.999535 -0.00300324 2.4569e-16)
(1.00008 -0.00343007 5.36928e-17)
(1.00068 -0.00373545 -4.61029e-16)
(1.00133 -0.00390499 1.61341e-16)
(1.00201 -0.00393716 -2.28028e-16)
(1.00267 -0.0038261 -1.89339e-16)
(1.00332 -0.00358265 -2.54951e-16)
(1.0039 -0.00321156 4.02741e-17)
(1.00454 -0.00299272 1.49756e-16)
(0.998332 0.00114237 -1.90385e-17)
(0.998208 0.00037359 3.42976e-17)
(0.998236 -0.000420172 4.14142e-17)
(0.998377 -0.00116774 -1.42702e-16)
(0.998643 -0.00187988 6.96495e-17)
(0.999017 -0.00251872 -2.11366e-16)
(0.99949 -0.003068 -2.58912e-17)
(1.00005 -0.00350732 3.17971e-16)
(1.00067 -0.00382183 -2.02843e-16)
(1.00135 -0.00399687 -2.68104e-16)
(1.00204 -0.00403039 2.30265e-16)
(1.00272 -0.00391699 -6.83332e-17)
(1.0034 -0.0036673 -7.22532e-16)
(1.00399 -0.00328711 7.36909e-17)
(1.00466 -0.00305906 1.0774e-16)
(0.998255 0.00119051 -9.79969e-18)
(0.998128 0.00040219 3.34554e-17)
(0.998155 -0.000412365 1.26049e-17)
(0.998298 -0.00118025 1.902e-17)
(0.99857 -0.00191237 1.20204e-16)
(0.998954 -0.0025696 6.68032e-17)
(0.999442 -0.00313492 -2.20064e-16)
(1.00002 -0.00358709 -2.00893e-17)
(1.00066 -0.00391072 6.07551e-16)
(1.00136 -0.00409079 -1.94874e-16)
(1.00207 -0.0041248 -5.72665e-18)
(1.00278 -0.00400793 2.88205e-17)
(1.00347 -0.0037508 2.77772e-17)
(1.00409 -0.00336039 -5.10179e-17)
(1.00477 -0.00312218 1.70091e-17)
(0.998177 0.00123948 2.5824e-17)
(0.998047 0.000431479 -6.82436e-17)
(0.998073 -0.000404011 -7.79701e-17)
(0.998217 -0.00119245 1.47174e-19)
(0.998495 -0.00194489 -1.81511e-16)
(0.99889 -0.00262088 -2.89928e-17)
(0.999392 -0.00320253 4.27252e-17)
(0.999988 -0.00366762 -4.8389e-17)
(1.00065 -0.00400013 -4.11356e-16)
(1.00137 -0.00418466 5.47738e-16)
(1.0021 -0.00421837 -3.12561e-17)
(1.00283 -0.00409713 -5.7224e-17)
(1.00355 -0.00383189 3.37214e-16)
(1.00418 -0.00343096 -3.78063e-16)
(1.00489 -0.00318319 7.98689e-18)
(0.998098 0.00128922 2.74003e-18)
(0.997964 0.000461414 8.18701e-17)
(0.997989 -0.000395039 2.20075e-16)
(0.998136 -0.00120401 -5.55167e-17)
(0.99842 -0.00197675 1.17965e-16)
(0.998826 -0.00267149 -1.83352e-16)
(0.999343 -0.00326939 -2.19622e-16)
(0.999957 -0.00374722 5.27879e-18)
(1.00064 -0.00408824 2.39526e-16)
(1.00138 -0.00427674 -4.7809e-16)
(1.00214 -0.00430961 1.19091e-16)
(1.00289 -0.00418361 -2.06933e-17)
(1.00363 -0.00391028 2.60546e-16)
(1.00428 -0.00349934 8.04736e-17)
(1.00501 -0.00324352 -1.25484e-16)
(0.998016 0.00133962 1.05293e-18)
(0.99788 0.000491893 -8.88577e-17)
(0.997904 -0.00038549 -1.25607e-16)
(0.998054 -0.00121484 2.07914e-17)
(0.998346 -0.00200762 -2.19165e-17)
(0.998763 -0.00272078 1.66429e-16)
(0.999296 -0.0033346 3.6058e-16)
(0.999928 -0.00382484 -3.19904e-16)
(1.00063 -0.00417405 3.63944e-16)
(1.00139 -0.00436627 3.21679e-17)
(1.00218 -0.00439827 7.14079e-17)
(1.00295 -0.00426775 -1.37884e-16)
(1.00371 -0.00398708 2.66155e-16)
(1.00438 -0.00356735 1.50777e-16)
(1.00512 -0.00330557 1.97135e-16)
(0.997932 0.00139061 -8.61182e-18)
(0.997794 0.000522816 8.47623e-17)
(0.997818 -0.00037547 1.54714e-16)
(0.997973 -0.00122501 5.34672e-17)
(0.998273 -0.00203746 1.56429e-16)
(0.998702 -0.00276863 1.20165e-16)
(0.99925 -0.00339799 -3.23834e-16)
(0.9999 -0.00390034 6.48907e-16)
(1.00063 -0.00425762 -2.04131e-16)
(1.00141 -0.00445366 -6.79239e-17)
(1.00221 -0.00448517 -2.45829e-16)
(1.00301 -0.0043509 -1.07962e-16)
(1.00379 -0.00406402 -2.9622e-16)
(1.00447 -0.00363689 -1.09118e-16)
(1.00523 -0.00337076 4.74325e-17)
(0.997847 0.0014421 -3.05832e-17)
(0.997707 0.000554044 -9.06476e-17)
(0.997732 -0.00036519 -1.08495e-17)
(0.997891 -0.00123482 1.06369e-16)
(0.998199 -0.00206673 -1.42361e-16)
(0.998641 -0.00281562 -1.04563e-16)
(0.999205 -0.00346025 4.05242e-16)
(0.999874 -0.00397464 -1.21046e-16)
(1.00062 -0.00434011 -5.17274e-16)
(1.00142 -0.0045404 7.11932e-17)
(1.00225 -0.00457217 -1.24832e-16)
(1.00307 -0.00443516 2.30926e-16)
(1.00386 -0.0041432 3.69844e-16)
(1.00457 -0.00370984 3.29364e-16)
(1.00534 -0.00344019 -2.76436e-16)
(0.997759 0.00149401 1.83401e-18)
(0.997618 0.000585465 -1.74858e-17)
(0.997644 -0.000354864 -7.23975e-17)
(0.997808 -0.00124468 4.51418e-17)
(0.998125 -0.00209606 -7.89403e-17)
(0.99858 -0.00286266 1.3467e-16)
(0.99916 -0.00352262 -1.1645e-16)
(0.999848 -0.00404921 3.99829e-17)
(1.00062 -0.00442327 -1.08441e-16)
(1.00144 -0.0046284 2.75892e-16)
(1.00229 -0.00466122 3.37577e-16)
(1.00313 -0.00452233 1.95202e-18)
(1.00394 -0.00422603 -5.8867e-16)
(1.00467 -0.00378685 -4.00538e-16)