1.45 	0 	0 	-0.296878
2.35 	0 	0 	-0.131391
