/*--------------------------------*- C++ -*----------------------------------*\
  =========                 |
  \\      /  F ield         | OpenFOAM: The Open Source CFD Toolbox
   \\    /   O peration     | Website:  https://openfoam.org
    \\  /    A nd           | Version:  6.0
     \\/     M anipulation  |
\*---------------------------------------------------------------------------*/
FoamFile
{
    version     2.0;
    format      ascii;
    class       volScalarField;
    location    "5";
    object      p;
}
// * * * * * * * * * * * * * * * * * * * * * * * * * * * * * * * * * * * * * //

dimensions      [0 2 -2 0 0 0 0];

internalField   nonuniform List<scalar> 
8000
(
-0.34989
-0.354502
-0.357156
-0.358669
-0.359526
-0.359812
-0.359613
-0.359019
-0.358102
-0.35692
-0.355525
-0.353958
-0.352255
-0.350449
-0.348568
-0.346639
-0.34468
-0.342667
-0.340593
-0.338919
-0.350647
-0.355197
-0.357801
-0.359269
-0.360083
-0.360326
-0.360087
-0.359454
-0.3585
-0.357283
-0.355852
-0.354251
-0.352515
-0.350678
-0.348766
-0.346808
-0.344822
-0.342782
-0.340681
-0.338998
-0.352161
-0.356587
-0.359091
-0.360469
-0.361194
-0.361354
-0.361034
-0.360324
-0.359295
-0.358005
-0.356504
-0.354835
-0.353033
-0.351131
-0.349158
-0.347141
-0.345101
-0.343007
-0.34085
-0.33915
-0.354432
-0.358671
-0.361024
-0.362265
-0.362859
-0.362891
-0.36245
-0.361624
-0.360482
-0.359083
-0.357476
-0.355704
-0.353802
-0.351802
-0.349735
-0.347629
-0.345506
-0.343329
-0.34109
-0.339365
-0.35746
-0.361448
-0.363598
-0.364656
-0.365072
-0.364935
-0.364332
-0.363349
-0.362057
-0.360512
-0.358763
-0.356851
-0.354813
-0.352682
-0.350487
-0.34826
-0.346022
-0.343733
-0.341381
-0.339627
-0.361245
-0.364916
-0.366809
-0.367636
-0.36783
-0.367479
-0.366672
-0.365494
-0.364013
-0.362284
-0.360355
-0.358267
-0.356057
-0.353757
-0.351399
-0.349015
-0.34663
-0.344195
-0.341698
-0.339912
-0.365789
-0.369074
-0.370655
-0.371202
-0.371125
-0.370518
-0.369466
-0.368052
-0.366343
-0.364393
-0.362247
-0.359945
-0.357524
-0.355017
-0.352456
-0.349878
-0.347308
-0.344688
-0.342012
-0.340191
-0.371095
-0.37392
-0.375131
-0.375347
-0.374953
-0.374043
-0.372705
-0.371016
-0.369042
-0.366832
-0.364431
-0.361877
-0.359205
-0.356449
-0.353642
-0.350827
-0.348029
-0.345181
-0.342285
-0.340427
-0.377167
-0.379452
-0.380231
-0.380063
-0.379303
-0.378048
-0.376382
-0.37438
-0.372103
-0.369597
-0.366903
-0.364056
-0.361092
-0.358043
-0.354944
-0.351842
-0.348766
-0.345637
-0.34247
-0.340571
-0.384007
-0.385666
-0.385948
-0.385343
-0.384168
-0.382522
-0.380489
-0.378137
-0.375521
-0.372684
-0.369661
-0.366484
-0.363184
-0.359794
-0.356351
-0.352906
-0.349491
-0.346015
-0.342514
-0.340563
-0.391618
-0.392556
-0.392273
-0.391174
-0.389534
-0.387456
-0.385017
-0.38228
-0.379294
-0.376094
-0.372707
-0.369162
-0.365485
-0.361704
-0.357859
-0.354004
-0.350177
-0.34627
-0.342349
-0.34032
-0.399997
-0.400112
-0.39919
-0.397541
-0.395389
-0.392836
-0.389956
-0.386805
-0.38342
-0.379828
-0.37605
-0.372103
-0.368007
-0.363784
-0.359472
-0.35513
-0.350798
-0.346353
-0.341893
-0.339737
-0.409136
-0.408319
-0.406684
-0.404428
-0.401715
-0.398647
-0.395295
-0.391703
-0.387897
-0.383894
-0.379702
-0.375326
-0.370774
-0.366059
-0.36121
-0.356291
-0.351341
-0.346213
-0.341047
-0.338672
-0.419016
-0.417153
-0.414728
-0.411809
-0.408489
-0.404873
-0.401021
-0.396967
-0.392727
-0.388301
-0.383683
-0.378861
-0.373827
-0.368575
-0.363121
-0.35752
-0.351812
-0.34581
-0.339693
-0.336933
-0.429607
-0.426582
-0.423293
-0.419656
-0.415687
-0.411489
-0.407116
-0.402589
-0.397908
-0.39306
-0.388019
-0.382754
-0.377228
-0.371409
-0.365287
-0.358897
-0.352258
-0.345122
-0.337687
-0.334249
-0.440861
-0.436563
-0.432338
-0.427934
-0.423278
-0.418472
-0.413562
-0.408557
-0.403442
-0.398188
-0.392748
-0.387065
-0.381069
-0.374687
-0.36786
-0.360581
-0.352818
-0.344205
-0.334906
-0.330308
-0.452715
-0.447043
-0.441817
-0.436602
-0.431226
-0.425791
-0.420336
-0.414857
-0.409328
-0.403702
-0.397915
-0.391878
-0.385485
-0.378609
-0.371116
-0.362921
-0.353899
-0.34347
-0.331584
-0.325003
-0.465089
-0.457956
-0.451676
-0.445614
-0.439492
-0.433412
-0.42741
-0.421471
-0.415559
-0.409618
-0.403565
-0.397289
-0.390645
-0.383438
-0.375442
-0.36645
-0.356191
-0.343655
-0.327935
-0.317236
-0.477886
-0.469228
-0.461854
-0.454917
-0.448031
-0.441298
-0.434752
-0.428374
-0.422123
-0.415942
-0.409742
-0.403401
-0.396739
-0.389494
-0.381305
-0.371757
-0.360216
-0.344523
-0.321301
-0.300789
-0.490999
-0.480778
-0.472286
-0.464459
-0.456797
-0.449408
-0.442327
-0.435532
-0.428994
-0.422665
-0.416481
-0.410344
-0.404102
-0.39751
-0.390177
-0.381547
-0.370447
-0.353025
-0.322763
-0.292084
-0.504316
-0.492522
-0.482904
-0.474183
-0.465743
-0.457697
-0.450086
-0.442893
-0.436104
-0.429703
-0.423677
-0.418021
-0.412742
-0.407874
-0.403535
-0.40001
-0.3976
-0.396444
-0.400322
-0.424868
-0.517721
-0.504372
-0.493641
-0.48403
-0.474816
-0.466118
-0.457977
-0.450384
-0.443337
-0.436847
-0.430944
-0.425682
-0.421159
-0.417539
-0.41511
-0.414312
-0.415589
-0.419774
-0.431508
-0.458604
-0.531108
-0.516246
-0.504427
-0.493946
-0.483971
-0.474625
-0.465953
-0.457946
-0.45061
-0.443971
-0.43808
-0.433018
-0.428912
-0.425953
-0.424427
-0.424699
-0.427069
-0.432161
-0.443219
-0.463258
-0.544375
-0.528061
-0.515196
-0.503875
-0.493161
-0.483179
-0.473975
-0.465537
-0.457871
-0.45101
-0.445007
-0.439947
-0.435952
-0.433193
-0.4319
-0.432324
-0.434612
-0.43916
-0.448217
-0.462392
-0.55743
-0.539739
-0.52588
-0.513758
-0.502334
-0.491734
-0.482001
-0.473114
-0.465077
-0.457914
-0.451672
-0.446422
-0.442259
-0.43931
-0.437726
-0.437643
-0.439072
-0.442249
-0.44887
-0.458332
-0.570186
-0.551199
-0.536408
-0.523531
-0.511433
-0.500238
-0.489979
-0.480627
-0.472173
-0.464631
-0.45803
-0.452415
-0.447847
-0.4444
-0.442154
-0.441149
-0.441304
-0.442767
-0.446905
-0.452409
-0.582558
-0.562359
-0.546701
-0.533122
-0.520389
-0.508622
-0.497843
-0.488008
-0.479094
-0.471096
-0.464022
-0.45789
-0.452724
-0.448551
-0.445391
-0.443217
-0.4419
-0.441552
-0.44331
-0.445432
-0.594454
-0.573129
-0.556671
-0.542445
-0.52912
-0.516805
-0.505509
-0.495171
-0.485751
-0.477225
-0.469577
-0.462798
-0.456879
-0.451809
-0.447568
-0.444087
-0.441217
-0.43906
-0.438573
-0.437776
-0.605776
-0.583407
-0.566221
-0.551403
-0.537526
-0.524685
-0.512874
-0.502013
-0.492041
-0.482917
-0.474604
-0.467069
-0.460277
-0.454191
-0.448763
-0.443906
-0.43947
-0.435558
-0.432973
-0.429643
-0.616412
-0.593083
-0.575237
-0.559883
-0.545493
-0.532147
-0.519819
-0.50841
-0.497842
-0.488057
-0.478999
-0.470619
-0.462864
-0.455681
-0.449009
-0.442754
-0.436783
-0.4312
-0.426669
-0.421146
-0.626232
-0.60203
-0.583594
-0.567758
-0.552894
-0.539058
-0.526209
-0.514228
-0.503021
-0.492516
-0.482647
-0.473352
-0.46457
-0.456241
-0.448302
-0.440664
-0.433214
-0.426062
-0.419745
-0.412335
-0.635094
-0.610106
-0.591154
-0.574888
-0.559584
-0.545274
-0.531897
-0.519318
-0.507433
-0.496159
-0.485424
-0.475162
-0.465312
-0.455815
-0.446613
-0.437631
-0.42878
-0.42017
-0.412228
-0.403211
-0.642837
-0.61716
-0.597763
-0.581121
-0.565409
-0.550637
-0.536725
-0.523525
-0.510926
-0.498841
-0.487198
-0.475936
-0.464997
-0.454331
-0.443893
-0.433624
-0.423463
-0.413515
-0.404109
-0.393739
-0.649288
-0.623024
-0.60326
-0.586294
-0.570207
-0.554983
-0.540529
-0.526687
-0.513343
-0.500415
-0.487836
-0.475554
-0.463523
-0.451709
-0.440078
-0.428594
-0.417221
-0.406058
-0.395348
-0.383857
-0.654263
-0.627525
-0.607472
-0.590236
-0.573804
-0.558139
-0.543137
-0.528635
-0.514525
-0.500731
-0.487201
-0.473896
-0.460788
-0.447858
-0.435093
-0.422477
-0.409998
-0.397745
-0.385885
-0.373485
-0.657567
-0.63048
-0.610223
-0.59277
-0.576025
-0.559931
-0.544377
-0.529203
-0.514311
-0.499641
-0.485156
-0.47084
-0.456683
-0.442687
-0.428858
-0.415201
-0.401726
-0.388507
-0.375648
-0.362529
-0.659006
-0.631703
-0.611331
-0.593715
-0.57669
-0.560181
-0.544075
-0.528224
-0.512544
-0.496997
-0.48157
-0.466267
-0.451105
-0.436105
-0.421292
-0.406692
-0.392333
-0.378271
-0.364556
-0.350892
-0.658382
-0.631008
-0.610612
-0.592891
-0.57562
-0.558713
-0.542062
-0.525535
-0.509072
-0.49266
-0.476314
-0.460065
-0.443953
-0.428021
-0.412314
-0.396875
-0.381746
-0.366962
-0.35253
-0.338476
-0.655501
-0.62821
-0.607887
-0.59012
-0.57264
-0.555356
-0.538172
-0.52098
-0.503748
-0.486496
-0.469269
-0.452126
-0.435133
-0.418353
-0.401848
-0.385677
-0.369894
-0.35451
-0.339491
-0.325188
-0.650177
-0.62313
-0.60298
-0.585228
-0.56758
-0.549945
-0.532248
-0.514411
-0.496438
-0.478384
-0.460327
-0.442356
-0.424561
-0.407025
-0.389826
-0.373036
-0.356715
-0.340848
-0.325367
-0.310944
-0.642237
-0.615602
-0.595727
-0.578054
-0.560282
-0.542328
-0.524146
-0.505695
-0.48702
-0.468215
-0.449393
-0.430672
-0.412166
-0.393976
-0.376192
-0.358896
-0.342154
-0.325921
-0.310098
-0.29567
-0.631511
-0.605463
-0.585969
-0.56844
-0.550593
-0.532361
-0.513732
-0.49471
-0.475386
-0.455895
-0.436385
-0.417004
-0.397888
-0.379153
-0.360899
-0.343216
-0.32617
-0.309685
-0.293633
-0.279306
-0.617858
-0.592573
-0.573566
-0.556252
-0.538383
-0.519919
-0.500891
-0.481354
-0.461447
-0.441348
-0.421241
-0.401302
-0.381686
-0.362522
-0.343917
-0.325966
-0.308732
-0.292108
-0.275936
-0.261806
-0.601155
-0.57681
-0.558397
-0.541368
-0.523538
-0.504898
-0.48553
-0.465545
-0.445134
-0.424518
-0.403918
-0.383532
-0.363534
-0.344064
-0.325231
-0.307132
-0.289827
-0.273173
-0.256985
-0.243139
-0.581301
-0.558073
-0.54036
-0.52369
-0.505963
-0.487212
-0.467574
-0.447222
-0.426399
-0.405372
-0.384391
-0.363681
-0.343427
-0.323777
-0.304841
-0.286715
-0.269454
-0.252878
-0.236773
-0.22329
-0.558221
-0.536283
-0.519378
-0.503142
-0.48559
-0.4668
-0.446975
-0.426349
-0.40522
-0.383896
-0.36266
-0.341755
-0.321377
-0.301677
-0.282766
-0.264734
-0.24763
-0.231239
-0.21531
-0.202258
-0.531869
-0.51139
-0.495396
-0.479675
-0.462374
-0.44363
-0.423709
-0.402914
-0.381596
-0.360103
-0.338745
-0.317782
-0.297417
-0.277802
-0.259042
-0.241226
-0.224391
-0.208286
-0.192622
-0.18006
-0.502229
-0.483372
-0.468392
-0.453266
-0.4363
-0.417693
-0.397781
-0.376934
-0.355554
-0.334029
-0.31269
-0.291812
-0.271601
-0.252206
-0.233727
-0.216244
-0.199787
-0.184068
-0.168752
-0.156729
-0.469315
-0.452236
-0.43837
-0.423922
-0.407381
-0.389011
-0.369222
-0.348449
-0.327147
-0.305733
-0.284563
-0.263916
-0.244003
-0.224965
-0.206894
-0.189862
-0.17389
-0.158652
-0.143763
-0.132319
-0.433177
-0.418022
-0.405367
-0.391682
-0.375659
-0.357636
-0.338093
-0.317531
-0.296451
-0.275301
-0.254451
-0.234188
-0.214717
-0.196173
-0.178637
-0.162173
-0.146789
-0.132128
-0.117737
-0.106899
-0.393896
-0.380803
-0.369451
-0.356615
-0.34121
-0.323648
-0.304481
-0.284274
-0.263569
-0.242839
-0.222467
-0.202739
-0.183857
-0.165945
-0.149071
-0.133289
-0.118597
-0.104603
-0.0907813
-0.0805643
-0.351588
-0.340683
-0.330722
-0.318822
-0.304138
-0.287158
-0.268504
-0.2488
-0.228626
-0.208477
-0.188741
-0.169703
-0.151557
-0.134414
-0.118329
-0.103343
-0.0894464
-0.0762124
-0.0630278
-0.0534374
-0.306403
-0.2978
-0.289314
-0.278435
-0.264578
-0.248304
-0.230303
-0.211253
-0.19177
-0.172361
-0.15342
-0.135226
-0.117962
-0.101726
-0.0865584
-0.0724866
-0.0594927
-0.0471164
-0.0346411
-0.0256735
-0.258524
-0.252325
-0.245391
-0.23562
-0.222694
-0.207251
-0.190044
-0.171802
-0.153166
-0.134657
-0.116667
-0.0994689
-0.0832328
-0.0680435
-0.0539245
-0.0408904
-0.0289144
-0.0175054
-0.00582477
0.00252861
-0.208168
-0.204462
-0.199151
-0.190568
-0.178679
-0.164191
-0.147918
-0.130631
-0.112996
-0.0955407
-0.0786534
-0.0625982
-0.0475337
-0.0335308
-0.0205982
-0.0087364
0.00208845
0.0123941
0.0231636
0.0309065
-0.155585
-0.154445
-0.150819
-0.143503
-0.132752
-0.11934
-0.104135
-0.0879459
-0.0714565
-0.055198
-0.0395545
-0.0247809
-0.0110253
0.00165233
0.0132555
0.0237948
0.0333069
0.0423271
0.0520074
0.0591122
-0.101054
-0.102538
-0.100651
-0.0946734
-0.0851562
-0.0729354
-0.0589237
-0.043964
-0.0287521
-0.0138198
0.000454502
0.0138238
0.0261473
0.0373709
0.0475033
0.0565606
0.0645747
0.0720751
0.0803817
0.0867172
-0.0448837
-0.0490321
-0.0489273
-0.0443546
-0.0361596
-0.0252348
-0.0125318
0.0010814
0.0149012
0.0283985
0.0412012
0.053068
0.0638606
0.0735215
0.0820523
0.0894653
0.0957766
0.101434
0.107793
0.112886
0.012592
0.00575684
0.00404553
0.00715678
0.0139499
0.0234838
0.0347768
0.046943
0.0592772
0.0712567
0.0825168
0.0928198
0.102023
0.11005
0.11687
0.122464
0.126777
0.12991
0.132771
0.135122
0.0710148
0.0614899
0.057941
0.059543
0.0648644
0.0729245
0.0827204
0.0933571
0.104135
0.114544
0.124232
0.132971
0.140616
0.147069
0.152258
0.156121
0.158436
0.15844
0.155789
0.153543
0.130005
0.117808
0.112413
0.112468
0.116259
0.122774
0.130999
0.140039
0.149207
0.158016
0.166136
0.173364
0.179581
0.184721
0.188765
0.191787
0.193685
0.193135
0.18918
0.194789
0.189191
0.174352
0.167111
0.16559
0.167801
0.17271
0.179301
0.186684
0.194196
0.201373
0.207914
0.213646
0.218483
0.222401
0.225444
0.227772
0.229413
0.229457
0.227915
0.235867
0.248172
0.230742
0.221667
0.218551
0.219144
0.222398
0.227301
0.232979
0.23879
0.244298
0.249232
0.253443
0.256869
0.259513
0.26144
0.262816
0.263674
0.263291
0.261917
0.268922
0.306547
0.286593
0.27571
0.270992
0.269941
0.271502
0.274678
0.27861
0.282683
0.286491
0.289786
0.292441
0.294415
0.295721
0.296435
0.296713
0.296575
0.295382
0.293403
0.298775
0.36392
0.341524
0.328868
0.322554
0.319846
0.319693
0.321113
0.323272
0.325583
0.327665
0.329296
0.330368
0.330849
0.330763
0.330185
0.329255
0.327981
0.32579
0.322973
0.326688
0.419898
0.395157
0.380777
0.372882
0.368518
0.366644
0.366299
0.366674
0.367211
0.367559
0.367516
0.366988
0.365955
0.364444
0.362526
0.360326
0.357842
0.354564
0.350809
0.352888
0.474101
0.447121
0.431074
0.42163
0.415627
0.412041
0.409937
0.408535
0.407308
0.40593
0.40422
0.402098
0.399552
0.39661
0.393341
0.389854
0.386142
0.381759
0.377039
0.37751
0.526158
0.497056
0.479412
0.468459
0.460851
0.45558
0.451745
0.448594
0.44563
0.442554
0.439204
0.435515
0.431478
0.427127
0.422524
0.417768
0.412847
0.407379
0.401703
0.400612
0.575713
0.544618
0.525454
0.513049
0.503883
0.496974
0.491452
0.486598
0.481946
0.477221
0.472281
0.46707
0.461589
0.45587
0.449975
0.443989
0.437903
0.431394
0.424791
0.422199
0.622428
0.589475
0.568879
0.55509
0.544432
0.535949
0.528806
0.522316
0.516042
0.509737
0.503273
0.496607
0.489745
0.482721
0.475593
0.468437
0.461247
0.453753
0.446266
0.442247
0.665985
0.631316
0.609386
0.594294
0.582224
0.572248
0.563567
0.555526
0.547719
0.539918
0.532016
0.523978
0.515816
0.507564
0.499277
0.491025
0.482803
0.474392
0.466074
0.460713
0.706086
0.669851
0.646694
0.630391
0.617003
0.605632
0.595515
0.586027
0.576789
0.567597
0.558357
0.549045
0.539677
0.530288
0.52093
0.511665
0.502492
0.493241
0.484153
0.477548
0.742457
0.704812
0.680541
0.663132
0.648535
0.635884
0.624448
0.613631
0.603082
0.592616
0.582154
0.571678
0.56121
0.550785
0.540453
0.530269
0.520236
0.510225
0.500436
0.492695
0.774848
0.735957
0.710693
0.692291
0.676608
0.662804
0.65018
0.638169
0.626442
0.614834
0.603276
0.59176
0.580308
0.568959
0.557758
0.546755
0.535957
0.525271
0.514856
0.506097
0.803039
0.763067
0.73694
0.717669
0.701033
0.686217
0.67255
0.659491
0.646732
0.634123
0.621607
0.609181
0.596872
0.584716
0.572758
0.561043
0.549582
0.538311
0.52735
0.5177
0.826834
0.785955
0.759098
0.739091
0.721644
0.705967
0.691415
0.677465
0.66383
0.650373
0.637045
0.62385
0.610814
0.597978
0.585381
0.573064
0.561044
0.549281
0.537858
0.527453
0.846071
0.804461
0.777014
0.756408
0.738303
0.721926
0.706653
0.691981
0.677634
0.663488
0.649503
0.635684
0.622061
0.608673
0.59556
0.582758
0.570286
0.558126
0.54633
0.535312
0.860616
0.818454
0.790561
0.769502
0.750896
0.733988
0.718168
0.702947
0.688061
0.673393
0.658909
0.644618
0.630551
0.616746
0.603242
0.590073
0.577261
0.564802
0.552723
0.54124
0.870369
0.827839
0.799646
0.778282
0.75934
0.742074
0.725887
0.710296
0.695048
0.68003
0.665211
0.650603
0.636237
0.622153
0.608387
0.594973
0.581932
0.569273
0.557003
0.545208
0.875263
0.832548
0.804205
0.782688
0.763577
0.746131
0.729759
0.713983
0.698552
0.683358
0.668371
0.653604
0.639089
0.624864
0.610967
0.597429
0.584274
0.571514
0.55915
0.547198
0.875265
0.832549
0.804207
0.782689
0.763578
0.746132
0.72976
0.713984
0.698553
0.683359
0.668372
0.653605
0.63909
0.624865
0.610968
0.59743
0.584275
0.571515
0.559151
0.547199
0.870373
0.827842
0.79965
0.778286
0.759344
0.742078
0.72589
0.7103
0.695051
0.680033
0.665214
0.650606
0.63624
0.622156
0.60839
0.594975
0.581934
0.569275
0.557006
0.54521
0.860622
0.818461
0.790567
0.769508
0.750902
0.733994
0.718174
0.702952
0.688066
0.673398
0.658914
0.644623
0.630555
0.61675
0.603247
0.590077
0.577265
0.564806
0.552726
0.541243
0.846079
0.804469
0.777022
0.756416
0.738311
0.721933
0.706661
0.691988
0.677641
0.663495
0.649509
0.63569
0.622067
0.608679
0.595566
0.582763
0.570291
0.558132
0.546335
0.535317
0.826845
0.785966
0.759109
0.739101
0.721654
0.705977
0.691424
0.677475
0.663839
0.650381
0.637053
0.623858
0.610822
0.597985
0.585388
0.573071
0.561051
0.549287
0.537864
0.527459
0.803053
0.763081
0.736953
0.717682
0.701045
0.686229
0.672562
0.659503
0.646743
0.634133
0.621617
0.609191
0.596881
0.584725
0.572767
0.561052
0.54959
0.538319
0.527357
0.517707
0.774865
0.735973
0.710709
0.692307
0.676623
0.662819
0.650194
0.638183
0.626455
0.614846
0.603288
0.591771
0.580319
0.568969
0.557768
0.546765
0.535967
0.52528
0.514865
0.506105
0.742476
0.704831
0.680559
0.663149
0.648552
0.635901
0.624464
0.613646
0.603096
0.59263
0.582167
0.571692
0.561223
0.550798
0.540465
0.530281
0.520248
0.510235
0.500446
0.492704
0.706107
0.669872
0.646714
0.630411
0.617022
0.605651
0.595533
0.586044
0.576805
0.567613
0.558372
0.54906
0.539691
0.530301
0.520943
0.511678
0.502505
0.493253
0.484164
0.477559
0.666009
0.631339
0.609409
0.594316
0.582245
0.572268
0.563587
0.555545
0.547737
0.539936
0.532033
0.523995
0.515832
0.50758
0.499292
0.49104
0.482816
0.474406
0.466087
0.460725
0.622454
0.5895
0.568904
0.555115
0.544456
0.535972
0.528828
0.522337
0.516063
0.509756
0.503292
0.496625
0.489763
0.482738
0.475609
0.468453
0.461262
0.453767
0.44628
0.44226
0.575741
0.544646
0.525481
0.513075
0.503909
0.496999
0.491476
0.486621
0.481968
0.477243
0.472301
0.46709
0.461608
0.455889
0.449993
0.444007
0.43792
0.43141
0.424806
0.422213
0.526189
0.497087
0.479441
0.468488
0.460879
0.455607
0.451771
0.448619
0.445654
0.442577
0.439227
0.435536
0.431499
0.427147
0.422543
0.417786
0.412864
0.407396
0.401719
0.400627
0.474134
0.447153
0.431106
0.42166
0.415657
0.412069
0.409965
0.408562
0.407334
0.405955
0.404244
0.402121
0.399574
0.396631
0.393361
0.389874
0.386161
0.381777
0.377056
0.377526
0.419933
0.395191
0.38081
0.372915
0.36855
0.366674
0.366328
0.366702
0.367239
0.367586
0.367541
0.367012
0.365979
0.364467
0.362548
0.360347
0.357862
0.354583
0.350828
0.352905
0.363956
0.341559
0.328904
0.322589
0.319879
0.319725
0.321145
0.323302
0.325612
0.327693
0.329324
0.330394
0.330874
0.330787
0.330208
0.329277
0.328002
0.32581
0.322992
0.326707
0.306585
0.28663
0.275746
0.271028
0.269976
0.271537
0.274711
0.278642
0.282714
0.28652
0.289814
0.292469
0.294441
0.295747
0.29646
0.296736
0.296597
0.295403
0.293423
0.298795
0.248212
0.230781
0.221705
0.218589
0.219181
0.222434
0.227336
0.233013
0.238822
0.24433
0.249262
0.253472
0.256897
0.259539
0.261465
0.262841
0.263698
0.263313
0.261938
0.268942
0.189232
0.174393
0.167151
0.165629
0.167839
0.172748
0.179337
0.18672
0.19423
0.201405
0.207945
0.213676
0.218512
0.222429
0.225471
0.227798
0.229438
0.229481
0.227938
0.235888
0.130048
0.11785
0.112454
0.112509
0.116299
0.122813
0.131037
0.140076
0.149243
0.15805
0.166169
0.173395
0.179611
0.18475
0.188793
0.191814
0.193711
0.193161
0.189204
0.194813
0.071059
0.0615334
0.057984
0.0595853
0.064906
0.0729652
0.08276
0.0933953
0.104172
0.11458
0.124266
0.133004
0.140647
0.147099
0.152287
0.156149
0.158463
0.158467
0.155815
0.153568
0.0126376
0.00580165
0.00408977
0.00720045
0.0139928
0.0235258
0.0348176
0.0469825
0.0593153
0.0712933
0.0825519
0.0928536
0.102056
0.110082
0.116901
0.122494
0.126806
0.129938
0.132799
0.135148
-0.0448368
-0.0489861
-0.048882
-0.0443098
-0.0361156
-0.0251917
-0.0124899
0.00112189
0.0149403
0.0284361
0.0412374
0.0531029
0.0638943
0.0735542
0.0820842
0.0894965
0.095807
0.101464
0.107822
0.112915
-0.101006
-0.102491
-0.100604
-0.0946277
-0.0851113
-0.0728915
-0.058881
-0.0439226
-0.0287121
-0.0137813
0.000491676
0.0138597
0.0261821
0.0374047
0.0475363
0.0565929
0.0646063
0.072106
0.080412
0.0867468
-0.155536
-0.154397
-0.150772
-0.143456
-0.132706
-0.119296
-0.104092
-0.0879038
-0.0714158
-0.0551587
-0.0395164
-0.024744
-0.0109895
0.00168725
0.0132896
0.0238283
0.0333397
0.0423592
0.0520387
0.0591429
-0.208118
-0.204413
-0.199103
-0.190521
-0.178633
-0.164146
-0.147874
-0.130589
-0.112955
-0.0955006
-0.0786145
-0.0625604
-0.0474969
-0.0334949
-0.020563
-0.00870193
0.00212222
0.0124272
0.0231959
0.0309382
-0.258473
-0.252276
-0.245343
-0.235572
-0.222648
-0.207206
-0.19
-0.171759
-0.153124
-0.134616
-0.116628
-0.0994304
-0.0831952
-0.0680067
-0.0538884
-0.040855
-0.0288797
-0.0174714
-0.00579152
0.00256111
-0.306352
-0.29775
-0.289265
-0.278388
-0.264532
-0.248258
-0.230258
-0.21121
-0.191727
-0.17232
-0.15338
-0.135187
-0.117924
-0.101689
-0.0865215
-0.0724504
-0.0594572
-0.0470816
-0.034607
-0.0256402
-0.351537
-0.340633
-0.330674
-0.318774
-0.304092
-0.287112
-0.268459
-0.248756
-0.228583
-0.208435
-0.1887
-0.169663
-0.151518
-0.134375
-0.118291
-0.103306
-0.0894102
-0.0761769
-0.0629931
-0.0534034
-0.393845
-0.380753
-0.369402
-0.356567
-0.341164
-0.323602
-0.304437
-0.28423
-0.263526
-0.242797
-0.222426
-0.202699
-0.183818
-0.165907
-0.149033
-0.133251
-0.11856
-0.104567
-0.090746
-0.0805298
-0.433127
-0.417973
-0.405319
-0.391635
-0.375613
-0.35759
-0.338048
-0.317487
-0.296408
-0.275259
-0.25441
-0.234147
-0.214677
-0.196134
-0.178599
-0.162135
-0.146752
-0.132091
-0.117701
-0.106864
-0.469265
-0.452187
-0.438322
-0.423875
-0.407334
-0.388966
-0.369178
-0.348406
-0.327104
-0.305691
-0.284521
-0.263876
-0.243963
-0.224926
-0.206855
-0.189824
-0.173852
-0.158615
-0.143726
-0.132283
-0.502179
-0.483323
-0.468345
-0.453219
-0.436254
-0.417648
-0.397737
-0.37689
-0.355512
-0.333987
-0.312649
-0.291771
-0.271561
-0.252167
-0.233688
-0.216206
-0.199749
-0.18403
-0.168715
-0.156694
-0.531821
-0.511343
-0.49535
-0.479629
-0.462329
-0.443585
-0.423665
-0.402871
-0.381554
-0.360061
-0.338704
-0.317741
-0.297377
-0.277762
-0.259003
-0.241187
-0.224353
-0.208248
-0.192585
-0.180024
-0.558174
-0.536236
-0.519332
-0.503097
-0.485545
-0.466757
-0.446932
-0.426306
-0.405178
-0.383855
-0.362619
-0.341714
-0.321337
-0.301638
-0.282726
-0.264695
-0.247592
-0.231201
-0.215274
-0.202222
-0.581255
-0.558027
-0.540316
-0.523646
-0.50592
-0.487168
-0.467531
-0.44718
-0.426358
-0.405331
-0.384351
-0.363641
-0.343387
-0.323737
-0.304801
-0.286676
-0.269415
-0.252841
-0.236737
-0.223254
-0.60111
-0.576766
-0.558354
-0.541325
-0.523495
-0.504855
-0.485488
-0.465504
-0.445093
-0.424478
-0.403878
-0.383493
-0.363495
-0.344024
-0.325192
-0.307093
-0.289788
-0.273135
-0.256948
-0.243103
-0.617815
-0.59253
-0.573523
-0.556209
-0.538341
-0.519878
-0.50085
-0.481314
-0.461407
-0.441308
-0.421202
-0.401263
-0.381646
-0.362483
-0.343879
-0.325927
-0.308694
-0.292071
-0.2759
-0.261771
-0.631468
-0.605421
-0.585927
-0.568399
-0.550552
-0.53232
-0.513692
-0.494671
-0.475347
-0.455855
-0.436346
-0.416965
-0.397849
-0.379114
-0.360861
-0.343178
-0.326132
-0.309648
-0.293597
-0.279271
-0.642195
-0.615561
-0.595686
-0.578014
-0.560242
-0.542289
-0.524107
-0.505657
-0.486982
-0.468177
-0.449355
-0.430634
-0.412127
-0.393938
-0.376154
-0.358859
-0.342117
-0.325885
-0.310062
-0.295635
-0.650136
-0.62309
-0.60294
-0.585189
-0.567542
-0.549907
-0.532211
-0.514374
-0.496401
-0.478347
-0.46029
-0.442318
-0.424523
-0.406988
-0.389789
-0.372999
-0.356678
-0.340812
-0.325332
-0.310909
-0.655461
-0.628171
-0.607848
-0.590081
-0.572602
-0.555319
-0.538136
-0.520944
-0.503712
-0.48646
-0.469232
-0.452089
-0.435095
-0.418316
-0.401811
-0.385641
-0.369858
-0.354475
-0.339456
-0.325154
-0.658344
-0.63097
-0.610574
-0.592854
-0.575584
-0.558677
-0.542027
-0.525501
-0.509037
-0.492624
-0.476278
-0.460029
-0.443916
-0.427985
-0.412278
-0.396839
-0.381711
-0.366928
-0.352496
-0.338443
-0.658969
-0.631666
-0.611294
-0.593679
-0.576655
-0.560146
-0.544042
-0.528191
-0.512511
-0.496963
-0.481535
-0.466232
-0.45107
-0.436069
-0.421257
-0.406658
-0.392299
-0.378237
-0.364523
-0.35086
-0.657531
-0.630444
-0.610188
-0.592735
-0.575991
-0.559898
-0.544345
-0.529172
-0.514279
-0.499608
-0.485123
-0.470806
-0.456649
-0.442653
-0.428824
-0.415168
-0.401693
-0.388474
-0.375615
-0.362498
-0.654228
-0.62749
-0.607438
-0.590203
-0.573772
-0.558108
-0.543106
-0.528605
-0.514494
-0.5007
-0.487169
-0.473863
-0.460755
-0.447825
-0.43506
-0.422444
-0.409966
-0.397713
-0.385854
-0.373455
-0.649255
-0.622991
-0.603227
-0.586263
-0.570176
-0.554953
-0.540499
-0.526658
-0.513314
-0.500385
-0.487806
-0.475523
-0.463492
-0.451677
-0.440046
-0.428563
-0.417191
-0.406028
-0.395318
-0.383828
-0.642805
-0.617128
-0.597732
-0.581091
-0.56538
-0.550609
-0.536698
-0.523498
-0.510899
-0.498813
-0.48717
-0.475907
-0.464967
-0.454302
-0.443863
-0.433594
-0.423434
-0.413486
-0.404081
-0.393711
-0.635064
-0.610077
-0.591124
-0.57486
-0.559556
-0.545247
-0.531871
-0.519293
-0.507407
-0.496133
-0.485397
-0.475135
-0.465284
-0.455787
-0.446585
-0.437603
-0.428753
-0.420143
-0.412202
-0.403184
-0.626204
-0.602002
-0.583567
-0.567731
-0.552868
-0.539033
-0.526185
-0.514204
-0.502997
-0.492492
-0.482622
-0.473327
-0.464544
-0.456215
-0.448276
-0.440638
-0.433188
-0.426036
-0.41972
-0.41231
-0.616385
-0.593057
-0.575211
-0.559858
-0.545469
-0.532124
-0.519796
-0.508388
-0.49782
-0.488034
-0.478976
-0.470595
-0.46284
-0.455657
-0.448984
-0.44273
-0.436758
-0.431176
-0.426645
-0.421123
-0.605752
-0.583383
-0.566197
-0.55138
-0.537503
-0.524663
-0.512853
-0.501992
-0.49202
-0.482896
-0.474583
-0.467047
-0.460255
-0.454169
-0.448741
-0.443883
-0.439448
-0.435536
-0.43295
-0.429621
-0.594432
-0.573106
-0.556649
-0.542424
-0.529099
-0.516784
-0.505489
-0.495152
-0.485732
-0.477206
-0.469557
-0.462778
-0.456859
-0.451789
-0.447547
-0.444067
-0.441197
-0.439039
-0.438552
-0.437755
-0.582538
-0.562339
-0.54668
-0.533102
-0.52037
-0.508603
-0.497825
-0.48799
-0.479076
-0.471078
-0.464004
-0.457872
-0.452706
-0.448532
-0.445372
-0.443199
-0.441882
-0.441533
-0.443291
-0.445413
-0.570168
-0.551181
-0.536389
-0.523513
-0.511415
-0.50022
-0.489962
-0.48061
-0.472157
-0.464615
-0.458013
-0.452398
-0.44783
-0.444384
-0.442138
-0.441133
-0.441287
-0.44275
-0.446888
-0.452391
-0.557414
-0.539722
-0.525864
-0.513742
-0.502317
-0.491719
-0.481985
-0.473099
-0.465062
-0.457899
-0.451657
-0.446407
-0.442245
-0.439295
-0.437712
-0.437629
-0.439058
-0.442234
-0.448855
-0.458316
-0.54436
-0.528046
-0.515181
-0.50386
-0.493146
-0.483165
-0.473961
-0.465523
-0.457858
-0.450997
-0.444994
-0.439934
-0.435939
-0.433181
-0.431888
-0.432312
-0.4346
-0.439147
-0.448204
-0.462377
-0.531095
-0.516233
-0.504414
-0.493933
-0.483958
-0.474612
-0.465941
-0.457934
-0.450598
-0.44396
-0.438069
-0.433007
-0.428901
-0.425943
-0.424417
-0.424689
-0.427059
-0.43215
-0.443208
-0.463246
-0.51771
-0.504361
-0.493629
-0.484018
-0.474805
-0.466106
-0.457966
-0.450373
-0.443326
-0.436837
-0.430934
-0.425673
-0.42115
-0.41753
-0.415102
-0.414304
-0.415581
-0.419766
-0.4315
-0.458594
-0.504306
-0.492511
-0.482894
-0.474172
-0.465732
-0.457687
-0.450076
-0.442884
-0.436095
-0.429694
-0.423669
-0.418014
-0.412735
-0.407867
-0.403529
-0.400004
-0.397595
-0.396439
-0.400317
-0.424862
-0.490991
-0.480769
-0.472277
-0.46445
-0.456788
-0.449399
-0.442318
-0.435524
-0.428986
-0.422658
-0.416475
-0.410338
-0.404097
-0.397506
-0.390173
-0.381543
-0.370444
-0.353022
-0.322761
-0.292081
-0.477879
-0.46922
-0.461846
-0.45491
-0.448023
-0.44129
-0.434745
-0.428366
-0.422116
-0.415936
-0.409737
-0.403396
-0.396735
-0.389492
-0.381303
-0.371756
-0.360215
-0.344523
-0.321301
-0.300788
-0.465083
-0.45795
-0.451669
-0.445607
-0.439485
-0.433405
-0.427403
-0.421464
-0.415553
-0.409613
-0.403561
-0.397287
-0.390643
-0.383437
-0.375442
-0.36645
-0.356192
-0.343657
-0.327936
-0.317237
-0.452711
-0.447038
-0.441811
-0.436596
-0.43122
-0.425785
-0.42033
-0.414852
-0.409323
-0.403699
-0.397912
-0.391876
-0.385485
-0.378609
-0.371118
-0.362923
-0.353902
-0.343472
-0.331587
-0.325005
-0.440857
-0.436559
-0.432333
-0.427929
-0.423273
-0.418467
-0.413557
-0.408552
-0.403439
-0.398186
-0.392747
-0.387064
-0.381069
-0.374689
-0.367863
-0.360584
-0.352821
-0.344209
-0.33491
-0.330312
-0.429604
-0.426579
-0.423289
-0.419652
-0.415683
-0.411485
-0.407112
-0.402585
-0.397905
-0.393058
-0.388019
-0.382754
-0.377229
-0.371412
-0.36529
-0.3589
-0.352262
-0.345126
-0.337691
-0.334254
-0.419014
-0.417151
-0.414725
-0.411806
-0.408486
-0.404869
-0.401017
-0.396964
-0.392724
-0.388299
-0.383682
-0.378862
-0.373829
-0.368578
-0.363124
-0.357525
-0.351817
-0.345815
-0.339698
-0.336938
-0.409134
-0.408317
-0.406682
-0.404425
-0.401712
-0.398644
-0.395292
-0.3917
-0.387896
-0.383894
-0.379702
-0.375327
-0.370776
-0.366062
-0.361215
-0.356295
-0.351346
-0.346218
-0.341052
-0.338677
-0.399996
-0.400111
-0.399189
-0.397539
-0.395387
-0.392833
-0.389954
-0.386803
-0.383419
-0.379828
-0.376051
-0.372105
-0.368009
-0.363787
-0.359476
-0.355134
-0.350804
-0.346358
-0.341899
-0.339743
-0.391617
-0.392555
-0.392271
-0.391172
-0.389533
-0.387454
-0.385015
-0.382279
-0.379294
-0.376094
-0.372708
-0.369164
-0.365487
-0.361708
-0.357863
-0.354009
-0.350182
-0.346276
-0.342355
-0.340326
-0.384006
-0.385665
-0.385947
-0.385341
-0.384166
-0.382521
-0.380487
-0.378136
-0.375521
-0.372684
-0.369662
-0.366486
-0.363187
-0.359798
-0.356356
-0.352911
-0.349496
-0.346021
-0.34252
-0.340568
-0.377166
-0.379451
-0.38023
-0.380062
-0.379302
-0.378047
-0.37638
-0.374379
-0.372103
-0.369597
-0.366904
-0.364058
-0.361095
-0.358046