1.275 	2.15223e-18 	-2.76991e-20 	-0.0344324 	-0.000435987 	-1.91976e-22
1.825 	2.15223e-18 	-1.39322e-20 	-0.00940845 	-0.00276325 	1.7001e-21
2.375 	2.15223e-18 	-2.66896e-23 	0.115466 	-0.00325454 	-7.09278e-22
