1.45 	0 	0 	0.00489015 	-0.0039318 	3.94608e-21
2.35 	0 	0 	0.119201 	-0.00865243 	1.88693e-21
