/*--------------------------------*- C++ -*----------------------------------*\
  =========                 |
  \\      /  F ield         | OpenFOAM: The Open Source CFD Toolbox
   \\    /   O peration     | Website:  https://openfoam.org
    \\  /    A nd           | Version:  6.0
     \\/     M anipulation  |
\*---------------------------------------------------------------------------*/
FoamFile
{
    version     2.0;
    format      ascii;
    class       volScalarField;
    location    "38";
    object      p;
}
// * * * * * * * * * * * * * * * * * * * * * * * * * * * * * * * * * * * * * //

dimensions      [0 2 -2 0 0 0 0];

internalField   nonuniform List<scalar> 
2000
(
-0.348086
-0.353992
-0.35568
-0.355011
-0.353151
-0.350475
-0.347259
-0.343797
-0.340376
-0.33668
-0.350804
-0.356291
-0.357639
-0.356668
-0.35452
-0.351568
-0.34809
-0.344368
-0.340692
-0.336876
-0.35626
-0.360887
-0.361545
-0.359965
-0.357236
-0.353728
-0.349715
-0.345455
-0.341252
-0.337191
-0.364494
-0.367782
-0.367377
-0.364871
-0.361261
-0.356908
-0.35207
-0.346967
-0.341916
-0.337466
-0.375567
-0.376972
-0.375107
-0.371348
-0.366553
-0.361058
-0.355088
-0.348787
-0.342487
-0.337444
-0.389543
-0.388444
-0.384692
-0.379355
-0.373081
-0.366155
-0.358737
-0.350831
-0.342756
-0.336796
-0.406454
-0.402154
-0.396075
-0.388851
-0.380839
-0.37224
-0.36311
-0.353219
-0.34272
-0.335262
-0.426246
-0.418004
-0.409162
-0.399775
-0.389812
-0.379357
-0.368322
-0.356079
-0.342136
-0.331693
-0.448706
-0.435821
-0.42384
-0.412086
-0.400041
-0.387597
-0.374356
-0.358796
-0.33871
-0.321399
-0.473399
-0.455339
-0.440007
-0.425932
-0.412146
-0.39845
-0.384086
-0.366421
-0.341381
-0.317404
-0.49964
-0.476135
-0.457396
-0.441225
-0.426497
-0.413585
-0.40283
-0.394873
-0.39501
-0.414543
-0.526603
-0.497629
-0.475388
-0.456857
-0.44052
-0.426837
-0.416284
-0.40992
-0.412875
-0.430146
-0.553567
-0.519365
-0.493711
-0.472709
-0.454345
-0.438983
-0.426989
-0.419083
-0.418374
-0.426192
-0.579882
-0.540869
-0.512052
-0.488608
-0.467972
-0.450328
-0.435836
-0.42475
-0.418547
-0.417209
-0.604799
-0.561476
-0.529788
-0.503911
-0.480698
-0.460132
-0.442174
-0.426698
-0.414127
-0.4045
-0.627329
-0.58025
-0.545973
-0.51761
-0.491467
-0.467393
-0.445267
-0.424776
-0.405755
-0.388966
-0.646189
-0.595983
-0.559377
-0.528423
-0.498991
-0.47094
-0.444232
-0.41856
-0.393508
-0.370854
-0.659818
-0.607219
-0.568539
-0.534866
-0.501842
-0.469515
-0.438101
-0.407446
-0.3771
-0.349925
-0.666455
-0.612319
-0.571836
-0.535346
-0.498544
-0.461863
-0.425912
-0.390771
-0.356069
-0.325681
-0.664232
-0.609544
-0.567574
-0.528252
-0.487664
-0.446813
-0.406779
-0.367894
-0.329901
-0.297534
-0.651295
-0.597153
-0.554083
-0.512056
-0.467913
-0.42336
-0.379972
-0.338292
-0.298147
-0.26495
-0.625908
-0.573503
-0.529827
-0.485419
-0.43823
-0.390744
-0.344986
-0.301626
-0.260518
-0.227557
-0.586599
-0.537189
-0.493527
-0.447302
-0.397879
-0.348517
-0.301594
-0.257804
-0.216953
-0.18522
-0.53227
-0.487149
-0.444272
-0.397055
-0.346505
-0.29658
-0.249876
-0.207005
-0.167654
-0.138081
-0.462318
-0.422787
-0.381614
-0.334481
-0.284163
-0.235183
-0.190207
-0.14968
-0.113098
-0.0865663
-0.37674
-0.344068
-0.305647
-0.259871
-0.211315
-0.164889
-0.123191
-0.0864467
-0.0539201
-0.0312996
-0.276227
-0.251596
-0.217052
-0.174023
-0.128817
-0.0865382
-0.0495967
-0.0180046
0.00915902
0.026892
-0.162215
-0.14666
-0.117113
-0.0782278
-0.0379063
-0.00127273
0.0295177
0.0545283
0.0745977
0.0859787
-0.0369166
-0.0312308
-0.00768191
0.0258427
0.0600335
0.0898552
0.113294
0.129938
0.139872
0.142243
0.0967139
0.0920479
0.108829
0.136158
0.16368
0.186669
0.203157
0.211524
0.21049
0.203761
0.235101
0.219911
0.229317
0.249825
0.270575
0.287688
0.299893
0.305375
0.304328
0.318246
0.374348
0.348714
0.350169
0.362988
0.376008
0.385982
0.392035
0.393277
0.3922
0.405123
0.510513
0.474784
0.467976
0.472528
0.477181
0.47926
0.478197
0.473576
0.467883
0.472986
0.639749
0.594512
0.579447
0.575545
0.571646
0.565658
0.557322
0.546488
0.53523
0.532388
0.758394
0.70446
0.681487
0.669379
0.657213
0.643465
0.628153
0.611316
0.594646
0.584699
0.863062
0.801461
0.771279
0.751634
0.731926
0.711149
0.689562
0.66735
0.645835
0.629679
0.950737
0.882706
0.846333
0.820198
0.794035
0.767285
0.740406
0.713695
0.68812
0.666762
1.01887
0.945828
0.904558
0.873283
0.842037
0.81061
0.779614
0.749427
0.720706
0.695291
1.06544
0.988975
0.944316
0.909484
0.874735
0.8401
0.806291
0.773741
0.742876
0.714675
1.08908
1.01087
0.964482
0.927833
0.891298
0.855031
0.819797
0.786051
0.7541
0.72448
1.08908
1.01087
0.964482
0.927833
0.891298
0.855031
0.819797
0.786052
0.7541
0.724481
1.06544
0.988975
0.944316
0.909484
0.874735
0.8401
0.806291
0.773741
0.742876
0.714675
1.01887
0.945828
0.904558
0.873283
0.842037
0.810611
0.779614
0.749427
0.720706
0.695291
0.950737
0.882706
0.846333
0.820198
0.794035
0.767286
0.740407
0.713696
0.68812
0.666762
0.863062
0.801461
0.771279
0.751634
0.731926
0.71115
0.689563
0.667351
0.645836
0.62968
0.758394
0.704461
0.681488
0.669379
0.657213
0.643465
0.628154
0.611317
0.594647
0.5847
0.639749
0.594513
0.579447
0.575546
0.571647
0.565659
0.557323
0.546489
0.535231
0.532389
0.510514
0.474784
0.467977
0.472529
0.477182
0.479261
0.478198
0.473576
0.467884
0.472987
0.374349
0.348714
0.35017
0.362989
0.376009
0.385983
0.392036
0.393278
0.392201
0.405124
0.235101
0.219912
0.229318
0.249825
0.270576
0.287689
0.299894
0.305376
0.304329
0.318247
0.0967147
0.0920488
0.10883
0.136159
0.163681
0.186671
0.203158
0.211525
0.210491
0.203762
-0.0369157
-0.0312298
-0.00768087
0.0258438
0.0600347
0.0898563
0.113295
0.12994
0.139874
0.142245
-0.162214
-0.146658
-0.117112
-0.0782266
-0.0379051
-0.00127148
0.0295189
0.0545295
0.0745989
0.0859799
-0.276225
-0.251595
-0.21705
-0.174022
-0.128816
-0.0865369
-0.0495953
-0.0180033
0.00916034
0.0268933
-0.376739
-0.344067
-0.305646
-0.259869
-0.211313
-0.164887
-0.123189
-0.0864453
-0.0539187
-0.0312982
-0.462316
-0.422786
-0.381613
-0.334479
-0.284162
-0.235182
-0.190206
-0.149679
-0.113097
-0.0865649
-0.532269
-0.487148
-0.44427
-0.397053
-0.346504
-0.296578
-0.249874
-0.207004
-0.167653
-0.13808
-0.586598
-0.537187
-0.493525
-0.4473
-0.397878
-0.348515
-0.301592
-0.257802
-0.216951
-0.185219
-0.625907
-0.573502
-0.529825
-0.485417
-0.438228
-0.390742
-0.344984
-0.301625
-0.260517
-0.227555
-0.651293
-0.597151
-0.554081
-0.512054
-0.467911
-0.423358
-0.37997
-0.33829
-0.298145
-0.264948
-0.66423
-0.609542
-0.567572
-0.52825
-0.487662
-0.446811
-0.406777
-0.367892
-0.329899
-0.297533
-0.666453
-0.612317
-0.571834
-0.535344
-0.498542
-0.461861
-0.42591
-0.390769
-0.356068
-0.32568
-0.659816
-0.607217
-0.568537
-0.534864
-0.50184
-0.469513
-0.438099
-0.407445
-0.377099
-0.349923
-0.646187
-0.595981
-0.559375
-0.528421
-0.498989
-0.470938
-0.44423
-0.418558
-0.393506
-0.370852
-0.627327
-0.580248
-0.545971
-0.517608
-0.491465
-0.467391
-0.445265
-0.424775
-0.405753
-0.388965
-0.604797
-0.561474
-0.529786
-0.503909
-0.480696
-0.46013
-0.442172
-0.426696
-0.414126
-0.404498
-0.57988
-0.540867
-0.51205
-0.488606
-0.46797
-0.450326
-0.435834
-0.424749
-0.418546
-0.417208
-0.553565
-0.519363
-0.493709
-0.472707
-0.454343
-0.438981
-0.426987
-0.419082
-0.418373
-0.42619
-0.526601
-0.497627
-0.475386
-0.456855
-0.440518
-0.426836
-0.416283
-0.409918
-0.412874
-0.430145
-0.499638
-0.476133
-0.457394
-0.441223
-0.426495
-0.413583
-0.402828
-0.394871
-0.395009
-0.414541
-0.473397
-0.455338
-0.440005
-0.42593
-0.412145
-0.398448
-0.384084
-0.366419
-0.34138
-0.317403
-0.448704
-0.435819
-0.423838
-0.412084
-0.400039
-0.387595
-0.374355
-0.358794
-0.338709
-0.321398
-0.426244
-0.418002
-0.409161
-0.399774
-0.389811
-0.379355
-0.36832
-0.356078
-0.342135
-0.331692
-0.406453
-0.402152
-0.396073
-0.38885
-0.380838
-0.372239
-0.363108
-0.353217
-0.342718
-0.335261
-0.389542
-0.388443
-0.384691
-0.379354
-0.37308
-0.366154
-0.358736
-0.35083
-0.342754
-0.336795
-0.375566
-0.376972
-0.375106
-0.371347
-0.366552
-0.361057
-0.355087
-0.348786
-0.342486
-0.337443
-0.364494
-0.367782
-0.367377
-0.36487
-0.36126
-0.356907
-0.352069
-0.346966
-0.341915
-0.337465
-0.356259
-0.360887
-0.361544
-0.359964
-0.357235
-0.353728
-0.349714
-0.345455
-0.341251
-0.337191
-0.350804
-0.35629
-0.357638
-0.356668
-0.35452
-0.351568
-0.34809
-0.344367
-0.340692
-0.336876
-0.348086
-0.353992
-0.35568
-0.355011
-0.353151
-0.350474
-0.347258
-0.343797
-0.340376
-0.33668
-0.290468
-0.126313
-0.0812687
-0.0303514
-0.0192479
-0.00781178
-0.00436507
-0.000891638
-0.000467287
0.00216896
-0.291698
-0.12686
-0.081539
-0.0305504
-0.0193162
-0.00787177
-0.00439476
-0.000911881
-0.000475879
0.0021531
-0.29409
-0.127941
-0.0820742
-0.0309493
-0.0194524
-0.00799129
-0.00445406
-0.000952868
-0.000493574
0.00212151
-0.297501
-0.129532
-0.0828631
-0.03155
-0.0196559
-0.00816987
-0.00454277
-0.00101452
-0.000520212
0.00207452
-0.301687
-0.131587
-0.0838795
-0.0323508
-0.0199247
-0.00840611
-0.0046604
-0.00109664
-0.000555514
0.00201259
-0.306291
-0.134033
-0.0850739
-0.033338
-0.0202531
-0.00869643
-0.00480572
-0.00119868
-0.00059912
0.00193635
-0.311184
-0.136937
-0.0864518
-0.0345068
-0.0206416
-0.00903808
-0.00497819
-0.00131969
-0.000651227
0.00184739
-0.316888
-0.140952
-0.0882758
-0.035958
-0.0211336
-0.00944452
-0.00518387
-0.00146001
-0.00071336
0.00174847
-0.321666
-0.146458
-0.090724
-0.0378567
-0.0217797
-0.00994282
-0.00543193
-0.00162502
-0.000783946
0.00163705
-0.313862
-0.148833
-0.0918339
-0.039559
-0.0222823
-0.0104351
-0.005677
-0.00181594
-0.000843506
0.00149032
-0.24733
-0.140739
-0.0882084
-0.0428166
-0.0227815
-0.0117669
-0.00639403
-0.00255542
-0.0010091
0.000837183
-0.189234
-0.131734
-0.0822019
-0.0442752
-0.024514
-0.0141575
-0.00824207
-0.00403873
-0.00177109
-4.93713e-06
-0.147816
-0.113879
-0.0727711
-0.0428425
-0.025938
-0.0163616
-0.0101759
-0.00562995
-0.00270587
-0.000684785
-0.108221
-0.0929791
-0.0633505
-0.0408712
-0.0269859
-0.0181552
-0.0118492
-0.00706451
-0.00359667
-0.00115558
-0.0789814
-0.0757074
-0.0565501
-0.0396144
-0.0278086
-0.0194993
-0.0131605
-0.00821801
-0.00434392
-0.00145396
-0.0588885
-0.0628605
-0.0515902
-0.0386138
-0.0282186
-0.0203454
-0.0140865
-0.00907194
-0.00492208
-0.0016475
-0.0458621
-0.0535995
-0.0477287
-0.0376431
-0.0283057
-0.0208261
-0.0147097
-0.00967984
-0.00535056
-0.00178415
-0.0376172
-0.0471401
-0.0447668
-0.0367898
-0.0282602
-0.0210953
-0.0151175
-0.0100966
-0.0056532
-0.00188298
-0.032795
-0.0430392
-0.0427593
-0.0361867
-0.0282036
-0.0212414
-0.0153622
-0.0103558
-0.00584611
-0.00194758
-0.0305644
-0.0410376
-0.0417483
-0.0358896
-0.0281796
-0.0213061
-0.0154752
-0.0104777
-0.00594045
-0.00197784
-0.218628
-0.246525
-0.272304
-0.296248
-0.318742
-0.340292
-0.361517
-0.383061
-0.405427
-0.429269
-0.0679811
-0.0781236
-0.0872882
-0.095718
-0.10372
-0.111675
-0.120041
-0.129358
-0.140204
-0.15437
-0.0452094
-0.0543912
-0.0631872
-0.071571
-0.0795049
-0.0869441
-0.0938452
-0.100181
-0.105949
-0.11127
-0.0187858
-0.0245057
-0.0300193
-0.0353456
-0.0405062
-0.0455247
-0.0504242
-0.0552266
-0.0599321
-0.0644199
-0.0130764
-0.0174322
-0.0216635
-0.0257666
-0.0297379
-0.0335734
-0.0372694
-0.0408231
-0.0442149
-0.0474132
-0.00802175
-0.011239
-0.0143969
-0.0174944
-0.020531
-0.023506
-0.0264192
-0.029269
-0.0320438
-0.034747
-0.00689795
-0.00943477
-0.0119353
-0.0143955
-0.0168118
-0.0191811
-0.0215008
-0.0237685
-0.0259782
-0.028143
-0.00609676
-0.00815461
-0.0101959
-0.0122166
-0.014213
-0.0161816
-0.0181194
-0.0200233
-0.02189
-0.0237267
-0.00600903
-0.00778363
-0.00955029
-0.0113045
-0.0130421
-0.0147592
-0.0164522
-0.0181179
-0.0197543
-0.0213625
-0.00595296
-0.00757884
-0.00920211
-0.010819
-0.0124261
-0.0140199
-0.0155973
-0.0171555
-0.0186932
-0.0202082
0.167972
0.126985
0.0816366
0.0385675
-0.00317094
-0.04405
-0.0834533
-0.120798
-0.155817
-0.188424
0.117503
0.0915882
0.0647964
0.0419577
0.0218377
0.00316395
-0.0141464
-0.0298823
-0.0440173
-0.0566667
0.0733835
0.0576855
0.0427326
0.0298206
0.0179694
0.00650279
-0.00465007
-0.0154013
-0.0257277
-0.0356559
0.0531281
0.0440552
0.0354263
0.027716
0.0204497
0.0133572
0.00644069
-0.000241151
-0.00666703
-0.0128441
0.0375918
0.0316405
0.0259004
0.0206099
0.0155196
0.0104986
0.00555368
0.000716103
-0.00400158
-0.00859894
0.0273306
0.0234418
0.0195966
0.0159589
0.0124164
0.00890113
0.00541446
0.00197313
-0.00141451
-0.00474646
0.0196284
0.0169
0.0141448
0.0114683
0.00882229
0.00617399
0.00352515
0.000886948
-0.00173276
-0.00432915
0.0144482
0.0124532
0.0104079
0.00837492
0.0063375
0.00428207
0.00221102
0.000131872
-0.00194903
-0.00402674
0.0111178
0.00952289
0.007879
0.00621533
0.0045271
0.00281118
0.00107145
-0.000685935
-0.00245523
-0.00423126
0.00952175
0.00810119
0.00663729
0.00514429
0.00362159
0.00207023
0.000494546
-0.00110029
-0.00270945
-0.00432845
0.335388
0.334687
0.333138
0.330264
0.32528
0.316948
0.303499
0.282538
0.25143
0.206813
0.24549
0.244374
0.241738
0.237153
0.230283
0.220698
0.207826
0.191011
0.169503
0.142748
0.17466
0.17353
0.170864
0.166339
0.159849
0.151285
0.140459
0.127155
0.110967
0.0919804
0.12305
0.122165
0.120062
0.1165
0.11146
0.104969
0.0970192
0.0876209
0.0766961
0.0645799
0.0867168
0.0860723
0.0845334
0.0819203
0.0782404
0.073546
0.0678713
0.0612545
0.0536758
0.0453441
0.0615381
0.0610747
0.0599661
0.058084
0.0554415
0.0520898
0.0480707
0.0434281
0.0381795
0.0324714
0.044387
0.0440485
0.0432384
0.0418631
0.0399344
0.0374924
0.034571
0.0312028
0.0274073
0.0232685
0.0331017
0.0328449
0.0322304
0.0311873
0.0297251
0.0278751
0.0256641
0.0231172
0.0202549
0.0171291
0.0262661
0.0260576
0.0255589
0.0247125
0.0235258
0.0220239
0.020228
0.018157
0.0158287
0.0132744
0.0230458
0.0228593
0.0224141
0.021659
0.0206002
0.0192598
0.0176565
0.0158064
0.0137264
0.0114394
0.485362
0.487115
0.493448
0.504594
0.520446
0.541306
0.56764
0.599972
0.638839
0.684487
0.483121
0.484848
0.491101
0.502091
0.517694
0.538176
0.563946
0.595441
0.63306
0.676895
0.47869
0.480372
0.486472
0.49716
0.512276
0.532018
0.556677
0.586518
0.621669
0.661918
0.472171
0.473797
0.479687
0.489943
0.504359
0.523025
0.546062
0.57348
0.604987
0.639964
0.4637
0.465277
0.470918
0.480637
0.494168
0.511464
0.532424
0.556714
0.583481
0.61162
0.453447
0.454996
0.46037
0.469471
0.481962
0.497635
0.516122
0.536668
0.55772
0.57762
0.441608
0.443197
0.448324
0.456763
0.468102
0.481948
0.497626
0.513883
0.528381
0.538832
0.428389
0.430204
0.435219
0.443069
0.453284
0.465253
0.477922
0.489402
0.496466
0.496051
0.41386
0.416151
0.421245
0.428631
0.437826
0.447999
0.45765
0.464061
0.46285
0.448771
0.397657
0.400093
0.40476
0.411017
0.418396
0.425947
0.431895
0.433018
0.424553
0.39685
0.397659
0.400094
0.404761
0.411018
0.418397
0.425948
0.431896
0.433019
0.424554
0.396851
0.413861
0.416152
0.421246
0.428632
0.437827
0.448
0.457651
0.464062
0.462851
0.448771
0.42839
0.430205
0.43522
0.44307
0.453285
0.465253
0.477923
0.489403
0.496467
0.496052
0.441609
0.443198
0.448325
0.456763
0.468103
0.481949
0.497627
0.513884
0.528382
0.538833
0.453448
0.454997
0.460371
0.469472
0.481963
0.497636
0.516123
0.536669
0.55772
0.577621
0.463701
0.465277
0.470918
0.480638
0.494169
0.511465
0.532425
0.556714
0.583481
0.61162
0.472171
0.473798
0.479687
0.489943
0.504359
0.523025
0.546063
0.57348
0.604987
0.639965
0.478691
0.480373
0.486473
0.49716
0.512277
0.532018
0.556677
0.586519
0.621669
0.661919
0.483121
0.484848
0.491101
0.502092
0.517694
0.538177
0.563946
0.595441
0.633061
0.676895
0.485362
0.487115
0.493448
0.504595
0.520446
0.541306
0.56764
0.599972
0.63884
0.684487
0.0230469
0.0228604
0.0224152
0.0216601
0.0206014
0.019261
0.0176576
0.0158075
0.0137276
0.0114405
0.0262673
0.0260588
0.02556
0.0247137
0.023527
0.0220251
0.0202292
0.0181582
0.0158298
0.0132756
0.0331029
0.0328461
0.0322316
0.0311885
0.0297262
0.0278762
0.0256652
0.0231184
0.0202561
0.0171302
0.0443882
0.0440497
0.0432395
0.0418643
0.0399355
0.0374936
0.0345721
0.031204
0.0274084
0.0232697
0.0615392
0.0610758
0.0599673
0.0580852
0.0554427
0.052091
0.0480719
0.0434293
0.0381807
0.0324726
0.086718
0.0860735
0.0845346
0.0819215
0.0782416
0.0735472
0.0678725
0.0612556
0.053677
0.0453452
0.123051
0.122166
0.120063
0.116501
0.111461
0.10497
0.0970204
0.0876221
0.0766973
0.0645811
0.174661
0.173532
0.170865
0.16634
0.15985
0.151287
0.14046
0.127156
0.110968
0.0919815
0.245491
0.244375
0.241739
0.237155
0.230284
0.220699
0.207827
0.191012
0.169504
0.14275
0.335389
0.334689
0.333139
0.330265
0.325281
0.316949
0.3035
0.282539
0.251431
0.206814
0.00952285
0.00810226
0.00663833
0.00514531
0.00362258
0.00207119
0.000495481
-0.00109939
-0.00270858
-0.00432761
0.0111189
0.00952399
0.00788007
0.00621638
0.00452811
0.00281216
0.0010724
-0.00068502
-0.00245435
-0.00423042
0.0144493
0.0124543
0.010409
0.00837596
0.00633851
0.00428306
0.00221198
0.000132788
-0.00194815
-0.0040259
0.0196295
0.0169011
0.0141459
0.0114693
0.00882333
0.00617501
0.00352613
0.000887895
-0.00173185
-0.00432827
0.0273318
0.0234429
0.0195977
0.01596
0.0124175
0.00890215
0.00541544
0.00197408
-0.0014136
-0.00474558
0.037593
0.0316417
0.0259015
0.020611
0.0155207
0.0104997
0.0055547
0.000717099
-0.00400061
-0.00859799
0.0531293
0.0440564
0.0354274
0.0277171
0.0204508
0.0133583
0.00644174
-0.000240134
-0.00666605
-0.0128431
0.0733846
0.0576867
0.0427337
0.0298217
0.0179705
0.00650387
-0.004649
-0.0154002
-0.0257266
-0.0356549
0.117504
0.0915893
0.0647976
0.0419589
0.0218388
0.00316509
-0.0141452
-0.0298812
-0.0440162
-0.0566656
0.167973
0.126986
0.0816378
0.0385687
-0.00316973
-0.0440488
-0.083452
-0.120797
-0.155816
-0.188422
-0.00595217
-0.0075781
-0.00920144
-0.0108184
-0.0124255
-0.0140193
-0.0155968
-0.0171551
-0.0186928
-0.0202079
-0.00600823
-0.00778287
-0.0095496
-0.0113039
-0.0130415
-0.0147586
-0.0164517
-0.0181175
-0.0197539
-0.0213621
-0.00609596
-0.00815384
-0.0101952
-0.012216
-0.0142124
-0.016181
-0.0181189
-0.0200228
-0.0218896
-0.0237264
-0.00689712
-0.009434
-0.0119346
-0.0143948
-0.0168111
-0.0191805
-0.0215003
-0.023768
-0.0259778
-0.0281427
-0.0080209
-0.0112382
-0.0143961
-0.0174937
-0.0205303
-0.0235054
-0.0264187
-0.0292685
-0.0320434
-0.0347466
-0.0130755
-0.0174314
-0.0216627
-0.0257659
-0.0297372
-0.0335728
-0.0372689
-0.0408226
-0.0442144
-0.0474128
-0.0187849
-0.0245049
-0.0300185
-0.0353448
-0.0405055
-0.045524
-0.0504236
-0.0552261
-0.0599316
-0.0644195
-0.0452084
-0.0543902
-0.0631863
-0.0715701
-0.0795041
-0.0869434
-0.0938446
-0.100181
-0.105949
-0.11127
-0.06798
-0.0781226
-0.0872871
-0.095717
-0.103719
-0.111675
-0.120041
-0.129357
-0.140203
-0.15437
-0.218626
-0.246524
-0.272303
-0.296247
-0.318741
-0.340291
-0.361516
-0.38306
-0.405426
-0.429269
-0.0305641
-0.0410372
-0.041748
-0.0358891
-0.0281789
-0.0213058
-0.0154758
-0.0104788
-0.0059416
-0.00197862
-0.0327947
-0.0430388
-0.042759
-0.0361861
-0.0282028
-0.0212411
-0.0153628
-0.010357
-0.00584737
-0.00194842
-0.0376168
-0.0471398
-0.0447665
-0.0367892
-0.0282593
-0.0210949
-0.0151181
-0.0100979
-0.00565472
-0.00188394
-0.0458618
-0.0535992
-0.0477285
-0.0376423
-0.0283045
-0.0208256
-0.0147103
-0.0096815
-0.00535253
-0.00178531
-0.0588881
-0.0628603
-0.0515901
-0.0386128
-0.0282169
-0.0203447
-0.0140872
-0.00907412
-0.00492478
-0.00164889
-0.0789811
-0.0757073
-0.0565502
-0.039613
-0.0278062
-0.0194983
-0.0131612
-0.00822103
-0.00434774
-0.00145564
-0.108221
-0.0929793
-0.0633509
-0.0408691
-0.0269824
-0.0181538
-0.01185
-0.00706879
-0.0036021
-0.00115753
-0.147815
-0.11388
-0.072772
-0.0428393
-0.0259329
-0.0163596
-0.0101765
-0.00563597
-0.00271334
-0.000686945
-0.189234
-0.131736
-0.0822039
-0.044271
-0.0245069
-0.0141543
-0.00824229
-0.0040467
-0.00178077
-7.20423e-06
-0.24733
-0.140742
-0.0882119
-0.0428119
-0.0227732
-0.0117622
-0.00639325
-0.00256467
-0.00102016
0.00083499
-0.313862
-0.148837
-0.0918376
-0.0395545
-0.022275
-0.0104308
-0.0056757
-0.00182485
-0.000853681
0.0014888
-0.321666
-0.146461
-0.0907277
-0.0378524
-0.0217728
-0.00993881
-0.0054307
-0.00163347
-0.000793423
0.00163574
-0.316887
-0.140956
-0.088279
-0.0359538
-0.0211273
-0.00944098
-0.0051829
-0.00146767
-0.000721752
0.00174735
-0.311184
-0.13694
-0.0864547
-0.034503
-0.020636
-0.00903499
-0.00497742
-0.00132646
-0.000658517
0.00184645
-0.306291
-0.134036
-0.0850765
-0.0333345
-0.0202482
-0.00869378
-0.00480511
-0.00120454
-0.000605336
0.00193558
-0.301687
-0.13159
-0.0838817
-0.0323478
-0.0199206
-0.00840391
-0.00465993
-0.00110153
-0.000560639
0.00201197
-0.297501
-0.129534
-0.0828649
-0.0315476
-0.0196526
-0.00816814
-0.00454242
-0.00101839
-0.000524223
0.00207406
-0.29409
-0.127943
-0.0820755
-0.0309475
-0.01945
-0.00799004
-0.00445382
-0.000955662
-0.000496452
0.00212119
-0.291698
-0.126861
-0.0815397
-0.0305493
-0.0193148
-0.00787102
-0.00439464
-0.000913563
-0.000477613
0.00215292
-0.290468
-0.126313
-0.081269
-0.0303511
-0.0192474
-0.00781153
-0.00436503
-0.000892197
-0.000467868
0.0021689
)
;

boundaryField
{
    inlet
    {
        type            zeroGradient;
    }
    outlet
    {
        type            fixedValue;
        value           uniform 0;
    }
    cylinder
    {
        type            zeroGradient;
    }
    top
    {
        type            symmetryPlane;
    }
    bottom
    {
        type            symmetryPlane;
    }
    defaultFaces
    {
        type            empty;
    }
}


// ************************************************************************* //
