/*--------------------------------*- C++ -*----------------------------------*\
  =========                 |
  \\      /  F ield         | OpenFOAM: The Open Source CFD Toolbox
   \\    /   O peration     | Website:  https://openfoam.org
    \\  /    A nd           | Version:  6.0
     \\/     M anipulation  |
\*---------------------------------------------------------------------------*/
FoamFile
{
    version     2.0;
    format      ascii;
    class       surfaceScalarField;
    location    "38";
    object      phi;
}
// * * * * * * * * * * * * * * * * * * * * * * * * * * * * * * * * * * * * * //

dimensions      [0 3 -1 0 0 0 0];

internalField   nonuniform List<scalar> 
3880
(
-1.79766e-05
1.7976e-05
5.1751e-10
-5.34953e-05
3.55173e-05
1.44939e-09
-9.53887e-05
4.18912e-05
2.20664e-09
-0.000136592
4.12001e-05
2.8092e-09
-0.000172743
3.61485e-05
3.29358e-09
-0.000201433
2.86858e-05
3.70175e-09
-0.000221727
2.02903e-05
4.08022e-09
-0.000233864
1.21324e-05
4.46595e-09
-0.000239051
5.18168e-06
4.89087e-09
2.124e-07
5.34145e-09
-0.000239268
-1.72979e-05
3.5274e-05
-5.08466e-05
6.90659e-05
-8.96168e-05
8.06614e-05
-0.000126656
7.82394e-05
-0.000157645
6.71374e-05
-0.000180139
5.11796e-05
-0.000193118
3.3269e-05
-0.000196719
1.57343e-05
-0.000192096
5.58507e-07
-1.06207e-05
-0.000181263
-1.59054e-05
5.11794e-05
-4.54325e-05
9.8593e-05
-7.78695e-05
0.000113098
-0.000106533
0.000106903
-0.000127229
8.78339e-05
-0.000137483
6.14329e-05
-0.000136116
3.19021e-05
-0.00012306
2.6781e-06
-9.93289e-05
-2.31722e-05
-4.29585e-05
-6.69911e-05
-1.37117e-05
6.48911e-05
-3.69712e-05
0.000121852
-5.96381e-05
0.000135765
-7.55366e-05
0.000122801
-8.07735e-05
9.30708e-05
-7.2928e-05
5.35873e-05
-5.06491e-05
9.62318e-06
-1.35519e-05
-3.44191e-05
3.76177e-05
-7.43418e-05
-0.00010611
0.000100769
-1.05536e-05
7.54446e-05
-2.49449e-05
0.000136244
-3.39529e-05
0.000144773
-3.2249e-05
0.000121098
-1.65474e-05
7.73692e-05
1.52784e-05
2.17615e-05
6.46386e-05
-3.9737e-05
0.000132296
-0.000102076
0.00021797
-0.000160016
-0.000207807
0.000319667
-6.17966e-06
8.16243e-05
-8.5653e-06
0.000138629
7.22924e-07
0.000135485
2.57502e-05
9.60703e-05
6.87433e-05
3.43761e-05
0.000131066
-4.05612e-05
0.000213803
-0.000122474
0.000317962
-0.000206236
0.000443967
-0.000286021
-0.000353927
0.000590087
-2.78277e-07
8.19025e-05
1.31431e-05
0.000125208
4.63815e-05
0.000102246
0.000101851
4.06006e-05
0.0001802
-4.39723e-05
0.000281313
-0.000141675
0.000405107
-0.000246267
0.000552137
-0.000353266
0.000723487
-0.00045737
-0.000548697
0.000918257
7.43423e-06
7.44683e-05
4.10628e-05
9.15795e-05
0.000104948
3.83613e-05
0.000199684
-5.41351e-05
0.000323977
-0.000168266
0.000475455
-0.000293152
0.000651501
-0.000422314
0.000850411
-0.000552176
0.00107265
-0.000679612
-0.000797638
0.00132159
1.70658e-05
5.74024e-05
7.55074e-05
3.31379e-05
0.000177313
-6.34447e-05
0.00032157
-0.000198392
0.000505328
-0.000352024
0.000723823
-0.000511647
0.000970779
-0.00066927
0.00123938
-0.000820781
0.00152588
-0.000966105
-0.00111594
0.00184418
2.83508e-05
2.90516e-05
0.000115562
-5.40734e-05
0.000261838
-0.000209721
0.000465777
-0.000402331
0.000724589
-0.000610835
0.00103381
-0.000820865
0.00138664
-0.0010221
0.00177228
-0.00120643
0.00217504
-0.00136886
-0.0015134
0.0025725
4.04752e-05
-1.14236e-05
0.000158376
-0.000171974
0.00035209
-0.000403435
0.000620355
-0.000670595
0.000962552
-0.000953033
0.00137938
-0.00123769
0.00187408
-0.00151681
0.00245577
-0.00178811
0.00314736
-0.00206046
-0.00237222
0.00400619
5.23596e-05
-6.37832e-05
0.000199955
-0.00031957
0.000438007
-0.000641487
0.000763004
-0.000995592
0.00117227
-0.00136229
0.00166393
-0.00172935
0.00223692
-0.0020898
0.00289039
-0.00244158
0.00361883
-0.0027889
-0.00314082
0.00438743
6.34851e-05
-0.000127268
0.000238252
-0.000494336
0.000514865
-0.000918101
0.000885316
-0.00136604
0.00134184
-0.00181882
0.00187631
-0.00226382
0.00247952
-0.00269301
0.00313969
-0.00310175
0.00383825
-0.00348746
-0.00384402
0.00454145
7.38718e-05
-0.00020114
0.000272989
-0.000693454
0.000582123
-0.00122723
0.00098749
-0.00177141
0.00147522
-0.00230655
0.0020307
-0.0028193
0.00263816
-0.00330047
0.00327987
-0.00374346
0.00393458
-0.00414217
-0.0044854
0.00457596
8.3663e-05
-0.000284803
0.000304314
-0.000914105
0.000640049
-0.00156297
0.00107069
-0.00220205
0.00157622
-0.00281208
0.00213646
-0.00337954
0.00273121
-0.00389521
0.00334036
-0.00435261
0.00394379
-0.00474561
-0.00506329
0.00452169
9.28485e-05
-0.000377652
0.000331967
-0.00115322
0.000688073
-0.00191908
0.00113437
-0.00264835
0.00164514
-0.00332284
0.00219582
-0.00393023
0.00276372
-0.00446311
0.00332854
-0.00491743
0.00387285
-0.00528991
-0.00557325
0.00438281
0.000101185
-0.000478836
0.000355067
-0.00140711
0.000724485
-0.00228849
0.00117614
-0.00310001
0.00167935
-0.00382606
0.00220662
-0.0044575
0.00273444
-0.00499093
0.00324397
-0.00542697
0.0037214
-0.00576735
-0.00601044
0.00415859
0.000108242
-0.000587078
0.000372269
-0.00167113
0.000746863
-0.00266309
0.0011927
-0.00354584
0.00167529
-0.00430865
0.00216569
-0.00494789
0.00264124
-0.00546648
0.00308589
-0.00587162
0.00349005
-0.00617151
-0.00637125
0.00385086
0.000113496
-0.000700574
0.00038206
-0.0019397
0.000752695
-0.00303372
0.00118098
-0.00397413
0.00163007
-0.00475773
0.00207123
-0.00538905
0.00248413
-0.00587939
0.00285647
-0.00624395
0.00318315
-0.00649819
-0.00665406
0.00346595
0.000116416
-0.00081699
0.000383026
-0.00220631
0.000739893
-0.00339059
0.0011389
-0.00437314
0.00154253
-0.00516136
0.00192389
-0.00577041
0.00226618
-0.00622168
0.00256141
-0.00653918
0.00280886
-0.00674564
-0.00685929
0.0030141
0.000116537
-0.000933526
0.00037406
-0.00246383
0.000707143
-0.00372367
0.00106576
-0.00473176
0.00141354
-0.00550913
0.00172688
-0.00608376
0.00199334
-0.00648814
0.00220936
-0.0067552
0.00237811
-0.00691439
-0.00698916
0.00250798
0.000113457
-0.00104698
0.000354397
-0.00270477
0.000653934
-0.00402321
0.000962213
-0.00504004
0.00124577
-0.0057927
0.00148545
-0.00632343
0.0016735
-0.0066762
0.00181059
-0.00689228
0.00190302
-0.00700682
-0.00704717
0.00196102
0.000106917
-0.0011539
0.000323754
-0.00292161
0.000580682
-0.00428014
0.000830228
-0.00528959
0.00104342
-0.00600589
0.00120625
-0.00648626
0.00131569
-0.00678564
0.00137599
-0.00695258
0.00139577
-0.00702661
-0.00703761
0.00138622
9.677e-05
-0.00125067
0.000282253
-0.00310709
0.000488539
-0.00448642
0.000672706
-0.00547375
0.000811529
-0.00614471
0.000896514
-0.00657124
0.000928972
-0.0068181
0.000915964
-0.00693957
0.000867547
-0.00697819
-0.00696517
0.00079511
8.2998e-05
-0.00133367
0.000230409
-0.0032545
0.00037927
-0.00463528
0.000493173
-0.00558766
0.000555537
-0.00620707
0.000563384
-0.00657909
0.000521764
-0.00677648
0.000439688
-0.00685749
0.000327805
-0.00686631
-0.0068346
0.00019723
6.57183e-05
-0.00139939
0.000169109
-0.00335789
0.00025513
-0.00472131
0.000295515
-0.00562804
0.000280833
-0.00619239
0.000213364
-0.00651162
0.000101228
-0.00666434
-4.54492e-05
-0.00671081
-0.000216177
-0.00669558
-0.00665045
-0.000400321
4.52014e-05
-0.00144459
9.96123e-05
-0.0034123
0.000118826
-0.00474052
8.38858e-05
-0.0055931
-7.37451e-06
-0.00610113
-0.000147844
-0.00637115
-0.000326944
-0.00648524
-0.000534104
-0.00650365
-0.000759601
-0.00647008
-0.00641654
-0.000993517
2.18971e-05
-0.00146648
2.35899e-05
-0.003414
-2.64537e-05
-0.00469048
-0.000137251
-0.0054823
-0.000303972
-0.00593441
-0.000515221
-0.0061599
-0.000758427
-0.00624204
-0.00102296
-0.00623912
-0.00130037
-0.00619267
-0.00613332
-0.00158359
-3.52427e-06
-0.00146296
-5.6801e-05
-0.00336072
-0.000176921
-0.00457036
-0.000362965
-0.00529626
-0.000603855
-0.00569352
-0.0008847
-0.00587906
-0.00119127
-0.00593546
-0.00151273
-0.00591766
-0.00184205
-0.00586335
-0.00579383
-0.00218154
-3.0108e-05
-0.00143285
-0.000138739
-0.00325209
-0.000327729
-0.00438137
-0.000586881
-0.00503711
-0.000900375
-0.00538003
-0.00125161
-0.00552783
-0.00162604
-0.00556103
-0.00201327
-0.00553043
-0.00240934
-0.00546729
-0.00540647
-0.0027967
-5.66207e-05
-0.00137623
-0.000218706
-0.00309
-0.000472468
-0.0041276
-0.000799083
-0.00471049
-0.00117943
-0.00499968
-0.00159758
-0.00510967
-0.00204225
-0.00511636
-0.00250617
-0.00506651
-0.00298844
-0.00498502
-0.00486994
-0.00352497
-8.19864e-05
-0.00129425
-0.000293657
-0.00287833
-0.000605386
-0.00381588
-0.000989452
-0.00432643
-0.00142231
-0.00456682
-0.00188592
-0.00464606
-0.00236728
-0.004635
-0.0028574
-0.00457639
-0.00335011
-0.00449231
-0.00439084
-0.00382921
-0.000105568
-0.00118868
-0.000362211
-0.00262169
-0.000725124
-0.00345296
-0.0011583
-0.00389325
-0.00163423
-0.00409089
-0.00213319
-0.0041471
-0.00264175
-0.00412645
-0.0031509
-0.00406724
-0.00365346
-0.00398974
-0.00390445
-0.00413985
-0.00012702
-0.00106166
-0.00042378
-0.00232493
-0.000831572
-0.00304517
-0.00130721
-0.00341761
-0.00182016
-0.00357795
-0.00234995
-0.00361731
-0.00288351
-0.00359288
-0.00341269
-0.00353806
-0.00393191
-0.00347052
-0.00339976
-0.0044366
-0.000146081
-0.000915577
-0.000477931
-0.00199308
-0.000924552
-0.00259855
-0.00143676
-0.0029054
-0.0019818
-0.0030329
-0.00253907
-0.00306004
-0.00309627
-0.00303569
-0.00364639
-0.00298793
-0.00418547
-0.00293144
-0.00287403
-0.00471121
-0.000162504
-0.000753072
-0.000524206
-0.00163138
-0.00100363
-0.00211913
-0.00154671
-0.00236232
-0.00211914
-0.00246047
-0.00270043
-0.00247875
-0.00327912
-0.00245699
-0.00384931
-0.00241775
-0.00440816
-0.00237259
-0.00232762
-0.00495457
-0.000176039
-0.000577033
-0.000562095
-0.00124532
-0.00106815
-0.00161307
-0.00163633
-0.00179414
-0.00223123
-0.00186558
-0.00283258
-0.0018774
-0.00342968
-0.00185988
-0.00401747
-0.00182995
-0.00459391
-0.00179615
-0.00176296
-0.00515857
-0.000186443
-0.00039059
-0.000591078
-0.000840688
-0.00111738
-0.00108677
-0.00170467
-0.00120685
-0.00231679
-0.00125346
-0.0029337
-0.00126049
-0.00354531
-0.00124828
-0.00414715
-0.00122812
-0.00473768
-0.00120563
-0.00118374
-0.00531689
-0.000193509
-0.000197081
-0.000610691
-0.000423506
-0.00115064
-0.000546819
-0.00175082
-0.000606669
-0.0023746
-0.000629676
-0.00300215
-0.000632939
-0.00362375
-0.000626681
-0.00423532
-0.000616545
-0.00483563
-0.000605314
-0.000594446
-0.00542493
-0.000197082
6.06967e-10
-0.000620589
1.38208e-09
-0.00116741
1.79105e-09
-0.00177408
1.96738e-09
-0.00240376
2.00554e-09
-0.0030367
1.96409e-09
-0.00366338
1.87668e-09
-0.00427993
1.76142e-09
-0.00488525
1.63033e-09
1.48704e-09
-0.00547969
-0.000197082
0.000197083
-0.000620589
0.000423509
-0.00116741
0.000546823
-0.00177408
0.000606673
-0.00240376
0.00062968
-0.0030367
0.000632943
-0.00366338
0.000626685
-0.00427993
0.000616549
-0.00488525
0.000605317
0.000594449
-0.00547969
-0.000193509
0.000390591
-0.000610691
0.000840691
-0.00115064
0.00108677
-0.00175082
0.00120685
-0.0023746
0.00125346
-0.00300215
0.00126049
-0.00362375
0.00124828
-0.00423532
0.00122812
-0.00483563
0.00120563
0.00118375
-0.00542493
-0.000186443
0.000577035
-0.000591077
0.00124533
-0.00111738
0.00161308
-0.00170467
0.00179414
-0.00231679
0.00186558
-0.0029337
0.00187741
-0.00354531
0.00185989
-0.00414715
0.00182996
-0.00473767
0.00179616
0.00176296
-0.00531689
-0.000176039
0.000753073
-0.000562095
0.00163138
-0.00106815
0.00211913
-0.00163633
0.00236232
-0.00223123
0.00246047
-0.00283257
0.00247876
-0.00342968
0.00245699
-0.00401747
0.00241775
-0.00459391
0.00237259
0.00232762
-0.00515857
-0.000162504
0.000915578
-0.000524206
0.00199308
-0.00100363
0.00259855
-0.00154671
0.0029054
-0.00211914
0.00303291
-0.00270043
0.00306005
-0.00327912
0.00303569
-0.00384931
0.00298794
-0.00440816
0.00293145
0.00287403
-0.00495457
-0.000146081
0.00106166
-0.000477931
0.00232493
-0.000924551
0.00304517
-0.00143676
0.00341761
-0.0019818
0.00357795
-0.00253907
0.00361731
-0.00309627
0.00359288
-0.00364639
0.00353806
-0.00418547
0.00347053
0.00339977
-0.00471121
-0.00012702
0.00118868
-0.00042378
0.00262169
-0.000831572
0.00345297
-0.00130721
0.00389325
-0.00182016
0.0040909
-0.00234994
0.0041471
-0.00288351
0.00412645
-0.00341269
0.00406724
-0.00393191
0.00398975
0.00390446
-0.0044366
-0.000105567
0.00129425
-0.000362211
0.00287834
-0.000725123
0.00381588
-0.0011583
0.00432643
-0.00163423
0.00456682
-0.00213319
0.00464607
-0.00264175
0.00463501
-0.0031509
0.00457639
-0.00365346
0.00449231
0.00439084
-0.00413985
-8.19864e-05
0.00137623
-0.000293656
0.00309001
-0.000605385
0.00412761
-0.000989451
0.00471049
-0.00142231
0.00499969
-0.00188592
0.00510967
-0.00236728
0.00511636
-0.0028574
0.00506652
-0.00335011
0.00498502
0.00486994
-0.00382921
-5.66206e-05
0.00143285
-0.000218706
0.00325209
-0.000472467
0.00438137
-0.000799082
0.00503711
-0.00117942
0.00538003
-0.00159758
0.00552783
-0.00204225
0.00556103
-0.00250617
0.00553043
-0.00298843
0.00546729
0.00540648
-0.00352497
-3.01079e-05
0.00146296
-0.000138739
0.00336072
-0.000327729
0.00457036
-0.00058688
0.00529626
-0.000900374
0.00569352
-0.0012516
0.00587906
-0.00162604
0.00593547
-0.00201327
0.00591767
-0.00240934
0.00586336
0.00579383
-0.00279669
-3.52416e-06
0.00146649
-5.68007e-05
0.003414
-0.000176921
0.00469048
-0.000362964
0.00548231
-0.000603854
0.00593441
-0.000884699
0.0061599
-0.00119127
0.00624204
-0.00151273
0.00623913
-0.00184205
0.00619267
0.00613332
-0.00218154
2.18972e-05
0.00144459
2.35902e-05
0.00341231
-2.64531e-05
0.00474052
-0.000137251
0.0055931
-0.000303971
0.00610113
-0.00051522
0.00637115
-0.000758426
0.00648525
-0.00102296
0.00650366
-0.00130037
0.00647008
0.00641654
-0.00158359
4.52015e-05
0.00139939
9.96126e-05
0.0033579
0.000118827
0.00472131
8.38867e-05
0.00562804
-7.37335e-06
0.00619239
-0.000147842
0.00651162
-0.000326942
0.00666435
-0.000534102
0.00671082
-0.000759599
0.00669558
0.00665046
-0.000993515
6.57184e-05
0.00133367
0.000169109
0.0032545
0.000255131
0.00463529
0.000295516
0.00558766
0.000280834
0.00620707
0.000213365
0.00657909
0.00010123
0.00677648
-4.54472e-05
0.00685749
-0.000216175
0.00686631
0.0068346
-0.000400318
8.29981e-05
0.00125067
0.00023041
0.00310709
0.000379271
0.00448642
0.000493174
0.00547375
0.000555538
0.00614471
0.000563385
0.00657124
0.000521766
0.0068181
0.00043969
0.00693957
0.000327807
0.00697819
0.00696517
0.000197233
9.67701e-05
0.0011539
0.000282253
0.00292161
0.00048854
0.00428014
0.000672707
0.00528959
0.00081153
0.00600589
0.000896516
0.00648626
0.000928974
0.00678564
0.000915966
0.00695258
0.000867549
0.00702661
0.00703761
0.000795113
0.000106917
0.00104698
0.000323755
0.00270477
0.000580683
0.00402321
0.000830229
0.00504004
0.00104342
0.0057927
0.00120625
0.00632343
0.00131569
0.0066762
0.00137599
0.00689228
0.00139578
0.00700682
0.00704717
0.00138622
0.000113457
0.000933526
0.000354397
0.00246383
0.000653934
0.00372367
0.000962214
0.00473176
0.00124578
0.00550914
0.00148545
0.00608376
0.00167351
0.00648814
0.00181059
0.0067552
0.00190302
0.00691439
0.00698917
0.00196102
0.000116537
0.000816989
0.00037406
0.00220631
0.000707144
0.00339059
0.00106576
0.00437314
0.00141354
0.00516136
0.00172689
0.00577041
0.00199334
0.00622168
0.00220936
0.00653918
0.00237811
0.00674564
0.0068593
0.00250798
0.000116416
0.000700573
0.000383026
0.0019397
0.000739894
0.00303372
0.0011389
0.00397413
0.00154253
0.00475773
0.00192389
0.00538905
0.00226618
0.00587939
0.00256141
0.00624395
0.00280886
0.00649819
0.00665406
0.0030141
0.000113496
0.000587078
0.00038206
0.00167113
0.000752695
0.00266309
0.00118098
0.00354584
0.00163007
0.00430865
0.00207123
0.00494789
0.00248414
0.00546648
0.00285647
0.00587162
0.00318315
0.00617151
0.00637125
0.00346595
0.000108242
0.000478836
0.00037227
0.00140711
0.000746863
0.00228849
0.0011927
0.00310001
0.00167529
0.00382606
0.00216569
0.00445749
0.00264125
0.00499093
0.00308589
0.00542697
0.00349006
0.00576735
0.00601044
0.00385087
0.000101185
0.000377651
0.000355067
0.00115322
0.000724485
0.00191907
0.00117614
0.00264835
0.00167936
0.00332284
0.00220662
0.00393023
0.00273444
0.00446311
0.00324397
0.00491743
0.00372141
0.00528991
0.00557325
0.0041586
9.28485e-05
0.000284803
0.000331967
0.000914104
0.000688073
0.00156297
0.00113437
0.00220205
0.00164514
0.00281208
0.00219582
0.00337954
0.00276372
0.00389521
0.00332854
0.00435261
0.00387285
0.00474561
0.00506329
0.00438282
8.3663e-05
0.00020114
0.000304314
0.000693452
0.00064005
0.00122723
0.00107069
0.00177141
0.00157622
0.00230655
0.00213646
0.0028193
0.00273121
0.00330047
0.00334036
0.00374346
0.0039438
0.00414217
0.00448539
0.00452169
7.38718e-05
0.000127268
0.000272989
0.000494335
0.000582123
0.000918099
0.00098749
0.00136604
0.00147522
0.00181882
0.0020307
0.00226382
0.00263816
0.00269301
0.00327987
0.00310175
0.00393459
0.00348746
0.00384402
0.00457596
6.34852e-05
6.37827e-05
0.000238252
0.000319568
0.000514865
0.000641486
0.000885316
0.00099559
0.00134184
0.00136229
0.00187631
0.00172935
0.00247953
0.00208979
0.0031397
0.00244158
0.00383825
0.0027889
0.00314082
0.00454145
5.23596e-05
1.14231e-05
0.000199955
0.000171973
0.000438008
0.000403433
0.000763005
0.000670593
0.00117227
0.00095303
0.00166393
0.00123769
0.00223692
0.0015168
0.00289039
0.00178811
0.00361883
0.00206046
0.00237222
0.00438743
4.04752e-05
-2.90521e-05
0.000158376
5.40721e-05
0.00035209
0.000209719
0.000620355
0.000402328
0.000962553
0.000610833
0.00137938
0.000820862
0.00187408
0.0010221
0.00245577
0.00120642
0.00314737
0.00136886
0.0015134
0.00400619
2.83508e-05
-5.74029e-05
0.000115562
-3.31394e-05
0.000261838
6.34426e-05
0.000465778
0.000198389
0.00072459
0.000352021
0.00103381
0.000511644
0.00138664
0.000669267
0.00177228
0.000820778
0.00217504
0.000966101
0.00111594
0.00257251
1.70659e-05
-7.44688e-05
7.55076e-05
-9.15811e-05
0.000177314
-3.83637e-05
0.000321571
5.41321e-05
0.000505329
0.000168262
0.000723824
0.000293149
0.000970781
0.00042231
0.00123939
0.000552172
0.00152588
0.000679607
0.000797633
0.00184419
7.4343e-06
-8.19031e-05
4.1063e-05
-0.00012521
0.000104948
-0.000102249
0.000199684
-4.06039e-05
0.000323978
4.39685e-05
0.000475456
0.00014167
0.000651504
0.000246263
0.000850414
0.000353261
0.00107266
0.000457365
0.000548691
0.0013216
-2.78195e-07
-8.16249e-05
1.31434e-05
-0.000138631
4.63821e-05
-0.000135488
0.000101852
-9.6074e-05
0.000180201
-3.43804e-05
0.000281315
4.05563e-05
0.00040511
0.000122468
0.000552141
0.00020623
0.000723491
0.000286014
0.000353919
0.000918262
-6.17956e-06
-7.54454e-05
-8.56495e-06
-0.000136246
7.23621e-07
-0.000144776
2.57513e-05
-0.000121102
6.87449e-05
-7.73741e-05
0.000131068
-2.1767e-05
0.000213806
3.9731e-05
0.000317966
0.00010207
0.000443971
0.000160009
0.000207799
0.000590092
-1.05535e-05
-6.48919e-05
-2.49446e-05
-0.000121855
-3.39522e-05
-0.000135769
-3.22479e-05
-0.000122806
-1.65458e-05
-9.30762e-05
1.52807e-05
-5.35934e-05
6.46415e-05
-9.62988e-06
0.000132299
3.44118e-05
0.000217975
7.43337e-05
0.000106101
0.000319672
-1.37116e-05
-5.11803e-05
-3.69709e-05
-9.85956e-05
-5.96374e-05
-0.000113102
-7.55356e-05
-0.000106908
-8.0772e-05
-8.78398e-05
-7.29259e-05
-6.14395e-05
-5.06465e-05
-3.19094e-05
-1.35486e-05
-2.68608e-06
3.76217e-05
2.31634e-05
4.29489e-05
0.000100774
-1.59053e-05
-3.52749e-05
-4.54323e-05
-6.90687e-05
-7.7869e-05
-8.06656e-05
-0.000106532
-7.82447e-05
-0.000127228
-6.71437e-05
-0.000137481
-5.11867e-05
-0.000136114
-3.32767e-05
-0.000123057
-1.57428e-05
-9.93257e-05
-5.6781e-07
1.06105e-05
-6.69874e-05
-1.72979e-05
-1.7977e-05
-5.08464e-05
-3.55201e-05
-8.96165e-05
-4.18955e-05
-0.000126656
-4.12056e-05
-0.000157644
-3.6155e-05
-0.000180138
-2.86931e-05
-0.000193116
-2.02983e-05
-0.000196718
-1.21413e-05
-0.000192094
-5.19134e-06
-2.22955e-07
-0.000181261
-1.79765e-05
-5.34952e-05
-9.53886e-05
-0.000136591
-0.000172743
-0.000201433
-0.000221727
-0.000233864
-0.00023905
-0.000239268
0.000183913
-0.000423374
1.92697e-07
0.00132177
-0.0011379
4.22111e-08
0.00248564
-0.00116312
-7.46099e-07
0.00323279
-0.000746477
-6.7469e-07
0.00385258
-0.000620205
4.11326e-07
0.00428109
-0.000429371
8.6462e-07
0.00462521
-0.00034565
1.53255e-06
0.00485733
-0.000233086
9.66662e-07
0.00506689
-0.000208291
-1.27168e-06
-0.000123446
-1.16263e-06
0.000295585
-0.000900222
0.00140417
-0.00224649
0.00254175
-0.0023007
0.00327235
-0.00147707
0.00388059
-0.00122845
0.00430245
-0.000851229
0.0046424
-0.000685606
0.00487275
-0.00046343
0.00508155
-0.000417088
-0.000249105
0.000511772
-0.00147899
0.0015633
-0.00329802
0.00264978
-0.00338718
0.00334849
-0.00217578
0.00393454
-0.0018145
0.00434373
-0.00126042
0.00467583
-0.0010177
0.00490294
-0.000690535
0.00511043
-0.000624582
-0.000376994
0.000818619
-0.00219684
0.00178827
-0.00426767
0.00280165
-0.00440056
0.00345554
-0.00282967
0.00401048
-0.00236944
0.00440219
-0.00165213
0.00472359
-0.0013391
0.0049466
-0.000913543
0.00515271
-0.000830693
-0.000508559
0.00119655
-0.00307372
0.0020638
-0.00513492
0.00298609
-0.00532284
0.0035855
-0.00342908
0.00410282
-0.00288675
0.0044739
-0.00202321
0.00478298
-0.00164819
0.00500187
-0.00113243
0.00520716
-0.00103598
-0.000645612
0.00162152
-0.00410515
0.00237131
-0.00588471
0.00318944
-0.00614098
0.0037287
-0.00396834
0.00420477
-0.00336282
0.00455407
-0.00237251
0.00485067
-0.00194479
0.00506645
-0.00134821
0.00527227
-0.0012418
-0.000790413
0.00206545
-0.00525235
0.00268961
-0.00650887
0.0033965
-0.00684786
0.00387439
-0.00444624
0.00430878
-0.0037972
0.00463732
-0.00270106
0.00492288
-0.00223034
0.00513766
-0.001563
0.00534622
-0.00145036
-0.000945728
0.00249804
-0.00642879
0.00299566
-0.00700649
0.00359128
-0.00744348
0.00401138
-0.00486635
0.00440698
-0.0041928
0.00471802
-0.0030121
0.00499557
-0.00250789
0.00521263
-0.00178006
0.00542704
-0.00166476
-0.00111484
0.00290168
-0.00748629
0.0032705
-0.00737531
0.00375974
-0.00793271
0.00412921
-0.00523582
0.00449188
-0.00455547
0.00479062
-0.00331084
0.00506473
-0.002782
0.0052884
-0.00200373
0.00551262
-0.00188898
-0.00130151
0.00328116
-0.00819495
0.00351249
-0.00760665
0.00389102
-0.00831124
0.00422059
-0.00556538
0.00455675
-0.00489163
0.0048502
-0.00360428
0.00512634
-0.00305815
0.00536223
-0.00223962
0.00560049
-0.00212723
-0.00151051
0.0432805
-0.000916561
-0.0505589
0.0390649
-0.00339108
0.0369865
-0.00623284
0.0368013
-0.00538015
0.0366546
-0.00474498
0.0368204
-0.00377009
0.0370107
-0.00324845
0.0372646
-0.00249349
0.0374757
-0.00233835
-0.00180012
0.0523389
0.00331215
-0.0565676
0.0501435
-0.00119569
0.0475498
-0.00363916
0.0460093
-0.00383957
0.0448022
-0.00353791
0.0439762
-0.00294407
0.0433289
-0.00260116
0.0429109
-0.00207558
0.0425097
-0.0019371
-0.00160788
0.0539036
0.00452357
-0.0551151
0.0526219
8.60252e-05
0.0510056
-0.00202282
0.0496961
-0.00253007
0.0485976
-0.00243945
0.0477377
-0.00208416
0.0469851
-0.0018486
0.0464225
-0.00151291
0.0458661
-0.00138067
-0.00122603
0.0520603
0.00437415
-0.0519109
0.0516515
0.000494884
0.0508181
-0.00118945
0.0499784
-0.00169039
0.0492351
-0.00169614
0.0486337
-0.00148276
0.0480822
-0.00129713
0.0476457
-0.00107632
0.0472071
-0.000942065
-0.000875963
0.0500072
0.00369101
-0.0493241
0.0498796
0.000622435
0.0494566
-0.000766407
0.0489535
-0.00118725
0.0484817
-0.00122439
0.0480968
-0.00109782
0.0477464
-0.000946776
0.0474611
-0.000791003
0.0471832
-0.000664132
-0.000626472
0.0483081
0.00289047
-0.0475076
0.0483331
0.000597415
0.0480816
-0.000514908
0.04775
-0.000855634
0.0474249
-0.00089934
0.0471549
-0.000827812
0.0469206
-0.000712407
0.0467278
-0.000598279
0.0465549
-0.00049122
-0.000458615
0.0470995
0.00210086
-0.0463099
0.0471931
0.000503765
0.0470184
-0.000340186
0.0467665
-0.000603735
0.0465103
-0.000643166
0.0462882
-0.000605633
0.0461015
-0.000525715
0.0459472
-0.000443999
0.0458195
-0.000363488
-0.000333405
0.046285
0.00136196
-0.0455461
0.0464291
0.000359727
0.0462955
-0.000206622
0.0460793
-0.000387516
0.0458529
-0.000416726
0.0456469
-0.00039967
0.0454725
-0.000351298
0.045327
-0.000298504
0.0452092
-0.000245695
-0.000222394
0.0457884
0.000668601
-0.0450951
0.0459645
0.000183674
0.0458568
-9.89038e-05
0.0456571
-0.000187857
0.0454432
-0.000202795
0.045242
-0.000198515
0.0450672
-0.000176522
0.0449199
-0.000151173
0.0447987
-0.000124507
-0.000112429
0.0455539
-0.0448853
0.0457375
0.0456386
0.0454508
0.045248
0.0450495
0.0448729
0.0447218
0.0445973
0.0567753
0.00230156
-0.0560628
0.0573298
0.00291152
0.0576776
0.00350306
0.057769
0.00406715
0.0575573
0.00459454
0.0570025
0.00507644
0.0560734
0.00550513
0.0547403
0.00587449
0.0529481
0.00617963
0.00639544
0.0513979
0.00169287
-0.0507892
0.0520516
0.00225782
0.0527363
0.0028184
0.0534339
0.00336952
0.054123
0.00390547
0.0547794
0.00442003
0.0553778
0.00490676
0.055893
0.00535928
0.0563007
0.00577186
0.00612858
0.0480918
0.00121797
-0.0476169
0.0486476
0.00170194
0.0492813
0.00218475
0.0499873
0.0026635
0.0507577
0.00313505
0.0515818
0.00359593
0.0524463
0.00404231
0.0533355
0.00447001
0.0542329
0.00487452
0.0052464
0.0454945
0.000891371
-0.0451679
0.0459012
0.00129519
0.0463887
0.00169727
0.0469569
0.00209536
0.0476047
0.0024872
0.0483302
0.00287046
0.0491297
0.00324274
0.0499982
0.00360152
0.0509287
0.00394402
0.00426423
0.0439058
0.000651541
-0.043666
0.0442197
0.00098126
0.0446079
0.0013091
0.04507
0.0016332
0.0456056
0.00195168
0.0462134
0.00226268
0.0468917
0.00256435
0.0476385
0.00285478
0.0484506
0.00313189
0.00339079
0.04281
0.000469369
-0.0426279
0.0430622
0.000729107
0.0433842
0.000987076
0.0437757
0.00124176
0.0442357
0.00149165
0.0447631
0.00173525
0.0453564
0.0019711
0.0460134
0.00219772
0.0467318
0.0024135
0.00261505
0.0421162
0.0003246
-0.0419714
0.0423278
0.000517438
0.0426061
0.000708862
0.0429501
0.000897721
0.0433589
0.00108287
0.043831
0.00126317
0.0443645
0.00143752
0.0449574
0.0016048
0.0456071
0.00176383
0.0019123
0.0416642
0.000203991
-0.0415436
0.04185
0.0003317
0.0421004
0.000458451
0.0424146
0.000583474
0.0427915
0.000705998
0.0432294
0.000825265
0.0437264
0.000940526
0.0442802
0.00105104
0.044888
0.00115603
0.00125413
0.0413996
9.81562e-05
-0.0412938
0.0415695
0.000161804
0.041803
0.000224991
0.0420991
0.000287329
0.0424567
0.000348432
0.042874
0.000407917
0.0433491
0.000465405
0.0438796
0.000520526
0.0444628
0.000572888
0.000621849
0.0412741
-0.041176
0.0414359
0.0416609
0.0419482
0.0422967
0.0427046
0.04317
0.0436905
0.0442634
0.0481094
-0.00335375
-0.0475524
0.0488228
-0.00289491
0.0496455
-0.00240624
0.0505376
-0.00188567
0.0514714
-0.00133416
0.0524283
-0.000759617
0.0533899
-0.000166549
0.0543348
0.000441354
0.0552365
0.00105935
0.00168165
0.0479852
-0.00340685
-0.0479321
0.0480815
-0.00299121
0.0482205
-0.00254527
0.0484082
-0.00207331
0.0486505
-0.00157647
0.0489517
-0.00106082
0.0493152
-0.00053011
0.0497433
1.33355e-05
0.0502356
0.000567029
0.001128
0.046897
-0.00314751
-0.0471564
0.0466931
-0.00278731
0.0465499
-0.00240199
0.0464725
-0.00199593
0.0464672
-0.0015712
0.0465376
-0.00113122
0.046686
-0.000678499
0.0469144
-0.000215053
0.0472244
0.000257037
0.000735512
0.0455818
-0.00277138
-0.0459579
0.0452636
-0.00246907
0.0450067
-0.00214511
0.0448147
-0.00180393
0.0446909
-0.00144743
0.0446377
-0.00107802
0.044657
-0.000697786
0.0447506
-0.000308682
0.0449204
8.72824e-05
0.000488017
0.0446599
-0.00234961
-0.0450817
0.0442919
-0.00210112
0.0439823
-0.00183549
0.0437342
-0.0015558
0.0435504
-0.00126363
0.0434332
-0.000960861
0.0433847
-0.000649211
0.0434064
-0.00033038
0.0434997
-6.10944e-06
0.000321808
0.0439896
-0.00190032
-0.0444389
0.0435923
-0.0017038
0.0432508
-0.00149398
0.0429681
-0.0012731
0.0427469
-0.0010424
0.0425893
-0.00080328
0.0424972
-0.000557133
0.0424722
-0.000305348
0.0425154
-4.93541e-05
0.000209384
0.043559
-0.00143594
-0.0440234
0.043145
-0.00128981
0.042785
-0.00113398
0.0424818
-0.000969935
0.042238
-0.000798579
0.0420557
-0.000620934
0.0419366
-0.000438036
0.0418822
-0.000250938
0.0418935
-6.07224e-05
0.000131502
0.0432802
-0.000961463
-0.0437546
0.0428551
-0.000864769
0.0424828
-0.000761687
0.042166
-0.000653148
0.0419072
-0.000539756
0.0417085
-0.000422172
0.0415715
-0.000301082
0.0414977
-0.000177187
0.0414882
-5.12127e-05
7.60999e-05
0.0431192
-0.000481538
-0.0435992
0.042688
-0.000433516
0.0423086
-0.000382324
0.0419839
-0.000328401
0.0417162
-0.000272046
0.0415076
-0.000213582
0.0413598
-0.000153346
0.0412743
-9.16893e-05
0.0412521
-2.89709e-05
3.44375e-05
0.0430454
-0.0435269
0.0426119
0.0422296
0.0419012
0.0416291
0.0414155
0.0412622
0.0411705
0.0411415
0.0429475
0.00017463
-0.000193168
0.0429914
0.000521275
-0.000565198
0.0430658
0.000872668
-0.000947116
0.0431884
0.00123699
-0.00135952
0.043389
0.0016196
-0.00182026
0.0437114
0.00202474
-0.0023471
0.0442143
0.00245452
-0.00295739
0.0449695
0.00291136
-0.00366663
0.0460712
0.0033713
-0.00447302
0.00392365
-0.00540479
0.0429657
0.000137881
0.0430729
0.000414034
0.043254
0.000691546
0.0435194
0.000971599
0.043884
0.00125501
0.0443668
0.00154201
0.0449896
0.00183166
0.0457769
0.00212405
0.0467446
0.00240363
0.00273616
0.0429665
0.000100273
0.0430779
0.000302715
0.0432627
0.000506703
0.0435251
0.000709223
0.0438707
0.000909379
0.0443068
0.00110588
0.0448419
0.00129663
0.045486
0.00147992
0.0462438
0.0016458
0.00182362
0.0429586
7.05591e-05
0.0430476
0.00021375
0.043196
0.000358305
0.0434046
0.000500633
0.0436744
0.00063953
0.0440066
0.000773701
0.0444017
0.000901575
0.0448596
0.00102195
0.0453756
0.00112981
0.00124132
0.0429506
4.88958e-05
0.0430161
0.000148278
0.0431258
0.000248591
0.0432795
0.000346942
0.0434767
0.00044227
0.0437169
0.000533527
0.0439989
0.00061957
0.0443214
0.00069947
0.0446808
0.000770436
0.000840416
0.0429445
3.33078e-05
0.0429918
0.000101019
0.043071
0.000169333
0.0431818
0.000236199
0.0433232
0.000300839
0.0434942
0.000362517
0.0436933
0.000420489
0.0439186
0.000474162
0.044167
0.000522063
0.000568458
0.0429403
2.19173e-05
0.0429749
6.64632e-05
0.0430328
0.000111387
0.0431137
0.000155329
0.0432168
0.000197769
0.0433411
0.000238215
0.0434854
0.000276191
0.0436482
0.000311307
0.0438275
0.000342735
0.000372641
0.0429376
1.32768e-05
0.0429638
4.0249e-05
0.0430077
6.74369e-05
0.043069
9.40315e-05
0.0431471
0.000119719
0.0432411
0.000144207
0.0433501
0.000167221
0.0434728
0.000188534
0.0436079
0.000207712
0.000225859
0.0429359
6.26128e-06
0.0429572
1.89819e-05
0.0429929
3.17937e-05
0.0430426
4.43266e-05
0.0431058