/*--------------------------------*- C++ -*----------------------------------*\
  =========                 |
  \\      /  F ield         | OpenFOAM: The Open Source CFD Toolbox
   \\    /   O peration     | Website:  https://openfoam.org
    \\  /    A nd           | Version:  6.0
     \\/     M anipulation  |
\*---------------------------------------------------------------------------*/
FoamFile
{
    version     2.0;
    format      ascii;
    class       volVectorField;
    location    "38";
    object      U;
}
// * * * * * * * * * * * * * * * * * * * * * * * * * * * * * * * * * * * * * //

dimensions      [0 1 -1 0 0 0 0];

internalField   nonuniform List<vector> 
2000
(
(-0.0019913 0.00173831 5.72968e-20)
(-0.00762182 0.00330235 6.80509e-20)
(-0.0153305 0.00366146 -6.48757e-20)
(-0.022333 0.00333697 -1.3238e-19)
(-0.0276811 0.00263918 -9.24747e-20)
(-0.031222 0.00177119 1.23196e-19)
(-0.0330532 0.000878387 7.1758e-20)
(-0.0334438 6.74783e-05 -2.90284e-20)
(-0.0328259 -0.00058242 -7.24656e-20)
(-0.0314944 -0.00100742 5.2837e-20)
(-0.00248977 0.00512138 -1.42023e-19)
(-0.0083709 0.00968544 1.9606e-19)
(-0.0157256 0.0106972 1.95507e-20)
(-0.0220255 0.00969685 -1.13565e-19)
(-0.0264599 0.00759735 5.43421e-19)
(-0.0289521 0.00499558 -2.39166e-19)
(-0.0296477 0.00231986 -2.58747e-19)
(-0.0288422 -0.000111511 3.12082e-19)
(-0.026984 -0.00205682 -3.07786e-19)
(-0.0244455 -0.0033236 1.55273e-19)
(-0.00343584 0.00822503 2.35876e-20)
(-0.00972829 0.0154096 8.38915e-21)
(-0.0163018 0.016886 5.87585e-19)
(-0.0211439 0.0151398 2.0612e-19)
(-0.0237178 0.0116324 4.08802e-20)
(-0.0240982 0.00731564 3.38061e-19)
(-0.0225234 0.00287521 -6.42103e-19)
(-0.0193377 -0.00116605 1.3926e-20)
(-0.0150188 -0.00439135 -3.79695e-19)
(-0.0101009 -0.00647711 4.18279e-19)
(-0.00472414 0.0108682 -4.43705e-20)
(-0.0114035 0.0200605 2.5527e-19)
(-0.0166179 0.0217189 -7.43741e-19)
(-0.0191362 0.0191488 -9.61356e-20)
(-0.0188318 0.0142667 -5.47419e-19)
(-0.0160029 0.00831028 5.66942e-19)
(-0.0110217 0.00217435 -6.01348e-19)
(-0.00429486 -0.00343206 4.22318e-19)
(0.00366518 -0.00789919 1.77543e-19)
(0.0120664 -0.0107679 -2.00621e-19)
(-0.00618716 0.012875 -4.93844e-19)
(-0.01294 0.0232575 4.45624e-21)
(-0.0159822 0.0247664 9.16179e-19)
(-0.015134 0.0213423 2.74668e-19)
(-0.0108139 0.0152243 -8.73345e-19)
(-0.00361459 0.00783401 5.43065e-19)
(0.00592008 0.000194343 6.15555e-19)
(0.0173164 -0.00684127 -5.48815e-19)
(0.030039 -0.0124555 3.91302e-19)
(0.042928 -0.0160508 9.60887e-20)
(-0.00758386 0.0140745 6.75052e-20)
(-0.0136957 0.0246651 1.25202e-20)
(-0.0134288 0.0257005 -1.17133e-18)
(-0.00791995 0.021511 -6.55296e-19)
(0.00173696 0.0144912 7.81714e-19)
(0.0145807 0.00611402 -9.15421e-19)
(0.0298523 -0.00259179 1.04898e-18)
(0.0470125 -0.0107171 -9.06084e-20)
(0.0655443 -0.0172524 -2.95111e-19)
(0.0838051 -0.0214748 -8.57727e-19)
(-0.00858788 0.0143042 -1.46887e-19)
(-0.0128316 0.0240057 -2.68277e-19)
(-0.00771272 0.0243086 -3.29593e-19)
(0.00408058 0.0196263 7.03113e-19)
(0.0206616 0.0123258 1.30428e-18)
(0.0406206 0.00378308 -2.69575e-19)
(0.0629181 -0.00513443 -6.56101e-19)
(0.0869341 -0.0136351 2.00112e-19)
(0.112255 -0.0206184 -1.26023e-18)
(0.136681 -0.0252877 1.38425e-18)
(-0.00878375 0.0134243 8.98368e-19)
(-0.0093277 0.0210859 -4.90371e-19)
(0.00264708 0.0205019 9.57357e-19)
(0.0227374 0.0158167 -1.56413e-18)
(0.0481762 0.00920435 -7.47368e-19)
(0.0770179 0.00182439 -1.0352e-18)
(0.107834 -0.00579657 3.00755e-19)
(0.139849 -0.0132518 -8.3737e-19)
(0.172884 -0.0195771 1.82351e-18)
(0.204282 -0.0240849 5.10459e-19)
(-0.00768216 0.0113475 6.61341e-20)
(-0.00204408 0.0158388 7.98775e-19)
(0.0192568 0.0143219 1.58735e-18)
(0.050067 0.0102991 4.85064e-19)
(0.0867055 0.00565774 1.43571e-18)
(0.126599 0.0013579 7.86943e-20)
(0.167739 -0.00240999 -7.11856e-22)
(0.208927 -0.00569595 5.78824e-19)
(0.250241 -0.00784312 4.68172e-19)
(0.289124 -0.00926793 -1.51947e-18)
(-0.00477028 0.00808568 -5.32152e-19)
(0.0101478 0.00838407 -8.9128e-19)
(0.0436454 0.005937 -1.29552e-18)
(0.087999 0.00320776 3.06123e-20)
(0.138754 0.00175499 -6.60445e-19)
(0.19281 0.00254038 1.04094e-18)
(0.247593 0.00588624 -2.86583e-18)
(0.301168 0.0120114 1.28663e-18)
(0.352891 0.0215105 4.83617e-19)
(0.400039 0.0302421 1.51735e-18)
(0.00038898 0.00380834 2.66201e-19)
(0.0281191 -0.00087506 -1.01904e-18)
(0.0768117 -0.00427395 9.09909e-19)
(0.137566 -0.00546304 -3.53016e-19)
(0.205558 -0.00344462 3.83984e-19)
(0.277826 0.00270501 8.35963e-19)
(0.352535 0.0137223 -1.12238e-18)
(0.429282 0.0305489 1.45828e-19)
(0.509045 0.0524483 -5.3783e-19)
(0.59418 0.0694481 1.09121e-18)
(0.00806062 -0.00110819 3.81399e-19)
(0.0522616 -0.0110938 -9.23893e-19)
(0.118759 -0.0153307 1.25881e-18)
(0.197752 -0.0150205 -7.83948e-19)
(0.284053 -0.0102817 -2.87586e-19)
(0.374609 -0.000974857 1.70265e-19)
(0.467613 0.0128116 8.80307e-20)
(0.562496 0.0307658 1.19408e-18)
(0.658911 0.0501721 3.4375e-19)
(0.754567 0.0623348 1.46956e-18)
(0.0183525 -0.00610223 -3.40429e-19)
(0.0826143 -0.0209194 1.19454e-18)
(0.16901 -0.025265 -9.96735e-19)
(0.267059 -0.0228329 -1.16897e-18)
(0.371093 -0.0151031 1.63552e-18)
(0.477621 -0.00286864 -1.24356e-18)
(0.584246 0.0129397 3.28481e-19)
(0.689413 0.0312098 -1.9473e-18)
(0.791341 0.0492594 1.45866e-18)
(0.886049 0.0617443 7.28803e-20)
(0.0312709 -0.0105461 -4.43659e-19)
(0.118978 -0.0287946 -4.2847e-19)
(0.226872 -0.0317856 -9.12397e-19)
(0.344067 -0.0258931 1.10594e-18)
(0.464452 -0.0140416 -5.58603e-20)
(0.584067 0.00207349 7.14994e-19)
(0.699975 0.0208509 1.30435e-18)
(0.809937 0.0407929 -4.00832e-19)
(0.911584 0.0598049 -1.41776e-18)
(1.00091 0.0748737 2.81479e-18)
(0.046746 -0.0138319 -2.29323e-19)
(0.160913 -0.0332176 -2.73537e-19)
(0.291343 -0.0327813 4.92257e-19)
(0.427119 -0.0216662 -9.14978e-19)
(0.561889 -0.00426364 1.56318e-19)
(0.691447 0.016878 1.39109e-19)
(0.81267 0.03961 6.10064e-20)
(0.923207 0.0622268 -9.85859e-21)
(1.02086 0.0832255 -1.49442e-19)
(1.10226 0.100988 -2.37965e-18)
(0.0646193 -0.0153979 9.30888e-19)
(0.207685 -0.0328639 -6.49657e-19)
(0.360986 -0.0265382 8.3082e-21)
(0.514058 -0.0083398 -9.89433e-19)
(0.660659 0.015905 -3.53994e-19)
(0.796708 0.0428735 3.30988e-19)
(0.919367 0.0699916 2.57043e-19)
(1.02674 0.0954686 -9.15962e-19)
(1.11735 0.118339 7.48673e-19)
(1.18885 0.137789 -9.81619e-19)
(0.084612 -0.0147327 4.01775e-19)
(0.258231 -0.0266438 -3.57072e-19)
(0.433903 -0.0118363 1.48313e-18)
(0.602229 0.0150997 1.51218e-19)
(0.757555 0.0470178 3.47526e-19)
(0.896418 0.0799676 1.54895e-18)
(1.01678 0.111129 -2.36834e-19)
(1.11772 0.138795 2.15796e-19)
(1.19889 0.162561 8.93592e-20)
(1.25919 0.182093 -1.0998e-19)
(0.106294 -0.0113863 2.80697e-19)
(0.311143 -0.0137432 6.74864e-19)
(0.507784 0.0120114 -7.22946e-19)
(0.688613 0.0488886 -2.44746e-19)
(0.849164 0.0886649 -3.02338e-19)
(0.987149 0.127017 4.68457e-19)
(1.10186 0.161146 -2.43671e-19)
(1.19375 0.189672 6.55569e-19)
(1.26385 0.212844 2.20609e-19)
(1.3125 0.230663 -3.5966e-19)
(0.129072 -0.00499466 -3.02485e-19)
(0.364704 0.00632823 2.68863e-19)
(0.580019 0.0451367 -5.73704e-19)
(0.770043 0.0925423 2.47469e-19)
(0.932164 0.139655 -2.56782e-19)
(1.06584 0.182156 -3.20476e-19)
(1.17214 0.217626 -2.57356e-19)
(1.25319 0.245299 2.87614e-19)
(1.3115 0.266201 -5.4227e-19)
(1.34886 0.280634 3.27712e-19)
(0.152193 0.00468201 -1.07822e-19)
(0.416948 0.0336823 -2.10913e-19)
(0.647857 0.0871016 1.00436e-19)
(0.843436 0.144924 6.192e-21)
(1.0036 0.198185 8.33365e-20)
(1.13007 0.243067 1.14332e-19)
(1.22601 0.277936 1.05961e-19)
(1.29535 0.302932 -1.4051e-19)
(1.34202 0.319978 1.19622e-19)
(1.36911 0.329673 -1.87204e-19)
(0.174776 0.0177191 -6.24137e-20)
(0.465775 0.0680016 -2.34133e-20)
(0.708582 0.1369 9.31697e-20)
(0.906011 0.204326 -4.28917e-20)
(1.0611 0.262006 1.14321e-19)
(1.17821 0.307191 -1.47609e-19)
(1.26274 0.339449 3.42114e-20)
(1.32037 0.360075 3.67084e-20)
(1.35627 0.371949 -1.53869e-20)
(1.37465 0.375984 5.82149e-20)
(0.195857 0.0339918 -6.73329e-20)
(0.509072 0.10851 -3.04702e-19)
(0.759693 0.192986 -2.11048e-20)
(0.955471 0.268575 6.2724e-21)
(1.10299 0.328579 -3.96313e-19)
(1.20944 0.371906 5.2392e-20)
(1.2824 0.399692 -4.46049e-20)
(1.3291 0.414555 -1.07591e-19)
(1.35567 0.420328 2.24315e-19)
(1.36715 0.418229 -4.08997e-19)
(0.214445 0.0531506 -3.25199e-20)
(0.544853 0.15397 6.17111e-19)
(0.799067 0.253335 9.94331e-20)
(0.990137 0.335148 -5.4329e-19)
(1.12837 0.395217 -4.40563e-20)
(1.22372 0.434652 -5.20638e-19)
(1.28575 0.456424 3.81643e-19)
(1.32289 0.464537 -1.38471e-19)
(1.34192 0.463701 2.45643e-19)
(1.34842 0.455418 -1.79489e-19)
(0.229587 0.0746123 -2.05069e-19)
(0.571395 0.202718 1.9586e-19)
(0.825095 0.315541 -1.41369e-19)
(1.00902 0.401307 1.06556e-18)
(1.13708 0.459222 5.25894e-19)
(1.22173 0.493027 -1.21932e-19)
(1.27409 0.50767 4.10788e-19)
(1.30345 0.508497 -2.70304e-19)
(1.31689 0.500955 -7.53085e-20)
(1.32028 0.486797 4.9411e-19)
(0.240436 0.0975687 -3.54949e-19)
(0.587357 0.252731 4.51701e-19)
(0.836775 0.376931 -8.88719e-19)
(1.01185 0.464234 1.24811e-19)
(1.12967 0.51799 2.78915e-19)
(1.20469 0.544843 -4.27714e-19)
(1.24914 0.551725 -4.98034e-19)
(1.27272 0.545171 2.18622e-19)
(1.28252 0.531182 -2.63259e-19)
(1.28453 0.511753 3.16106e-19)
(0.246312 0.121013 -8.96827e-20)
(0.591874 0.301725 -4.59621e-19)
(0.833757 0.434708 2.54278e-19)
(0.999032 0.521159 4.26438e-19)
(1.10726 0.569097 -2.56442e-19)
(1.17428 0.588156 -1.91067e-19)
(1.21287 0.587118 -1.04377e-19)
(1.23273 0.573483 -5.15995e-20)
(1.24078 0.553597 1.07752e-20)
(1.24291 0.529718 1.07674e-19)
(0.246759 0.143785 6.58335e-20)
(0.584619 0.347278 -3.85696e-19)
(0.816342 0.486099 6.43305e-19)
(0.971583 0.569494 -3.81146e-19)
(1.07145 0.610386 1.06531e-19)
(1.13248 0.62129 -1.51122e-19)
(1.16741 0.612602 1.62693e-19)
(1.18559 0.592495 3.12173e-20)
(1.19356 0.56743 -7.78589e-20)
(1.19711 0.54002 1.51237e-19)
(0.241593 0.164636 -1.73072e-19)
(0.565834 0.386975 3.38134e-19)
(0.78545 0.528509 -1.52007e-20)
(0.931027 0.60695 -7.32601e-20)
(1.02419 0.640034 -2.01327e-19)
(1.08145 0.642882 2.48233e-20)
(1.11501 0.627183 6.14054e-20)
(1.1335 0.601457 -1.51422e-19)
(1.14303 0.571982 1.7684e-19)
(1.1492 0.541878 1.50262e-19)
(0.230936 0.182311 3.85112e-20)
(0.536326 0.418562 -8.0954e-20)
(0.742533 0.559669 2.41922e-20)
(0.87924 0.631621 1.25941e-20)
(0.967555 0.656554 7.78239e-20)
(1.02334 0.651785 -1.4398e-19)
(1.05788 0.629966 -3.01255e-19)
(1.07891 0.599657 -1.22903e-19)
(1.09214 0.566622 -1.57097e-19)
(1.10255 0.5347 1.33086e-19)
(0.215231 0.195654 1.10705e-19)
(0.497431 0.440131 -1.7164e-19)
(0.689468 0.577805 1.65673e-19)
(0.818264 0.64211 -3.14736e-19)
(0.903423 0.658818 7.6356e-20)
(0.959697 0.646834 5.16093e-19)
(0.997279 0.619363 -1.58264e-19)
(1.02317 0.584702 1.8812e-19)
(1.04271 0.548004 2.75418e-19)
(1.05903 0.515027 1.00178e-18)
(0.195249 0.203726 6.80353e-19)
(0.450968 0.450296 -4.6293e-19)
(0.628514 0.581864 1.12665e-18)
(0.750269 0.637905 -1.92949e-19)
(0.83339 0.646759 9.6664e-19)
(0.891058 0.628052 6.06462e-19)
(0.932311 0.594737 -1.42478e-18)
(0.963571 0.55388 2.16323e-18)
(0.989457 0.507899 -4.57158e-19)
(1.00632 0.461006 8.99578e-19)
(0.17205 0.205874 -3.75305e-19)
(0.399205 0.448255 -2.67581e-19)
(0.562391 0.57153 2.58795e-19)
(0.677929 0.619482 -6.40941e-19)
(0.759662 0.622009 -2.00195e-18)
(0.8187 0.598991 -8.0512e-19)
(0.862693 0.563188 -7.25664e-19)
(0.897114 0.52174 3.51193e-19)
(0.925117 0.478158 2.92696e-18)
(0.942606 0.437391 -6.08842e-19)
(0.146894 0.201721 1.97521e-19)
(0.344728 0.433649 -7.99375e-19)
(0.494241 0.546774 1.75819e-19)
(0.604667 0.587133 -1.28037e-18)
(0.686058 0.585016 2.80324e-18)
(0.747293 0.559929 -3.24902e-19)
(0.794584 0.52408 1.52752e-18)
(0.832424 0.484256 -2.18816e-18)
(0.863342 0.443961 6.86484e-19)
(0.884648 0.407476 1.062e-19)
(0.121118 0.191156 1.45608e-19)
(0.290163 0.40655 8.81663e-19)
(0.427119 0.507894 -2.58978e-18)
(0.533588 0.541229 1.2602e-18)
(0.615632 0.535982 -4.15541e-21)
(0.679888 0.510615 -4.25258e-19)
(0.731205 0.476429 5.35197e-19)
(0.773236 0.439623 -5.31896e-19)
(0.808165 0.403351 -1.82837e-18)
(0.834248 0.370865 -5.00973e-19)
(0.0960487 0.174334 4.76453e-19)
(0.238033 0.367474 5.34592e-19)
(0.363855 0.455615 2.20808e-18)
(0.467419 0.482513 -1.22837e-18)
(0.550831 0.4755 2.53198e-18)
(0.618566 0.451352 -5.45391e-19)
(0.674214 0.420138 -5.76494e-19)
(0.720699 0.387299 6.81261e-19)
(0.759932 0.355514 4.44178e-19)
(0.79087 0.327124 1.61048e-18)
(0.0729449 0.15167 -4.83538e-19)
(0.190664 0.317377 1.57837e-19)
(0.306988 0.391111 4.26866e-20)
(0.408535 0.412151 1.25228e-18)
(0.493703 0.404588 -3.1259e-18)
(0.56499 0.382953 5.31026e-19)
(0.624864 0.35582 1.17256e-18)
(0.675618 0.327751 -1.41756e-18)
(0.718933 0.30091 4.99398e-19)
(0.754395 0.276897 -2.31774e-18)
(0.0529469 0.123826 1.03045e-19)
(0.150114 0.257626 5.55896e-19)
(0.258722 0.315974 2.16206e-19)
(0.358945 0.331692 2.93009e-19)
(0.445941 0.324635 5.61447e-19)
(0.520504 0.306609 1.6716e-18)
(0.584155 0.284488 -2.04666e-18)
(0.638655 0.261882 -1.15273e-18)
(0.685522 0.240441 1.91028e-19)
(0.724903 0.221195 1.50289e-18)
(0.0370318 0.0916908 -6.23127e-19)
(0.118111 0.189953 -7.41272e-20)
(0.220875 0.23216 -6.20952e-19)
(0.320288 0.243022 8.84332e-20)
(0.408909 0.237333 -5.31567e-19)
(0.486184 0.2238 -6.06879e-19)
(0.552891 0.207442 -9.04404e-19)
(0.610384 0.190868 2.43711e-18)
(0.660066 0.175232 4.20461e-19)
(0.702562 0.161149 -6.40919e-19)
(0.0259729 0.0563423 3.35834e-19)
(0.0960029 0.116392 4.43894e-19)
(0.194847 0.141927 1.74885e-19)
(0.293812 0.148292 -9.43862e-19)
(0.38364 0.144613 -4.39409e-19)
(0.462844 0.136226 -9.46197e-20)
(0.531693 0.126185 1.84889e-19)
(0.591265 0.116066 1.48457e-19)
(0.642893 0.106551 -1.14797e-18)
(0.687548 0.0979583 6.58731e-19)
(0.0203063 0.0190051 -1.74889e-19)
(0.0847141 0.0392053 -1.98964e-19)
(0.181593 0.0477517 1.58577e-19)
(0.280362 0.0498473 1.40789e-19)
(0.370831 0.0485764 1.44288e-19)
(0.451036 0.0457357 2.20665e-19)
(0.520987 0.0423504 -1.16021e-20)
(0.581621 0.038948 -2.89452e-19)
(0.634242 0.0357539 2.74947e-19)
(0.680004 0.0328649 -4.13669e-19)
(0.0203063 -0.0190053 -1.76039e-19)
(0.0847141 -0.0392059 -1.89608e-19)
(0.181593 -0.0477524 1.74737e-19)
(0.280362 -0.0498481 3.42119e-19)
(0.370831 -0.0485772 2.27957e-19)
(0.451036 -0.0457365 -3.00364e-19)
(0.520987 -0.0423512 -1.63214e-19)
(0.581621 -0.0389487 7.11773e-20)
(0.634242 -0.0357545 1.60024e-19)
(0.680004 -0.0328655 -9.52919e-20)
(0.0259729 -0.0563426 4.20106e-19)
(0.096003 -0.116393 -5.33908e-19)
(0.194847 -0.141928 -4.44073e-20)
(0.293812 -0.148292 2.95821e-19)
(0.38364 -0.144614 -1.33746e-18)
(0.462845 -0.136227 5.71481e-19)
(0.531693 -0.126186 5.89929e-19)
(0.591265 -0.116066 -6.96438e-19)
(0.642893 -0.106552 6.65262e-19)
(0.687548 -0.0979589 -2.91991e-19)
(0.0370318 -0.091691 -7.26332e-20)
(0.118111 -0.189953 -9.26626e-21)
(0.220875 -0.232161 -1.44212e-18)
(0.320288 -0.243023 -4.58764e-19)
(0.408909 -0.237333 -4.83676e-20)
(0.486184 -0.2238 -7.54708e-19)
(0.552891 -0.207443 1.40622e-18)
(0.610384 -0.190868 -4.94193e-20)
(0.660066 -0.175233 8.02978e-19)
(0.702562 -0.161149 -7.06042e-19)
(0.0529469 -0.123826 1.22668e-19)
(0.150114 -0.257626 -5.67919e-19)
(0.258722 -0.315974 1.74749e-18)
(0.358946 -0.331693 2.47288e-19)
(0.445941 -0.324636 1.21571e-18)
(0.520505 -0.306609 -1.18852e-18)
(0.584155 -0.284488 1.24771e-18)
(0.638655 -0.261882 -8.99565e-19)
(0.685522 -0.240442 -3.95045e-19)
(0.724903 -0.221195 3.35595e-19)
(0.0729449 -0.15167 1.09536e-18)
(0.190664 -0.317377 2.80509e-21)
(0.306989 -0.391112 -1.84168e-18)
(0.408535 -0.412151 -5.34329e-19)
(0.493703 -0.404589 1.77419e-18)
(0.56499 -0.382954 -1.03978e-18)
(0.624865 -0.355821 -1.20373e-18)
(0.675618 -0.327751 1.08305e-18)
(0.718933 -0.300911 -7.37336e-19)
(0.754395 -0.276898 -1.58965e-19)
(0.0960488 -0.174334 -1.6351e-19)
(0.238033 -0.367474 -7.7546e-21)
(0.363855 -0.455616 1.99866e-18)
(0.467419 -0.482514 1.14601e-18)
(0.550832 -0.475501 -1.35142e-18)
(0.618566 -0.451352 1.63628e-18)
(0.674214 -0.420139 -1.77554e-18)
(0.7207 -0.387299 1.76692e-19)
(0.759932 -0.355515 5.28846e-19)
(0.79087 -0.327125 1.22369e-18)
(0.121118 -0.191156 1.87425e-19)
(0.290163 -0.406551 3.0182e-19)
(0.42712 -0.507895 3.28307e-19)
(0.533588 -0.541229 -1.05551e-18)
(0.615633 -0.535983 -1.88016e-18)
(0.679888 -0.510616 3.95937e-19)
(0.731205 -0.47643 1.14578e-18)
(0.773236 -0.439624 -3.27973e-19)
(0.808165 -0.403352 1.97455e-18)
(0.834248 -0.370865 -1.92465e-18)
(0.146894 -0.201721 -1.06098e-18)
(0.344728 -0.43365 4.07682e-19)
(0.494242 -0.546775 -1.10084e-18)
(0.604667 -0.587134 1.77966e-18)
(0.686059 -0.585017 8.89904e-19)
(0.747293 -0.559929 1.25645e-18)
(0.794584 -0.52408 -2.90763e-19)
(0.832424 -0.484257 1.14564e-18)
(0.863342 -0.443962 -2.42554e-18)
(0.884648 -0.407477 -6.32356e-19)
(0.17205 -0.205875 6.24666e-20)
(0.399205 -0.448255 -7.12767e-19)
(0.562392 -0.57153 -1.14126e-18)
(0.677929 -0.619482 -4.83557e-19)
(0.759662 -0.622009 -1.36645e-18)
(0.8187 -0.598991 -1.38983e-19)
(0.862693 -0.563189 1.1883e-19)
(0.897114 -0.521741 -5.33956e-19)
(0.925118 -0.478159 -5.96739e-19)
(0.942606 -0.437392 1.57374e-18)
(0.195249 -0.203726 3.35373e-19)
(0.450968 -0.450296 4.68335e-19)
(0.628515 -0.581865 8.39031e-19)
(0.750269 -0.637906 3.72173e-20)
(0.83339 -0.646759 5.59826e-19)
(0.891058 -0.628052 -7.66584e-19)
(0.932312 -0.594737 2.34048e-18)
(0.963572 -0.55388 -1.03336e-18)
(0.989457 -0.507899 -5.07511e-19)
(1.00632 -0.461006 -1.53036e-18)
(0.215231 -0.195654 -1.32091e-19)
(0.497431 -0.440131 2.33315e-19)
(0.689469 -0.577806 -2.39098e-19)
(0.818264 -0.642111 1.28914e-19)
(0.903423 -0.658818 -1.52342e-19)
(0.959697 -0.646834 -3.90721e-19)
(0.997279 -0.619363 5.1397e-19)
(1.02317 -0.584703 -1.68137e-19)
(1.04271 -0.548005 2.60817e-19)
(1.05903 -0.515027 -5.69141e-19)
(0.230936 -0.182311 -7.36177e-21)
(0.536327 -0.418562 -1.06538e-19)
(0.742533 -0.55967 2.12813e-20)
(0.879241 -0.631622 1.44502e-19)
(0.967555 -0.656555 -6.53575e-20)
(1.02334 -0.651785 1.75553e-20)
(1.05788 -0.629967 -1.71815e-20)
(1.07891 -0.599657 -3.83249e-19)
(1.09214 -0.566623 -1.77925e-19)
(1.10255 -0.534701 -5.59833e-19)
(0.241594 -0.164636 -9.61545e-20)
(0.565834 -0.386975 3.3933e-19)
(0.78545 -0.528509 -2.10839e-19)
(0.931027 -0.606951 -7.60591e-20)
(1.02419 -0.640034 3.40602e-20)
(1.08145 -0.642883 7.14049e-20)
(1.11501 -0.627183 -6.99244e-21)
(1.1335 -0.601457 2.92274e-19)
(1.14303 -0.571983 -2.52583e-19)
(1.1492 -0.541878 -3.57233e-21)
(0.246759 -0.143785 -2.36737e-19)
(0.584619 -0.347279 -1.48272e-19)
(0.816342 -0.486099 -3.68172e-19)
(0.971584 -0.569495 4.18814e-19)
(1.07145 -0.610386 -3.07075e-20)
(1.13248 -0.621291 1.36166e-19)
(1.16741 -0.612602 1.53714e-19)
(1.18559 -0.592495 -5.59099e-20)
(1.19356 -0.567431 5.03621e-20)
(1.19711 -0.540021 -1.59587e-19)
(0.246312 -0.121013 -1.61033e-19)
(0.591874 -0.301726 -2.06852e-19)
(0.833757 -0.434708 3.11696e-19)
(0.999033 -0.521159 -4.68332e-19)
(1.10726 -0.569097 8.22697e-20)
(1.17428 -0.588156 4.15858e-20)
(1.21287 -0.587119 9.19928e-20)
(1.23273 -0.573484 -6.04724e-20)
(1.24078 -0.553597 -7.24343e-20)
(1.24291 -0.529719 -2.36136e-19)
(0.240437 -0.0975687 6.71362e-19)
(0.587357 -0.252731 -5.25417e-19)
(0.836776 -0.376932 2.45468e-20)
(1.01185 -0.464234 -6.73277e-19)
(1.12967 -0.51799 -1.95458e-19)
(1.20469 -0.544843 1.56372e-19)
(1.24914 -0.551725 1.14568e-19)
(1.27272 -0.545171 -3.82151e-19)
(1.28252 -0.531183 1.67761e-19)
(1.28453 -0.511754 -3.0254e-19)
(0.229588 -0.0746124 3.33175e-19)
(0.571395 -0.202718 -3.29744e-19)
(0.825095 -0.315541 1.18328e-18)
(1.00902 -0.401307 9.43596e-20)
(1.13708 -0.459223 2.68351e-19)
(1.22173 -0.493027 9.57291e-19)
(1.27409 -0.507671 -1.98982e-19)
(1.30346 -0.508498 4.8338e-20)
(1.31689 -0.500955 -2.84276e-20)
(1.32028 -0.486797 -4.95386e-20)
(0.214445 -0.0531506 2.56824e-19)
(0.544853 -0.15397 5.83577e-19)
(0.799067 -0.253336 -5.94833e-19)
(0.990137 -0.335148 -1.80683e-19)
(1.12837 -0.395217 -1.91295e-19)
(1.22372 -0.434652 3.76586e-19)
(1.28575 -0.456424 -1.77706e-19)
(1.32289 -0.464537 4.19e-19)
(1.34192 -0.463702 1.00829e-19)
(1.34842 -0.455419 -1.77327e-19)
(0.195857 -0.0339918 -2.77422e-19)
(0.509072 -0.10851 2.57443e-19)
(0.759693 -0.192986 -5.28536e-19)
(0.955472 -0.268575 2.21286e-19)
(1.10299 -0.328579 -2.21784e-19)
(1.20944 -0.371907 -2.63725e-19)
(1.2824 -0.399692 -2.04628e-19)
(1.3291 -0.414555 2.2577e-19)
(1.35567 -0.420328 -3.92423e-19)
(1.36715 -0.41823 2.48427e-19)
(0.174776 -0.0177191 -1.03933e-19)
(0.465775 -0.0680016 -2.03951e-19)
(0.708582 -0.1369 9.59429e-20)
(0.906011 -0.204326 7.08328e-21)
(1.0611 -0.262006 7.636e-20)
(1.17821 -0.307192 1.09407e-19)
(1.26274 -0.339449 9.31609e-20)
(1.32037 -0.360076 -1.26045e-19)
(1.35627 -0.37195 1.02751e-19)
(1.37465 -0.375984 -1.62311e-19)
(0.152192 -0.00468202 -6.54903e-20)
(0.416948 -0.0336823 -2.63971e-20)
(0.647857 -0.0871016 9.83576e-20)
(0.843436 -0.144924 -4.4373e-20)
(1.0036 -0.198185 1.24182e-19)
(1.13007 -0.243067 -1.56966e-19)
(1.22601 -0.277936 4.0325e-20)
(1.29535 -0.302933 3.46068e-20)
(1.34202 -0.319978 -1.23639e-20)
(1.36911 -0.329673 5.67427e-20)
(0.129072 0.00499465 -7.85661e-20)
(0.364704 -0.00632827 -3.33086e-19)
(0.580019 -0.0451368 -2.68267e-20)
(0.770043 -0.0925424 1.07078e-20)
(0.932164 -0.139655 -4.62031e-19)
(1.06584 -0.182156 4.87901e-20)
(1.17214 -0.217626 -5.16922e-20)
(1.25319 -0.245299 -1.40601e-19)
(1.3115 -0.266202 3.11108e-19)
(1.34886 -0.280635 -5.66004e-19)
(0.106294 0.0113863 -4.45415e-20)
(0.311143 0.0137432 7.14418e-19)
(0.507784 -0.0120115 9.52876e-20)
(0.688613 -0.0488887 -6.45363e-19)
(0.849164 -0.088665 -7.72772e-20)
(0.987149 -0.127017 -7.27771e-19)
(1.10186 -0.161146 5.65892e-19)
(1.19375 -0.189672 -2.29683e-19)
(1.26385 -0.212844 4.35347e-19)
(1.3125 -0.230664 -3.84066e-19)
(0.0846119 0.0147327 -2.51914e-19)
(0.25823 0.0266437 2.93321e-19)
(0.433903 0.0118362 -2.04886e-19)
(0.602228 -0.0150999 1.41623e-18)
(0.757555 -0.0470179 7.49663e-19)
(0.896418 -0.0799679 -1.96305e-19)
(1.01678 -0.111129 7.63317e-19)
(1.11772 -0.138796 -4.99087e-19)
(1.19889 -0.162561 -1.60503e-19)
(1.25919 -0.182094 1.15964e-18)
(0.0646192 0.0153978 -4.65701e-19)
(0.207685 0.0328638 6.95322e-19)
(0.360986 0.0265381 -1.31863e-18)
(0.514058 0.00833963 2.28252e-19)
(0.660659 -0.0159052 5.69102e-19)
(0.796707 -0.0428738 -7.15166e-19)
(0.919367 -0.0699919 -1.26665e-18)
(1.02674 -0.0954689 6.79031e-19)
(1.11735 -0.11834 -8.83099e-19)
(1.18885 -0.137789 1.41324e-18)
(0.0467459 0.0138319 -1.15124e-19)
(0.160913 0.0332175 -6.99862e-19)
(0.291342 0.0327811 3.4548e-19)
(0.427118 0.021666 8.64231e-19)
(0.561889 0.00426341 -4.64223e-19)
(0.691447 -0.0168782 -4.58122e-19)
(0.81267 -0.0396103 -7.76728e-19)
(0.923207 -0.0622271 -3.55916e-19)
(1.02086 -0.0832259 -8.54766e-20)
(1.10226 -0.100988 1.41236e-18)
(0.0312708 0.0105461 1.93299e-19)
(0.118978 0.0287945 -9.50734e-19)
(0.226872 0.0317854 1.62619e-18)
(0.344067 0.0258928 -9.05521e-19)
(0.464452 0.0140413 5.86691e-19)
(0.584067 -0.00207379 -7.3002e-19)
(0.699975 -0.0208513 8.13068e-19)
(0.809936 -0.0407932 7.10102e-19)
(0.911584 -0.0598053 1.55149e-18)
(1.00091 -0.0748741 -2.56496e-18)
(0.0183524 0.00610218 -6.00629e-19)
(0.0826141 0.0209193 1.20608e-18)
(0.16901 0.0252648 1.60964e-20)
(0.267059 0.0228326 -4.34417e-19)
(0.371093 0.0151027 -2.30694e-19)
(0.477621 0.00286829 1.84386e-19)
(0.584246 -0.0129401 -1.30904e-18)
(0.689413 -0.0312102 1.01137e-18)
(0.791341 -0.0492599 -1.30346e-18)
(0.886049 -0.0617448 -5.94975e-19)
(0.00806054 0.00110813 1.03357e-18)
(0.0522614 0.0110937 -3.22425e-19)
(0.118758 0.0153305 -6.04827e-19)
(0.197752 0.0150202 1.64269e-18)
(0.284053 0.0102814 -1.61364e-18)
(0.374609 0.000974445 9.01562e-19)
(0.467612 -0.0128121 9.60207e-19)
(0.562496 -0.0307664 2.62755e-19)
(0.658911 -0.0501726 2.7328e-19)
(0.754567 -0.0623354 -3.87664e-19)
(0.000388907 -0.0038084 -9.88476e-19)
(0.0281189 0.000874873 9.39536e-19)
(0.0768114 0.00427366 -8.31456e-19)
(0.137566 0.00546268 1.04318e-18)
(0.205558 0.00344419 -3.11665e-19)
(0.277826 -0.00270549 -1.08242e-18)
(0.352535 -0.0137229 3.10408e-19)
(0.429282 -0.0305495 -5.12146e-19)
(0.509045 -0.052449 -6.06592e-19)
(0.59418 -0.0694489 -1.8924e-18)
(-0.00477035 -0.00808575 -1.2348e-18)
(0.0101476 -0.00838428 9.81689e-19)
(0.0436451 -0.00593733 -1.92343e-18)
(0.0879987 -0.00320819 3.43944e-19)
(0.138754 -0.00175549 -1.33253e-18)
(0.19281 -0.00254096 -7.99191e-19)
(0.247593 -0.00588688 1.91256e-18)
(0.301168 -0.0120121 -2.61475e-18)
(0.352891 -0.0215113 5.03286e-19)
(0.400039 -0.030243 -8.28783e-19)
(-0.00768222 -0.0113476 6.08244e-19)
(-0.00204425 -0.015839 2.57358e-19)
(0.0192565 -0.0143223 -7.65496e-20)
(0.0500667 -0.0102996 7.30925e-19)
(0.0867052 -0.00565834 2.14631e-18)
(0.126598 -0.00135858 7.40788e-19)
(0.167739 0.00240923 7.6544e-19)
(0.208927 0.00569509 -2.6467e-19)
(0.250241 0.00784215 -2.46884e-18)
(0.289124 0.00926683 6.26121e-19)
(-0.0087838 -0.0134244 -1.71715e-19)
(-0.00932786 -0.0210862 5.46535e-19)
(0.00264687 -0.0205024 -1.43174e-19)
(0.0227372 -0.0158173 1.01091e-18)
(0.0481759 -0.00920506 -2.33732e-18)
(0.0770177 -0.0018252 1.98394e-19)
(0.107834 0.00579566 -1.11239e-18)
(0.139849 0.0132507 1.63686e-18)
(0.172884 0.019576 -4.78442e-19)
(0.204282 0.0240836 -6.83671e-20)
(-0.00858793 -0.0143043 -1.16897e-19)
(-0.0128318 -0.024006 -6.57271e-19)
(-0.00771291 -0.0243091 1.65299e-18)
(0.00408037 -0.019627 -8.71547e-19)
(0.0206614 -0.0123267 6.12544e-20)
(0.0406205 -0.00378402 2.79695e-19)
(0.0629179 0.00513337 -2.5561e-19)
(0.086934 0.013634 3.322e-19)
(0.112255 0.0206171 1.15112e-18)
(0.136681 0.0252862 3.01226e-19)
(-0.00758391 -0.0140747 -2.62194e-19)
(-0.0136959 -0.0246655 -2.91633e-19)
(-0.013429 -0.0257011 -1.29447e-18)
(-0.00792013 -0.0215118 6.89259e-19)
(0.00173679 -0.0144921 -1.42167e-18)
(0.0145806 -0.0061151 3.22973e-19)
(0.0298522 0.00259059 3.63161e-19)
(0.0470124 0.0107157 -3.83788e-19)
(0.0655442 0.0172509 -2.48304e-19)
(0.0838051 0.0214731 -1.11594e-18)
(-0.00618721 -0.0128752 2.04823e-19)
(-0.0129402 -0.023258 -4.81787e-20)
(-0.0159823 -0.0247671 9.78382e-22)
(-0.0151341 -0.0213432 -6.22072e-19)
(-0.010814 -0.0152253 1.57475e-18)
(-0.00361469 -0.00783521 -2.45622e-19)
(0.00592002 -0.000195678 -6.12961e-19)
(0.0173164 0.00683979 7.50237e-19)
(0.030039 0.0124539 -2.63647e-19)
(0.042928 0.016049 1.45727e-18)
(-0.00472417 -0.0108684 -3.84441e-20)
(-0.0114036 -0.020061 -2.25396e-19)
(-0.016618 -0.0217196 -8.89573e-20)
(-0.0191363 -0.0191497 -1.13647e-19)
(-0.0188319 -0.0142678 -2.44337e-19)
(-0.016003 -0.00831158 -7.67309e-19)
(-0.0110217 -0.0021758 9.5981e-19)
(-0.00429486 0.00343047 5.60676e-19)
(0.0036652 0.00789743 -1.00439e-19)
(0.0120664 0.010766 -8.93855e-19)
(-0.00343587 -0.00822522 2.18312e-19)
(-0.00972836 -0.0154102 3.81499e-20)
(-0.0163019 -0.0168868 2.58231e-19)
(-0.021144 -0.0151408 -2.95559e-20)
(-0.0237179 -0.0116337 2.35138e-19)
(-0.0240982 -0.00731703 2.65291e-19)
(-0.0225235 -0.00287675 3.97724e-19)
(-0.0193377 0.00116436 -1.12669e-18)
(-0.0150188 0.0043895 -2.07951e-19)
(-0.0101009 0.00647508 3.72691e-19)
(-0.00248979 -0.00512158 -1.10236e-19)
(-0.00837094 -0.009686 -1.56679e-19)
(-0.0157256 -0.0106981 -7.53723e-20)
(-0.0220256 -0.00969794 3.68655e-19)
(-0.0264599 -0.00759864 1.78946e-19)
(-0.0289522 -0.00499703 3.66979e-20)
(-0.0296477 -0.00232146 -7.9564e-20)
(-0.0288422 0.000109757 -6.17197e-20)
(-0.026984 0.00205489 5.29777e-19)
(-0.0244455 0.00332149 -3.60818e-19)
(-0.0019913 -0.00173851 5.61969e-20)
(-0.00762183 -0.00330293 6.99248e-20)
(-0.0153306 -0.00366234 -5.96242e-20)
(-0.022333 -0.0033381 -5.45355e-20)
(-0.0276811 -0.0026405 -5.65451e-20)
(-0.031222 -0.00177267 -9.02266e-20)
(-0.0330532 -0.00088002 2.89801e-21)
(-0.0334438 -6.92651e-05 1.25189e-19)
(-0.0328259 0.000580463 -1.25698e-19)
(-0.0314944 0.00100528 2.28699e-19)
(-0.00812888 -0.00258942 1.65364e-20)
(0.062195 -0.00662663 9.88935e-21)
(0.277491 -0.00670306 1.33913e-21)
(0.377068 -0.00438204 -9.02986e-22)
(0.47965 -0.00368676 -6.35754e-23)
(0.55368 -0.00264891 1.48357e-22)
(0.606095 -0.00220157 1.67197e-22)
(0.660516 -0.00159239 -3.43719e-23)
(0.683713 -0.00145026 -2.45067e-24)
(0.73406 -0.000999069 2.43537e-22)
(0.00867186 -0.00806749 2.62236e-20)
(0.0774463 -0.0197163 1.25233e-21)
(0.288982 -0.0199707 -1.74918e-20)
(0.385825 -0.0130592 1.40567e-20)
(0.48636 -0.0109741 8.88471e-22)
(0.558915 -0.00787612 -5.96589e-22)
(0.610366 -0.00653167 6.92028e-22)
(0.663873 -0.00472878 7.09054e-23)
(0.686644 -0.00435695 1.43218e-22)
(0.736282 -0.00300978 -2.232e-22)
(0.0419786 -0.0144257 2.68605e-20)
(0.107476 -0.0323251 -3.61072e-20)
(0.311538 -0.0327795 1.78794e-20)
(0.403026 -0.0214356 -1.16456e-20)
(0.499545 -0.0180341 8.29813e-22)
(0.569217 -0.0129517 -6.4684e-22)
(0.618783 -0.0107466 -2.58076e-22)
(0.670501 -0.00778542 1.31431e-24)
(0.692438 -0.00719784 -1.09548e-22)
(0.740684 -0.00498091 -3.25882e-22)
(0.0911895 -0.0221422 -4.1632e-20)
(0.151363 -0.0441537 -5.01152e-20)
(0.344328 -0.0448444 -2.31294e-20)
(0.428064 -0.0293276 1.21376e-20)
(0.518754 -0.024727 -1.45604e-20)
(0.584263 -0.0177822 3.85628e-21)
(0.631102 -0.0147749 -2.09922e-22)
(0.68023 -0.0107125 1.22781e-22)
(0.700965 -0.00993134 -1.31257e-22)
(0.747185 -0.00688707 1.20934e-22)
(0.155373 -0.0314899 1.15142e-19)
(0.20778 -0.0549146 7.22449e-20)
(0.386163 -0.0559017 2.59904e-20)
(0.460072 -0.036573 -2.35883e-20)
(0.543341 -0.0309288 1.19519e-20)
(0.603586 -0.0222847 3.16967e-21)
(0.646973 -0.0185523 2.2198e-21)
(0.692815 -0.013465 2.42393e-22)
(0.712032 -0.0125192 2.92009e-22)
(0.755666 -0.00870448 -6.41711e-22)
(0.233247 -0.0423959 -5.08325e-20)
(0.275053 -0.0642927 3.90035e-20)
(0.435564 -0.0656981 4.81938e-21)
(0.497968 -0.0430286 2.63099e-20)
(0.572502 -0.0365327 -5.9544e-21)
(0.626606 -0.0263889 -3.69639e-21)
(0.665956 -0.0220234 -2.2931e-21)
(0.707943 -0.016004 -1.5149e-22)
(0.725394 -0.0149274 -1.57852e-22)
(0.765973 -0.0104115 6.88217e-22)
(0.323184 -0.0545802 -3.86828e-20)
(0.35121 -0.0720237 -1.00794e-19)
(0.490833 -0.0740304 -1.7059e-20)
(0.540516 -0.0485784 -1.46505e-20)
(0.605324 -0.041456 6.98414e-21)
(0.652658 -0.0300392 -1.94606e-21)
(0.687544 -0.0251442 2.46483e-21)
(0.725252 -0.0182979 4.53684e-22)
(0.740766 -0.0171278 -4.73828e-23)