1.45 	0 	0 	-0.0066447 	-0.00266232 	1.70291e-20
2.35 	0 	0 	0.0658908 	-0.00678736 	1.05156e-20
