1.45 	0 	0 	-0.00813481 	-0.00258623 	1.65341e-20
2.35 	0 	0 	0.0621268 	-0.00662894 	9.88699e-21
