1.275 	2.15223e-18 	-2.76991e-20 	-0.034445 	-0.000434673 	-1.91568e-22
1.825 	2.15223e-18 	-1.39322e-20 	-0.0094311 	-0.00275874 	1.69475e-21
2.375 	2.15223e-18 	-2.66896e-23 	0.115403 	-0.00324883 	-7.06994e-22
