1.45 	0 	0 	-0.292647
2.35 	0 	0 	-0.12789
