1.275 	2.15223e-18 	-2.76991e-20 	-0.0344266 	-0.000436826 	-1.92162e-22
1.825 	2.15223e-18 	-1.39322e-20 	-0.00939793 	-0.00276529 	1.70253e-21
2.375 	2.15223e-18 	-2.66896e-23 	0.115495 	-0.00325661 	-7.10317e-22
