/*--------------------------------*- C++ -*----------------------------------*\
  =========                 |
  \\      /  F ield         | OpenFOAM: The Open Source CFD Toolbox
   \\    /   O peration     | Website:  https://openfoam.org
    \\  /    A nd           | Version:  6.0
     \\/     M anipulation  |
\*---------------------------------------------------------------------------*/
FoamFile
{
    version     2.0;
    format      ascii;
    class       volScalarField;
    location    "14";
    object      p;
}
// * * * * * * * * * * * * * * * * * * * * * * * * * * * * * * * * * * * * * //

dimensions      [0 2 -2 0 0 0 0];

internalField   nonuniform List<scalar> 
62000
(
0.0370245
0.0366915
0.0363778
0.0360823
0.0357854
0.0355075
0.0352063
0.0349064
0.0345672
0.0342113
0.0338005
0.0333559
0.0328445
0.0322853
0.0316532
0.0309638
0.0302007
0.0293753
0.0284775
0.0275165
0.0264845
0.0253912
0.0242274
0.0230055
0.0217142
0.0203684
0.0189582
0.0175053
0.0160079
0.0145008
0.0129907
0.0114947
0.0100408
0.00866192
0.0074073
0.00632855
0.00548543
0.00493094
0.00471884
0.00488593
0.00547715
0.00652936
0.00813446
0.0104486
0.0139761
0.0194413
0.0279912
0.0402777
0.0562796
0.0736188
0.0883605
0.0969119
0.0982173
0.0925745
0.0855813
0.0761819
0.0668769
0.0555051
0.0387382
0.0773565
0.0289463
0.0284539
0.0280085
0.0275852
0.0271915
0.0268489
0.0265287
0.0262576
0.0260026
0.0257867
0.0255722
0.0253782
0.0251652
0.0249473
0.0246883
0.0243976
0.0240457
0.0236385
0.0231552
0.0225994
0.0219585
0.0212357
0.0204246
0.0195294
0.0185484
0.017486
0.0163441
0.0151329
0.0138661
0.0125721
0.0112675
0.00997869
0.00872017
0.00753309
0.00646416
0.00557041
0.00490506
0.00452138
0.00446051
0.00475524
0.00543312
0.00652548
0.00809931
0.0102962
0.0136048
0.0187751
0.0270449
0.0392563
0.0556908
0.0742107
0.0909053
0.101786
0.105183
0.100723
0.0942172
0.0845506
0.0750825
0.0631618
0.0521386
-0.0101397
0.0168235
0.0160753
0.0153391
0.0146393
0.0139757
0.0133845
0.0128461
0.0123978
0.012014
0.0117281
0.0115051
0.0113745
0.0112925
0.0112835
0.0112994
0.0113576
0.0114113
0.0114702
0.0114937
0.0114845
0.0114125
0.0112765
0.0110581
0.0107563
0.0103648
0.00988281
0.00931305
0.00865968
0.00794264
0.00718416
0.00642164
0.00566127
0.00493304
0.00427099
0.00372288
0.00334068
0.00317214
0.00325658
0.00361925
0.00426821
0.00520277
0.00641729
0.00791968
0.00978246
0.012428
0.0165582
0.02342
0.0339883
0.0488321
0.0661538
0.0822764
0.0930186
0.0960837
0.0902825
0.0812188
0.0686048
0.0575956
0.0474472
0.0407948
0.00348792
0.00555257
0.0045807
0.00356698
0.00255855
0.00156029
0.000606061
-0.000302023
-0.00112476
-0.00186444
-0.00248223
-0.00299067
-0.00335542
-0.00360034
-0.00369977
-0.00368693
-0.00354692
-0.00331885
-0.00299812
-0.00262626
-0.00220734
-0.00177996
-0.0013533
-0.000958262
-0.000604086
-0.000309061
-8.02874e-05
7.42929e-05
0.000153866
0.000167979
0.000146896
0.000101858
6.30833e-05
4.32892e-05
7.85176e-05
0.000212749
0.000491917
0.000953628
0.00162368
0.00250795
0.00359092
0.00484124
0.00621715
0.00765647
0.009155
0.0110579
0.0140048
0.019235
0.0278605
0.0407932
0.0566993
0.0723605
0.0836245
0.0876564
0.0824359
0.0728507
0.0588414
0.0468496
0.0384447
0.0354196
0.0043024
-0.00225671
-0.00325199
-0.00432095
-0.00542022
-0.00656111
-0.00771848
-0.00889618
-0.010057
-0.0111998
-0.0122771
-0.0132881
-0.0141807
-0.0149598
-0.0155757
-0.016042
-0.0163195
-0.0164312
-0.0163537
-0.016119
-0.0157215
-0.0151978
-0.0145571
-0.0138356
-0.0130496
-0.0122269
-0.0113867
-0.0105472
-0.00972514
-0.00891944
-0.00812726
-0.0073239
-0.00651857
-0.00569105
-0.00481869
-0.00386762
-0.00280388
-0.00160401
-0.000259498
0.00121593
0.00278251
0.0043838
0.00594444
0.00733891
0.00848227
0.00963907
0.011369
0.0148802
0.0213978
0.0321766
0.0464357
0.0616029
0.0738498
0.0800612
0.077375
0.0697221
0.0564206
0.0443047
0.0365683
0.0351597
0.00661067
-0.00671175
-0.00754869
-0.00844736
-0.00938977
-0.0103924
-0.011452
-0.012583
-0.01377
-0.0150206
-0.016304
-0.0176199
-0.0189223
-0.0202032
-0.0214068
-0.0225209
-0.0234891
-0.0243013
-0.0249102
-0.0253152
-0.0254867
-0.025436
-0.0251538
-0.0246625
-0.0239687
-0.0230974
-0.0220672
-0.020904
-0.0196315
-0.0182673
-0.0168102
-0.015281
-0.0136771
-0.0120117
-0.0102752
-0.00845229
-0.00652966
-0.00450692
-0.00240016
-0.000250711
0.00187248
0.00388165
0.00566432
0.00702659
0.00779565
0.0081317
0.00848432
0.00997034
0.0138561
0.0216593
0.0331356
0.0464673
0.0584194
0.0659678
0.0658123
0.0608656
0.0494332
0.0380785
0.0316576
0.0320994
0.00699893
-0.00949869
-0.0101754
-0.0108738
-0.011585
-0.0123265
-0.0131015
-0.0139366
-0.014831
-0.0158134
-0.0168734
-0.0180354
-0.0192734
-0.0206005
-0.0219709
-0.0233813
-0.0247697
-0.0261179
-0.0273572
-0.0284635
-0.0293754
-0.0300722
-0.0305109
-0.0306821
-0.0305638
-0.0301564
-0.0294611
-0.0284889
-0.0272608
-0.025789
-0.024094
-0.0221801
-0.0200884
-0.0178329
-0.0154272
-0.0128789
-0.0101998
-0.0074179
-0.00458082
-0.00176376
0.000926623
0.00336376
0.0053856
0.00672581
0.00711312
0.00659087
0.00546582
0.0047092
0.00552677
0.00957916
0.0170732
0.0269441
0.036733
0.0438768
0.0449788
0.0423393
0.0333452
0.0241654
0.0211297
0.0253325
0.00672562
-0.0120124
-0.0125378
-0.0130552
-0.0135637
-0.0140679
-0.0145702
-0.0150897
-0.0156299
-0.0162198
-0.0168635
-0.0175962
-0.0184173
-0.0193593
-0.0204087
-0.0215828
-0.0228481
-0.0241991
-0.0255812
-0.0269672
-0.0282895
-0.0295078
-0.0305546
-0.0313893
-0.0319556
-0.0322199
-0.0321485
-0.0317252
-0.0309441
-0.0298048
-0.0283024
-0.0264642
-0.0243044
-0.0218596
-0.0191514
-0.0162049
-0.0130538
-0.00975229
-0.00637811
-0.00304058
0.000116304
0.00292389
0.00516859
0.00651241
0.00659622
0.00534619
0.002928
0.000123149
-0.00199523
-0.00176905
0.00131164
0.00684153
0.0131757
0.0184416
0.0196295
0.0186843
0.0124002
0.00646236
0.00858184
0.0183084
0.00717343
-0.0141317
-0.0145844
-0.0150135
-0.0154188
-0.0157964
-0.0161405
-0.0164628
-0.0167585
-0.0170514
-0.0173413
-0.0176653
-0.0180274
-0.0184737
-0.0190062
-0.0196677
-0.0204493
-0.0213762
-0.0224198
-0.0235784
-0.0248011
-0.0260577
-0.0272808
-0.0284204
-0.0294026
-0.0301677
-0.0306534
-0.0308093
-0.0306004
-0.0299916
-0.0289674
-0.0275086
-0.0256433
-0.0233854
-0.0207592
-0.0177952
-0.0145374
-0.0110558
-0.00744772
-0.00384647
-0.000423665
0.00261972
0.00502669
0.00640647
0.00633335
0.00464345
0.00137529
-0.0028804
-0.00724497
-0.010172
-0.0109953
-0.00962833
-0.00698292
-0.00415618
-0.00363042
-0.00341397
-0.0070447
-0.00924846
-0.00150745
0.013641
0.0087724
-0.0161594
-0.0165183
-0.0168532
-0.0171719
-0.0174622
-0.0177158
-0.0179337
-0.0181047
-0.0182386
-0.0183278
-0.0183954
-0.0184418
-0.0185044
-0.0185914
-0.0187485
-0.0189857
-0.0193447
-0.0198268
-0.020456
-0.0212134
-0.0220945
-0.0230553
-0.02406
-0.0250412
-0.0259367
-0.0266711
-0.0271772
-0.0273932
-0.0272621
-0.0267265
-0.0257665
-0.02436
-0.0225165
-0.020243
-0.017562
-0.0145136
-0.0111695
-0.00763122
-0.00404072
-0.000577955
0.00253909
0.00503479
0.00648738
0.00644783
0.00468154
0.00115071
-0.00375381
-0.00934321
-0.0142925
-0.0179242
-0.0198347
-0.020364
-0.0199015
-0.0202301
-0.0192628
-0.0206487
-0.0196106
-0.00704922
0.0123419
0.0115859
-0.0177124
-0.0180249
-0.0183134
-0.0185887
-0.0188378
-0.0190499
-0.019224
-0.0193439
-0.0194145
-0.0194187
-0.0193717
-0.0192613
-0.0191164
-0.0189337
-0.0187548
-0.018586
-0.0184753
-0.0184336
-0.0185043
-0.0186911
-0.0190179
-0.01947
-0.0200391
-0.0206826
-0.0213549
-0.0219915
-0.0225248
-0.0228886
-0.0230074
-0.0228184
-0.0222537
-0.0212946
-0.019913
-0.0181002
-0.0158602
-0.0132193
-0.0102356
-0.00700152
-0.00364747
-0.000346145
0.00269454
0.00519785
0.00675216
0.00690771
0.00540655
0.00214843
-0.00262838
-0.00844752
-0.0142342
-0.0194052
-0.023409
-0.0262012
-0.0275875
-0.0287808
-0.0274326
-0.0272415
-0.02385
-0.00795013
0.0138781
0.0150844
-0.0192541
-0.0194772
-0.0196799
-0.0198818
-0.0200672
-0.020228
-0.0203599
-0.0204469
-0.0204874
-0.0204622
-0.020376
-0.0202112
-0.0199822
-0.0196785
-0.0193264
-0.0189263
-0.018516
-0.018107
-0.017744
-0.0174424
-0.0172415
-0.0171496
-0.0171841
-0.0173302
-0.0175701
-0.0178608
-0.0181548
-0.0183941
-0.018511
-0.0184252
-0.0180832
-0.0174251
-0.0164189
-0.0150331
-0.0132506
-0.0110778
-0.00855116
-0.00574292
-0.00275838
0.000254
0.00311461
0.00557064
0.00724584
0.00772427
0.0067414
0.00417652
0.00012448
-0.00510561
-0.0107371
-0.0163431
-0.021356
-0.0255122
-0.0282067
-0.0300908
-0.0286878
-0.0276696
-0.023135
-0.00546608
0.0174013
0.0189899
-0.0203989
-0.0205808
-0.0207404
-0.020901
-0.0210474
-0.0211721
-0.0212728
-0.0213342
-0.0213562
-0.021318
-0.0212235
-0.0210497
-0.0208069
-0.0204739
-0.0200689
-0.0195789
-0.0190318
-0.0184279
-0.017806
-0.0171785
-0.0165886
-0.0160547
-0.0156103
-0.0152626
-0.0150179
-0.0148609
-0.0147673
-0.0147027
-0.0146108
-0.0144345
-0.0140983
-0.0135644
-0.0127793
-0.0116996
-0.010294
-0.00854517
-0.00646962
-0.00410929
-0.00154115
0.00112586
0.00374993
0.00612177
0.00792027
0.00878086
0.00845639
0.00681111
0.00384386
-0.000302047
-0.00511622
-0.0103574
-0.0155327
-0.0202967
-0.0237726
-0.0262551
-0.0250814
-0.0239202
-0.019174
-0.00100785
0.0217918
0.0228054
-0.0216053
-0.0217025
-0.0217794
-0.0218665
-0.0219469
-0.0220161
-0.0220702
-0.0220965
-0.0220923
-0.0220396
-0.0219384
-0.0217675
-0.0215304
-0.0212055
-0.0208009
-0.0202988
-0.0197143
-0.0190394
-0.0183001
-0.0175017
-0.0166805
-0.0158547
-0.015062
-0.0143204
-0.0136531
-0.0130644
-0.0125556
-0.0121132
-0.0117083
-0.0112885
-0.0108167
-0.0102369
-0.00951155
-0.0085898
-0.0074285
-0.00599594
-0.00428692
-0.00231794
-0.000132043
0.0022019
0.00458828
0.00686957
0.00878997
0.0100504
0.0104223
0.00978011
0.0080316
0.00521069
0.0015631
-0.00285923
-0.00768557
-0.0125727
-0.016503
-0.0194423
-0.018706
-0.0179186
-0.0137572
0.00407462
0.0263822
0.0264223
-0.0224245
-0.0224934
-0.0225389
-0.0225934
-0.0226404
-0.0226756
-0.0226974
-0.0226939
-0.0226657
-0.0225949
-0.0224853
-0.0223144
-0.0220884
-0.0217818
-0.0214023
-0.020925
-0.0203601
-0.0196891
-0.0189296
-0.0180757
-0.0171544
-0.0161768
-0.0151767
-0.014174
-0.0131977
-0.0122654
-0.0113929
-0.0105894
-0.00984216
-0.00913349
-0.00841793
-0.00768506
-0.00688793
-0.0059869
-0.00493292
-0.00368844
-0.00223079
-0.000556905
0.00132248
0.00337524
0.00555317
0.00774981
0.00978029
0.011407
0.0124326
0.012731
0.0121602
0.0106493
0.0082423
0.00481311
0.000595743
-0.00412722
-0.00827107
-0.0116399
-0.0114747
-0.0113878
-0.00814859
0.00894608
0.0305228
0.0295329
-0.0233907
-0.0233831
-0.0233532
-0.0233392
-0.0233234
-0.0233035
-0.0232764
-0.023232
-0.0231692
-0.0230727
-0.0229442
-0.0227649
-0.0225383
-0.0222428
-0.0218823
-0.0214338
-0.0209014
-0.0202642
-0.0195305
-0.0186875
-0.0177516
-0.0167251
-0.0156335
-0.0144913
-0.0133269
-0.01216
-0.011017
-0.00991719
-0.00886965
-0.00785964
-0.00689015
-0.00593671
-0.00498623
-0.00400053
-0.00293746
-0.00175535
-0.000426386
0.00107001
0.00274427
0.00459965
0.00662441
0.0087652
0.0108954
0.0128451
0.0144314
0.0155502
0.0159999
0.0156636
0.0143939
0.0119278
0.00835122
0.00387589
-0.000407426
-0.00412753
-0.00458779
-0.00534815
-0.00324544
0.013036
0.0340397
0.0322256
-0.0239981
-0.0239724
-0.0239201
-0.0238814
-0.023838
-0.0237881
-0.0237296
-0.0236538
-0.0235615
-0.0234386
-0.0232893
-0.0230954
-0.0228637
-0.0225719
-0.0222266
-0.0218032
-0.0213061
-0.020711
-0.0200228
-0.0192228
-0.0183198
-0.017308
-0.0162036
-0.0150141
-0.013761
-0.0124628
-0.0111455
-0.00983704
-0.00855048
-0.00729918
-0.00607449
-0.00489628
-0.00375076
-0.0026155
-0.00145812
-0.000240477
0.00106578
0.00249012
0.00405829
0.00579893
0.00773038
0.0098413
0.0120582
0.0142635
0.016295
0.018054
0.0193128
0.0199059
0.019563
0.0179066
0.0148964
0.0106638
0.00628883
0.00220581
0.00112044
-0.000503743
0.000578089
0.0161767
0.0367043
0.034352
-0.0247812
-0.0246861
-0.0245658
-0.0244653
-0.0243651
-0.024265
-0.0241612
-0.0240461
-0.0239181
-0.0237655
-0.0235896
-0.0233762
-0.0231292
-0.0228314
-0.0224871
-0.0220766
-0.0216016
-0.0210409
-0.020395
-0.0196446
-0.0187916
-0.0178251
-0.0167529
-0.0155744
-0.014304
-0.0129535
-0.0115474
-0.0101112
-0.00866643
-0.00722019
-0.00579781
-0.00440723
-0.0030601
-0.00174578
-0.000440507
0.000883924
0.00225393
0.00369871
0.00525459
0.00696369
0.00886763
0.010984
0.0132836
0.0156884
0.0180518
0.0202816
0.0221267
0.0234032
0.0237415
0.0226903
0.0200847
0.0159985
0.0114869
0.00709049
0.00542337
0.00300679
0.00315264
0.0182963
0.0386632
0.036105
-0.0251853
-0.0250874
-0.0249596
-0.0248484
-0.0247329
-0.0246136
-0.024487
-0.0243469
-0.0241931
-0.0240146
-0.0238153
-0.023581
-0.0233187
-0.0230107
-0.0226646
-0.0222599
-0.0218014
-0.0212667
-0.0206574
-0.0199526
-0.0191516
-0.0182399
-0.017219
-0.0160828
-0.0148375
-0.0134896
-0.0120558
-0.0105607
-0.00901907
-0.00745217
-0.00586645
-0.00430296
-0.00277004
-0.00127182
0.00020414
0.00167711
0.00316602
0.00469753
0.00630985
0.00805286
0.00997984
0.0121289
0.014502
0.0170488
0.0196353
0.0221682
0.0243888
0.0260952
0.0268702
0.0262055
0.0238436
0.0198065
0.0151355
0.0104022
0.00821233
0.0051128
0.00458803
0.0195268
0.0398811
0.0373734
-0.025917
-0.0257532
-0.0255593
-0.0253872
-0.0252147
-0.0250443
-0.0248705
-0.0246886
-0.0244957
-0.0242832
-0.0240517
-0.0237905
-0.0235032
-0.0231772
-0.0228169
-0.0224075
-0.0219509
-0.0214296
-0.0208431
-0.0201726
-0.0194147
-0.0185537
-0.0175871
-0.0165038
-0.0153049
-0.013989
-0.0125685
-0.0110591
-0.00947634
-0.00782571
-0.00613929
-0.00443586
-0.00274542
-0.0010762
0.000574775
0.00221745
0.00386186
0.00552867
0.00725325
0.00908611
0.0110841
0.0132962
0.0157444
0.0183959
0.0211222
0.0238304
0.0262534
0.0281889
0.0291881
0.0287185
0.026428
0.0223161
0.0174129
0.0123791
0.00973216
0.006072
0.00500719
0.0199698
0.0405863
0.0383533
-0.0263968
-0.0262095
-0.0259878
-0.0257859
-0.0255814
-0.0253776
-0.0251699
-0.0249547
-0.0247304
-0.0244881
-0.0242302
-0.0239452
-0.023639
-0.0232972
-0.0229269
-0.0225119
-0.0220569
-0.0215435
-0.0209734
-0.0203275
-0.0196032
-0.0187838
-0.0178652
-0.0168335
-0.0156849
-0.0144138
-0.0130251
-0.0115309
-0.00993589
-0.00825418
-0.00649141
-0.0046914
-0.00287319
-0.0010537
0.000762511
0.00257686
0.00439076
0.00621725
0.0080857
0.0100425
0.0121413
0.0144346
0.016954
0.0196757
0.0224716
0.0252469
0.0277312
0.0297219
0.0307705
0.0303289
0.02798
0.0237042
0.0185372
0.0131723
0.0101227
0.00600893
0.0046413
0.0198124
0.0407529
0.0389234
-0.0267277
-0.0265262
-0.0262896
-0.0260745
-0.0258571
-0.0256406
-0.0254195
-0.0251903
-0.02495
-0.0246914
-0.0244154
-0.0241129
-0.0237881
-0.0234302
-0.0230446
-0.0226192
-0.022157
-0.0216431
-0.0210783
-0.020446
-0.0197429
-0.018953
-0.0180713
-0.017082
-0.015979
-0.0147522
-0.0134032
-0.0119361
-0.0103547
-0.00865483
-0.00686022
-0.00498791
-0.00307009
-0.00112307
0.00084353
0.00282428
0.00481268
0.00681373
0.00884898
0.010957
0.0131836
0.0155787
0.0181758
0.0209524
0.0237764
0.0265517
0.0290018
0.0309319
0.0318998
0.0313638
0.0288366
0.0243023
0.0188066
0.0131322
0.00972363
0.00524358
0.00364313
0.0191599
0.0405821
0.0392775
-0.0269701
-0.0267603
-0.026514
-0.0262897
-0.0260619
-0.0258351
-0.0256029
-0.0253629
-0.0251119
-0.0248428
-0.0245565
-0.0242439
-0.0239098
-0.0235427
-0.0231493
-0.0227167
-0.0222496
-0.0217333
-0.02117
-0.0205439
-0.0198527
-0.0190814
-0.0182245
-0.0172667
-0.0161996
-0.0150121
-0.0137002
-0.0122659
-0.0107027
-0.0090125
-0.00719007
-0.00527262
-0.0032765
-0.00122293
0.000875811
0.00300938
0.00516496
0.00733993
0.00954756
0.0118168
0.0141823
0.0166876
0.0193619
0.022179
0.0249991
0.0277232
0.0300688
0.0318485
0.032642
0.0319153
0.0291343
0.024285
0.0184366
0.0124134
0.00867053
0.00388158
0.00220457
0.0181524
0.0400176
0.0392947
-0.0273248
-0.0270967
-0.0268327
-0.0265924
-0.02635
-0.0261094
-0.0258634
-0.0256097
-0.0253439
-0.0250598
-0.0247573
-0.0244289
-0.0240777
-0.0236949
-0.0232855
-0.0228395
-0.02236
-0.0218347
-0.0212652
-0.0206375
-0.019949
-0.0191862
-0.0183438
-0.0174064
-0.0163657
-0.0152079
-0.0139282
-0.0125222
-0.0109832
-0.00929473
-0.00746929
-0.00551431
-0.00345717
-0.00131443
0.00090075
0.0031749
0.00549026
0.00783755
0.0102217
0.012661
0.0151776
0.0178055
0.0205659
0.0234244
0.0262316
0.0288841
0.0310915
0.032675
0.0332349
0.0322578
0.0291546
0.0239287
0.0176747
0.0113101
0.00724473
0.0021823
0.000424166
0.0168502
0.0392405
0.0391691
-0.0277353
-0.0274855
-0.0271986
-0.0269363
-0.026672
-0.0264105
-0.0261441
-0.0258713
-0.0255874
-0.0252863
-0.0249676
-0.0246236
-0.0242578
-0.0238605
-0.0234374
-0.0229779
-0.022486
-0.0219493
-0.0213703
-0.0207357
-0.0200436
-0.0192816
-0.0184446
-0.0175182
-0.0164933
-0.015356
-0.0140984
-0.0127153
-0.0111916
-0.00951793
-0.00767874
-0.00569965
-0.00359175
-0.00137262
0.000944517
0.00334474
0.00580695
0.00831639
0.0108704
0.0134769
0.0161448
0.0188974
0.0217452
0.024643
0.02743
0.0299973
0.0320443
0.0333988
0.0336879
0.0324147
0.0289545
0.023322
0.0166453
0.009892
0.00549949
0.000174355
-0.00157792
0.0153362
0.0381692
0.0387691
-0.0282585
-0.0279818
-0.0276673
-0.0273788
-0.0270894
-0.0268039
-0.0265143
-0.0262191
-0.0259126
-0.0255895
-0.0252483
-0.0248826
-0.0244942
-0.0240758
-0.0236312
-0.0231523
-0.0226414
-0.0220883
-0.0214942
-0.0208477
-0.0201462
-0.0193784
-0.0185397
-0.0176155
-0.0165972
-0.0154701
-0.0142262
-0.0128564
-0.0113466
-0.00967179
-0.0078325
-0.00582655
-0.00367409
-0.00138703
0.00102263
0.00353949
0.00614037
0.00880623
0.0115276
0.0143022
0.0171261
0.0200113
0.0229564
0.025903
0.028679
0.0311677
0.0330567
0.0341773
0.0341791
0.0325875
0.0287347
0.0226559
0.0155132
0.00836547
0.00363173
-0.00195953
-0.00376081
0.0136342
0.0369524
0.0382581
-0.028742
-0.0284479
-0.0281135
-0.0278049
-0.0274941
-0.0271873
-0.026876
-0.0265597
-0.0262327
-0.0258899
-0.0255298
-0.0251454
-0.0247396
-0.0243034
-0.0238419
-0.0233456
-0.0228182
-0.0222486
-0.0216391
-0.0209784
-0.0202642
-0.0194862
-0.0186394
-0.0177105
-0.0166906
-0.0155659
-0.0143261
-0.0129627
-0.0114551
-0.00978544
-0.0079278
-0.00589932
-0.0037032
-0.00135297
0.00114131
0.00376488
0.00649365
0.00930537
0.0121848
0.0151206
0.0180965
0.0211135
0.0241576
0.0271569
0.0299272
0.0323425
0.0340757
0.03496
0.0346677
0.03274
0.0284815
0.02194
0.0143175
0.00672324
0.00162448
-0.0042517
-0.00605948
0.0117879
0.0354779
0.0374661
-0.0292677
-0.0289567
-0.0286038
-0.0282776
-0.0279494
-0.0276252
-0.0272961
-0.0269615
-0.026615
-0.0262522
-0.0258708
-0.0254652
-0.0250367
-0.0245788
-0.0240947
-0.0235777
-0.0230292
-0.0224406
-0.0218125
-0.0211349
-0.020405
-0.0196129
-0.0187537
-0.0178145
-0.016787
-0.0156565
-0.0144138
-0.0130471
-0.0115377
-0.00985288
-0.00798564
-0.00592519
-0.00368553
-0.00127402
0.00130171
0.00402789
0.00688023
0.00983413
0.0128693
0.015966
0.019097
0.0222522
0.0254052
0.0284704
0.0312519
0.0336116
0.0352073
0.035869
0.0352869
0.0330193
0.0283354
0.0213027
0.0131616
0.00510711
-0.000386236
-0.00657083
-0.00846701
0.00980189
0.0338674
0.0365089
-0.0297266
-0.0294062
-0.0290416
-0.0287033
-0.0283615
-0.0280235
-0.0276796
-0.0273305
-0.0269694
-0.0265922
-0.0261963
-0.0257761
-0.0253331
-0.02486
-0.0243609
-0.0238279
-0.0232635
-0.0226581
-0.0220134
-0.0213191
-0.0205725
-0.0197642
-0.0188894
-0.0179356
-0.0168945
-0.0157522
-0.0144981
-0.0131213
-0.0115973
-0.00990295
-0.0080057
-0.00591467
-0.00362848
-0.00115506
0.00149983
0.00432407
0.00729373
0.0103826
0.0135664
0.0168181
0.0201
0.0233924
0.0266563
0.0297933
0.0325957
0.0349119
0.0363811
0.0368293
0.0359622
0.0333487
0.0282348
0.0207003
0.012027
0.00345968
-0.0024626
-0.00898691
-0.0109508
0.0076926
0.0320002
0.0351764
-0.0301956
-0.029865
-0.0294894
-0.0291413
-0.0287902
-0.0284433
-0.0280902
-0.0277316
-0.0273594
-0.0269705
-0.026561
-0.0261269
-0.0256677
-0.0251789
-0.0246622
-0.0241126
-0.0235304
-0.0229079
-0.0222455
-0.0215338
-0.0207694
-0.0199431
-0.0190502
-0.018078
-0.017019
-0.0158587
-0.0145879
-0.0131931
-0.0116529
-0.00993039
-0.00801144
-0.0058793
-0.0035431
-0.00100531
0.0017305
0.00465366
0.007741
0.0109652
0.0142983
0.0177069
0.0211439
0.0245805
0.0279655
0.0311886
0.0340306
0.0363233
0.0376882
0.0379411
0.0367999
0.0338425
0.028285
0.0202255
0.0109843
0.00188474
-0.00450483
-0.0114002
-0.0135201
0.00545234
0.0299948
0.0336138
-0.0305725
-0.0302405
-0.0298618
-0.0295108
-0.0291556
-0.0288046
-0.0284467
-0.0280836
-0.0277068
-0.0273131
-0.0268986
-0.0264586
-0.0259935
-0.025497
-0.0249721
-0.0244121
-0.0238185
-0.0231828
-0.0225058
-0.021778
-0.020996
-0.0201511
-0.0192381
-0.0182454
-0.0171649
-0.0159838
-0.0146911
-0.013275
-0.0117087
-0.00996451
-0.00800332
-0.00583007
-0.00343805
-0.000832274
0.00198591
0.00500763
0.00821068
0.0115671
0.015046
0.0186083
0.0221985
0.0257797
0.0292888
0.0326045
0.0354958
0.0377776
0.03905
0.0391188
0.0377105
0.0344075
0.0284036
0.0198092
0.00998565
0.000303146
-0.00659244
-0.0138944
-0.0161577
0.00308259
0.0277321
0.031711
-0.0309949
-0.0306584
-0.0302746
-0.0299198
-0.0295615
-0.029208
-0.0288473
-0.0284811
-0.0281
-0.0277014
-0.0272801
-0.0268328
-0.0263582
-0.0258521
-0.0253157
-0.0247443
-0.0241377
-0.0234886
-0.0227967
-0.0220532
-0.0212538
-0.02039
-0.0194568
-0.0184423
-0.0173394
-0.0161345
-0.0148179
-0.013375
-0.011782
-0.00999742
-0.00800282
-0.00577646
-0.00332432
-0.000646085
0.00225905
0.00538371
0.0087067
0.0121995
0.0158286
0.0195498
0.0232999
0.0270341
0.0306786
0.0341013
0.0370593
0.0393488
0.0405494
0.0404516
0.0387881
0.0351428
0.0286807
0.0195299
0.00908979
-0.0011975
-0.00864158
-0.0163836
-0.0188743
0.000571409
0.0253339
0.0296754
-0.0313801
-0.0310438
-0.0306585
-0.0303022
-0.0299414
-0.0295854
-0.0292219
-0.0288535
-0.0284703
-0.02807
-0.0276472
-0.027198
-0.0267215
-0.026212
-0.0256715
-0.025094
-0.0244799
-0.0238209
-0.0231174
-0.0223601
-0.0215448
-0.0206633
-0.0197101
-0.018674
-0.0175474
-0.0163175
-0.0149732
-0.0135011
-0.0118723
-0.0100553
-0.00800733
-0.00572854
-0.00321045
-0.000454579
0.00254125
0.00577137
0.00921565
0.0128454
0.0166246
0.0205048
0.0244155
0.0283051
0.0320893
0.0356256
0.0386592
0.0409675
0.0421064
0.041851
0.0399373
0.035948
0.0290243
0.0193061
0.00823412
-0.00270535
-0.0107381
-0.0189574
-0.0216569
-0.00209638
0.0227245
0.0273528
-0.031818
-0.0314791
-0.0310906
-0.0307325
-0.0303708
-0.0300145
-0.0296507
-0.0292819
-0.0288972
-0.028495
-0.0280685
-0.0276153
-0.0271325
-0.0266169
-0.0260682
-0.0254828
-0.0248588
-0.0241897
-0.0234743
-0.022704
-0.0218736
-0.0209751
-0.0200027
-0.0189448
-0.0177941
-0.0165371
-0.0151638
-0.0136585
-0.0119949
-0.0101293
-0.00803779
-0.00569559
-0.00310636
-0.000267143
0.00282582
0.00616813
0.00974069
0.0135146
0.0174516
0.021499
0.0255797
0.0296351
0.0335713
0.0372354
0.040361
0.0427049
0.0438
0.0434009
0.0412469
0.0369144
0.0295182
0.0192122
0.00747594
-0.00414037
-0.012807
-0.0215409
-0.0245124
-0.00493103
0.0200421
0.0248459
-0.0322031
-0.0318697
-0.031485
-0.031131
-0.0307721
-0.0304189
-0.0300574
-0.0296914
-0.0293095
-0.02891
-0.0284862
-0.0280349
-0.027554
-0.0270384
-0.026489
-0.0259005
-0.0252721
-0.024596
-0.0238718
-0.0230903
-0.0222463
-0.0213317
-0.0203401
-0.0192604
-0.0180847
-0.0168005
-0.0153958
-0.0138563
-0.012151
-0.010245
-0.00809029
-0.00568524
-0.00301827
-9.0018e-05
0.00310487
0.00656353
0.0102679
0.0141891
0.0182868
0.0225045
0.0267586
0.0309844
0.035078
0.0388771
0.0421031
0.0444922
0.0455511
0.0450154
0.0426235
0.0379454
0.0300717
0.0191649
0.0067478
-0.00558934
-0.0149288
-0.0242204
-0.0274333
-0.00793019
0.0171249
0.0219645
-0.0326778
-0.0323465
-0.0319634
-0.0316122
-0.0312568
-0.0309075
-0.0305496
-0.0301867
-0.0298065
-0.029408
-0.0289832
-0.0285303
-0.0280454
-0.0275257
-0.02697
-0.0263754
-0.025739
-0.0250547
-0.0243202
-0.0235274
-0.0226697
-0.021739
-0.0207287
-0.0196269
-0.0184264
-0.0171134
-0.0156767
-0.0140995
-0.0123532
-0.0103898
-0.00818241
-0.00570303
-0.00295384
6.9105e-05
0.00337287
0.00695582
0.0108008
0.0148787
0.0191473
0.0235461
0.0279854
0.0323939
0.0366586
0.0406074
0.0439496
0.0463991
0.0474375
0.0467761
0.0441545
0.0391305
0.0307681
0.0192408
0.00611083
-0.00697312
-0.0170312
-0.0269244
-0.0304308
-0.011076
0.0140247
0.0188629
-0.0331511
-0.032827
-0.0324491
-0.032103
-0.0317512
-0.0314055
-0.0310505
-0.0306911
-0.0303141
-0.0299191
-0.0294975
-0.0290474
-0.028565
-0.0280461
-0.0274905
-0.0268938
-0.0262539
-0.0255636
-0.0248214
-0.0240182
-0.0231476
-0.0222014
-0.0211723
-0.0200485
-0.018822
-0.0174793
-0.0160078
-0.0143914
-0.0125967
-0.0105854
-0.00830659
-0.00575493
-0.00291826
0.000204922
0.00362275
0.00733509
0.0113257
0.0155654
0.02001
0.0245954
0.0292258
0.0338238
0.0382666
0.0423731
0.0458401
0.0483589
0.049383
0.0486009
0.0457491
0.0403752
0.0315175
0.0193551
0.00549426
-0.0083771
-0.0191904
-0.0297351
-0.0335097
-0.014373
0.0106243
0.0154292
-0.0337037
-0.0333841
-0.03301
-0.0326688
-0.0323224
-0.0319825
-0.031633
-0.0312785
-0.0309051
-0.0305127
-0.0300919
-0.0296417
-0.0291568
-0.0286353
-0.028075
-0.0274736
-0.026827
-0.0261297
-0.0253784
-0.0245649
-0.0236813
-0.0227196
-0.0216717
-0.0205252
-0.0192722
-0.0178981
-0.0163912
-0.0147328
-0.0128921
-0.0108186
-0.00848023
-0.00584662
-0.00291822
0.000310828
0.00385009
0.00770051
0.0118467
0.0162593
0.020892
0.025677
0.0305125
0.0353142
0.0399503
0.04423
0.0478376
0.05044
0.0514642
0.0505697
0.0474936
0.0417668
0.0324026
0.0195866
0.00496327
-0.00972429
-0.0213391
-0.0325858
-0.0366846
-0.0178197
0.00704769
0.0118496
-0.0342202
-0.0339126
-0.0335488
-0.0332176
-0.0328798
-0.0325481
-0.032206
-0.0318591
-0.031493
-0.0311078
-0.0306937
-0.0302495
-0.02977
-0.0292522
-0.0286944
-0.0280932
-0.0274452
-0.0267438
-0.0259863
-0.025164
-0.0242687
-0.0232921
-0.0222256
-0.0210566
-0.0197768
-0.0183719
-0.0168285
-0.0151289
-0.0132372
-0.0111118
-0.008696
-0.005983
-0.00295746
0.00038267
0.00404861
0.00804274
0.0123504
0.0169425
0.0217702
0.0267624
0.0318111
0.0368254
0.0416636
0.0461259
0.0498829
0.0525781
0.0536079
0.0526051
0.0493021
0.0432182
0.0333385
0.0198525
0.00444667
-0.011095
-0.0235451
-0.0355486
-0.0399622
-0.0214389
0.00321366
0.00801986
-0.0348072
-0.0345077
-0.0341512
-0.0338283
-0.0334994
-0.0331768
-0.0328436
-0.032505
-0.0321459
-0.0317668
-0.0313571
-0.0309165
-0.0304385
-0.0299219
-0.0293633
-0.0287612
-0.0281104
-0.0274056
-0.0266426
-0.025813
-0.0249075
-0.0239176
-0.0228341
-0.021644
-0.0203389
-0.0189035
-0.017325
-0.0155827
-0.0136431
-0.0114509
-0.00897051
-0.0061679
-0.00304181
0.000414711
0.00421474
0.0083618
0.012842
0.0176258
0.0226623
0.0278765
0.0331543
0.0383975
0.0434548
0.0481162
0.0520389
0.0548409
0.0558903
0.0547863
0.0512609
0.0448156
0.0344094
0.020235
0.00401487
-0.0124123
-0.0257438
-0.0385584
-0.0433491
-0.0252253
-0.000766617
0.00411612
-0.0353546
-0.0350676
-0.0347223
-0.0344107
-0.034092
-0.0337799
-0.0334565
-0.0331283
-0.0327795
-0.032411
-0.0320115
-0.0315808
-0.0311124
-0.0306041
-0.030053
-0.0294565
-0.0288098
-0.0281066
-0.0273428
-0.0265096
-0.0255972
-0.024597
-0.0234989
-0.0222899
-0.020961
-0.0194966
-0.0178824
-0.0160984
-0.0141055
-0.011858
-0.00929528
-0.00640669
-0.00317552
0.000402725
0.00434246
0.00864871
0.0133082
0.0182916
0.0235453
0.0289907
0.0345077
0.0399908
0.0452781
0.0501494
0.0542474
0.057166
0.0582415
0.0570395
0.0532875
0.0464753
0.0355318
0.0206506
0.00359457
-0.0137542
-0.0279983
-0.0416814
-0.0468502
-0.0292002
-0.00498646
3.62806e-05
-0.0359032
-0.035629
-0.0352967
-0.0350001
-0.0346972
-0.0344013
-0.0340938
-0.0337811
-0.0334462
-0.0330907
-0.0327023
-0.0322825
-0.0318231
-0.0313242
-0.0307805
-0.0301919
-0.0295507
-0.0288522
-0.0280906
-0.0272573
-0.0263412
-0.0253336
-0.0242239
-0.0229981
-0.0216471
-0.0201543
-0.018506
-0.0166791
-0.0146369
-0.0123207
-0.00968909
-0.00670489
-0.00336458
0.000341283
0.00442885
0.00890428
0.013755
0.0189515
0.0244374
0.0301305
0.0359044
0.0416454
0.0471815
0.0522803
0.0565713
0.0596206
0.0607372
0.0594423
0.0554663
0.0482804
0.0367889
0.0211831
0.00325923
-0.0150469
-0.0302511
-0.0448589
-0.0504686
-0.033349
-0.0093543
-0.00405554
-0.0364365
-0.0361787
-0.0358651
-0.0355881
-0.0353042
-0.0350272
-0.0347379
-0.0344417
-0.0341221
-0.0337813
-0.0334079
-0.033003
-0.0325591
-0.0320748
-0.0315455
-0.0309696
-0.0303397
-0.0296501
-0.0288946
-0.0280644
-0.0271475
-0.0261351
-0.0250155
-0.0237748
-0.0224031
-0.020884
-0.0192014
-0.0173333
-0.0152374
-0.0128634
-0.0101443
-0.00706754
-0.0036124
0.000226829
0.00446833
0.00911987
0.0141697
0.0195881
0.0253162
0.0312678
0.0373103
0.0433221
0.0491198
0.0544585
0.0589539
0.0621442
0.0633098
0.0619246
0.0577195
0.0501538
0.038102
0.0217504
0.00293538
-0.0163635
-0.0325564
-0.0481477
-0.0542094
-0.0376927
-0.0139623
-0.00827273
-0.0373649
-0.037094
-0.0367645
-0.036472
-0.0361729
-0.0358826
-0.0355816
-0.0352765
-0.0349499
-0.0346057
-0.0342304
-0.0338278
-0.033387
-0.0329098
-0.0323875
-0.0318208
-0.031199
-0.0305175
-0.029768
-0.0289419
-0.0280256
-0.02701
-0.0258825
-0.0246284
-0.0232378
-0.0216927
-0.0199773
-0.0180663
-0.0159193
-0.013472
-0.0106786
-0.00749804
-0.00392403
5.47122e-05
0.00445872
0.00929707
0.0145587
0.0202139
0.0262006
0.0324286
0.0387593
0.0450616
0.0511416
0.0567391
0.0614583
0.0648038
0.0660346
0.0645639
0.0601305
0.0521773
0.0395543
0.0224396
0.00270021
-0.0176307
-0.0348614
-0.0514924
-0.0580715
-0.0422069
-0.018729
-0.0125026
-0.0378895
-0.0376651
-0.037379
-0.0371288
-0.0368678
-0.0366119
-0.0363409
-0.0360617
-0.0357579
-0.0354331
-0.0350763
-0.0346896
-0.0342654
-0.0338022
-0.0332948
-0.0327407
-0.0321315
-0.0314599
-0.0307188
-0.0298978
-0.0289835
-0.0279658
-0.0268314
-0.0255652
-0.024156
-0.0225854
-0.0208358
-0.018882
-0.0166779
-0.0141684
-0.0112818
-0.008001
-0.00430296
-0.000178557
0.0043947
0.00942757
0.0149099
0.0208118
0.0270686
0.0335853
0.0402179
0.0468252
0.0532032
0.059073
0.0640301
0.0675395
0.0688469
0.0672904
0.0626237
0.0542767
0.0410682
0.0231671
0.00247804
-0.0189197
-0.0372154
-0.0549438
-0.0620625
-0.0469135
-0.0237397
-0.016952
-0.0387371
-0.0385211
-0.0382418
-0.0379993
-0.0377464
-0.0375002
-0.0372393
-0.0369721
-0.0366802
-0.0363687
-0.0360237
-0.0356502
-0.0352372
-0.0347867
-0.0342898
-0.0337472
-0.0331476
-0.0324853
-0.0317515
-0.0309361
-0.0300242
-0.029005
-0.0278648
-0.0265867
-0.0251593
-0.0235628
-0.0217794
-0.019781