/*--------------------------------*- C++ -*----------------------------------*\
  =========                 |
  \\      /  F ield         | OpenFOAM: The Open Source CFD Toolbox
   \\    /   O peration     | Website:  https://openfoam.org
    \\  /    A nd           | Version:  6.0
     \\/     M anipulation  |
\*---------------------------------------------------------------------------*/
FoamFile
{
    version     2.0;
    format      ascii;
    class       surfaceScalarField;
    location    "14";
    object      phi;
}
// * * * * * * * * * * * * * * * * * * * * * * * * * * * * * * * * * * * * * //

dimensions      [0 3 -1 0 0 0 0];

internalField   nonuniform List<scalar> 
123526
(
-0.000157637
2.63384e-05
0.000158171
-0.000157053
2.85025e-05
-0.000156438
3.08423e-05
-0.000155756
3.33805e-05
-0.000155038
3.61326e-05
-0.00015425
3.91172e-05
-0.000153422
4.23544e-05
-0.000152523
4.58659e-05
-0.000151576
4.96742e-05
-0.000150556
5.38047e-05
-0.000149477
5.82858e-05
-0.000148321
6.31469e-05
-0.000147093
6.84206e-05
-0.000145777
7.41398e-05
-0.000144368
8.03447e-05
-0.000142861
8.70818e-05
-0.000141242
9.43947e-05
-0.000139498
0.000102326
-0.000137615
0.000110942
-0.000135588
0.000120303
-0.000133392
0.000130463
-0.000131011
0.000141503
-0.00012844
0.000153508
-0.000125638
0.000166537
-0.000122607
0.000180714
-0.00011931
0.000196119
-0.000115731
0.000212861
-0.000111842
0.000231072
-0.000107613
0.000250852
-0.000103016
0.000272369
-9.80004e-05
0.000295733
-9.25415e-05
0.000321127
-8.65855e-05
0.000348697
-8.00904e-05
0.000378623
-7.30075e-05
0.000411088
-6.5259e-05
0.000446248
-5.67963e-05
0.000484326
-4.75416e-05
0.00052547
-3.74124e-05
0.000569851
-2.63498e-05
0.000617626
-1.42823e-05
0.000668888
-1.15017e-06
0.000723667
1.30751e-05
0.000781959
2.83616e-05
0.000843616
4.46807e-05
0.000908356
6.19245e-05
0.000975679
8.00831e-05
0.00104474
9.91311e-05
0.00111414
0.000119315
0.00118151
0.000140849
0.00124346
0.000163803
0.00129551
0.00018794
0.00133269
0.000212912
0.00134984
0.000237422
0.00134221
0.000261331
0.00130119
0.000283177
0.00121857
0.000302341
0.00107584
0.000321018
0.000840529
0.000279852
0.000563294
-3.7031e-05
9.6602e-05
-0.000155944
2.59247e-05
0.000156387
-0.000155461
2.80405e-05
-0.000154939
3.03294e-05
-0.000154351
3.28096e-05
-0.00015371
3.54981e-05
-0.000152989
3.84132e-05
-0.000152206
4.15759e-05
-0.000151334
4.50084e-05
-0.000150389
4.8733e-05
-0.000149345
5.27756e-05
-0.000148221
5.71662e-05
-0.000146995
6.19336e-05
-0.000145679
6.71108e-05
-0.000144256
7.27277e-05
-0.00014273
7.88257e-05
-0.000141094
8.54543e-05
-0.000139346
9.26532e-05
-0.000137471
0.000100457
-0.000135463
0.000108938
-0.000133317
0.000118159
-0.000131012
0.000128159
-0.000128535
0.000139025
-0.000125878
0.00015085
-0.000123007
0.000163663
-0.000119917
0.000177622
-0.000116582
0.00019278
-0.000112976
0.000209251
-0.000109082
0.000227173
-0.000104861
0.000246625
-0.000100291
0.000267799
-9.53255e-05
0.000290766
-8.99352e-05
0.000315747
-8.40765e-05
0.00034285
-7.77067e-05
0.000372267
-7.07824e-05
0.000404179
-6.32281e-05
0.000438712
-5.50012e-05
0.00047612
-4.60262e-05
0.000516521
-3.62271e-05
0.00056008
-2.55461e-05
0.000606978
-1.39165e-05
0.000657295
-1.27663e-06
0.000711068
1.23911e-05
0.000768336
2.70542e-05
0.000828994
4.27068e-05
0.000892757
5.9302e-05
0.000959113
7.69227e-05
0.00102717
9.56433e-05
0.0010954
0.000115775
0.00116138
0.000137487
0.00122168
0.000160687
0.00127202
0.000184928
0.00130787
0.000209746
0.00132457
0.000233825
0.00131738
0.000257268
0.00127834
0.000278717
0.00119767
0.000297632
0.00105703
0.000313431
0.000824735
0.000336345
0.00054247
-6.42124e-05
0.000369393
-0.000153068
2.55744e-05
0.000153443
-0.000152668
2.76603e-05
-0.000152248
2.99194e-05
-0.000151782
3.23621e-05
-0.000151279
3.50049e-05
-0.000150712
3.78661e-05
-0.000150093
4.09656e-05
-0.00014939
4.4326e-05
-0.000148616
4.79687e-05
-0.000147737
5.19199e-05
-0.000146772
5.62106e-05
-0.000145684
6.08704e-05
-0.000144494
6.59323e-05
-0.000143168
7.14252e-05
-0.000141722
7.73916e-05
-0.000140132
8.38864e-05
-0.000138413
9.09457e-05
-0.000136536
9.85973e-05
-0.000134509
0.000106923
-0.00013232
0.000115985
-0.00012996
0.000125809
-0.000127414
0.00013649
-0.000124681
0.000148127
-0.000121729
0.00016072
-0.000118556
0.000174457
-0.00011514
0.000189369
-0.000111456
0.000205573
-0.000107492
0.000223213
-0.000103206
0.000242345
-9.85895e-05
0.000263183
-9.3583e-05
0.000285778
-8.81773e-05
0.000310359
-8.2325e-05
0.000337018
-7.59907e-05
0.000365953
-6.91356e-05
0.000397345
-6.16923e-05
0.00043129
-5.36243e-05
0.000468073
-4.48646e-05
0.000507781
-3.5343e-05
0.000550579
-2.50064e-05
0.00059666
-1.37882e-05
0.000646096
-1.62279e-06
0.000698917
1.15184e-05
0.000755211
2.56322e-05
0.000814884
4.07639e-05
0.000877633
5.69408e-05
0.000942914
7.43182e-05
0.00100978
9.30082e-05
0.00107665
0.000113285
0.00114106
0.000135185
0.00119973
0.000158441
0.00124862
0.000182475
0.00128357
0.000206832
0.00130027
0.000230311
0.00129349
0.000253235
0.00125578
0.000274364
0.00117663
0.000292953
0.00103858
0.000309175
0.000808609
0.000326212
0.00052552
-1.36102e-05
0.000274622
-0.000150986
2.51581e-05
0.000151421
-0.000150538
2.72244e-05
-0.000150076
2.94649e-05
-0.000149589
3.18855e-05
-0.000149079
3.45014e-05
-0.000148531
3.73294e-05
-0.00014795
4.03883e-05
-0.000147311
4.3699e-05
-0.000146621
4.72813e-05
-0.000145849
5.11604e-05
-0.000145003
5.53677e-05
-0.000144051
5.9932e-05
-0.000143001
6.48868e-05
-0.00014182
7.02585e-05
-0.000140513
7.60919e-05
-0.000139057
8.24463e-05
-0.000137457
8.9356e-05
-0.000135686
9.68419e-05
-0.000133746
0.000104995
-0.000131626
0.000113881
-0.000129316
0.000123512
-0.0001268
0.00013399
-0.00012408
0.000145421
-0.000121126
0.000157779
-0.000117938
0.000171283
-0.000114495
0.000185939
-0.000110777
0.000201866
-0.000106772
0.000219219
-0.000102447
0.000238026
-9.77814e-05
0.000258537
-9.27415e-05
0.000280751
-8.73042e-05
0.000304944
-8.14349e-05
0.000331171
-7.51009e-05
0.000359642
-6.82691e-05
0.000390537
-6.08789e-05
0.000423926
-5.29014e-05
0.000460123
-4.42766e-05
0.000499187
-3.49414e-05
0.000541277
-2.48463e-05
0.000586602
-1.39263e-05
0.000635217
-2.11077e-06
0.000687146
1.0648e-05
0.000742503
2.43888e-05
0.000801197
3.92014e-05
0.000862892
5.51641e-05
0.000927016
7.24637e-05
0.00099259
9.11996e-05
0.001058
0.000111571
0.00112085
0.000133483
0.00117799
0.000156545
0.00122564
0.000180132
0.00125992
0.000203852
0.00127662
0.000226659
0.00127055
0.000249049
0.00123422
0.000269838
0.00115662
0.000288211
0.00102068
0.000303621
0.000793689
0.000319197
0.000512117
5.53555e-06
0.000305814
-0.00014989
2.46651e-05
0.00015041
-0.000149356
2.67061e-05
-0.000148802
2.89213e-05
-0.000148219
3.13175e-05
-0.000147617
3.39086e-05
-0.000146984
3.67103e-05
-0.000146327
3.97399e-05
-0.000145629
4.30169e-05
-0.000144898
4.65582e-05
-0.000144108
5.03873e-05
-0.000143267
5.45349e-05
-0.000142344
5.90278e-05
-0.000141347
6.3898e-05
-0.000140238
6.91692e-05
-0.000139024
7.48867e-05
-0.000137673
8.1114e-05
-0.00013619
8.78824e-05
-0.000134538
9.5207e-05
-0.000132719
0.000103188
-0.000130715
0.000111894
-0.000128513
0.000121323
-0.000126096
0.000131588
-0.000123463
0.000142802
-0.000120583
0.000154914
-0.000117455
0.000168171
-0.00011406
0.000182559
-0.000110377
0.000198199
-0.000106399
0.000215252
-0.000102085
0.000233729
-9.74345e-05
0.000253894
-9.23934e-05
0.000275736
-8.69607e-05
0.000299533
-8.1096e-05
0.00032533
-7.47715e-05
0.000353341
-6.79587e-05
0.000383748
-6.06025e-05
0.000416593
-5.26793e-05
0.000452223
-4.41357e-05
0.000490665
-3.49139e-05
0.000532076
-2.49687e-05
0.000576675
-1.42368e-05
0.000624502
-2.64679e-06
0.00067557
9.86966e-06
0.00073
2.33881e-05
0.000787683
3.80264e-05
0.000848263
5.38852e-05
0.000911142
7.11516e-05
0.000975328
8.98892e-05
0.00103922
0.000110219
0.00110052
0.000131951
0.00115627
0.000154623
0.00120293
0.00017762
0.0012368
0.000200639
0.00125378
0.000222767
0.00124815
0.00024463
0.00121273
0.000265068
0.00113624
0.000283275
0.00100257
0.000297883
0.000779074
0.000311929
0.000497972
1.64201e-05
0.000299327
-0.00014907
2.41342e-05
0.000149608
-0.000148496
2.61378e-05
-0.000147885
2.83145e-05
-0.000147235
3.0674e-05
-0.000146552
3.32296e-05
-0.000145831
3.59972e-05
-0.000145082
3.89932e-05
-0.000144293
4.22361e-05
-0.000143475
4.57409e-05
-0.000142608
4.95292e-05
-0.000141702
5.36306e-05
-0.000140734
5.80694e-05
-0.000139709
6.28758e-05
-0.000138597
6.80691e-05
-0.0001374
7.36944e-05
-0.000136091
7.98177e-05
-0.000134667
8.64667e-05
-0.000133095
9.36489e-05
-0.00013137
0.000101473
-0.000129472
0.00011001
-0.000127383
0.000119246
-0.000125082
0.000129302
-0.000122566
0.000140299
-0.000119798
0.000152161
-0.000116778
0.000165166
-0.000113481
0.000179278
-0.00010989
0.000194621
-0.000105991
0.000211367
-0.000101753
0.000229501
-9.71579e-05
0.000249323
-9.21774e-05
0.00027077
-8.67918e-05
0.000294171
-8.09711e-05
0.000319531
-7.46874e-05
0.00034708
-6.79146e-05
0.000376998
-6.06011e-05
0.000409304
-5.27271e-05
0.000444376
-4.42437e-05
0.000482212
-3.50976e-05
0.000522963
-2.52474e-05
0.000566863
-1.4633e-05
0.00061393
-3.18288e-06
0.000664169
9.18484e-06
0.000717689
2.25725e-05
0.000774359
3.71091e-05
0.000833808
5.28988e-05
0.000895434
7.01093e-05
0.000958242
8.8764e-05
0.00102069
0.000108919
0.00108057
0.000130322
0.00113511
0.000152487
0.00118096
0.000174841
0.00121453
0.000197161
0.00123167
0.000218669
0.00122672
0.000240059
0.0011922
0.000260193
0.00111693
0.00027824
0.000985071
0.000292153
0.000765768
0.000304098
0.000488152
2.6668e-05
0.000299002
-0.000148052
2.36276e-05
0.000148582
-0.000147487
2.55857e-05
-0.000146876
2.77135e-05
-0.000146215
3.00242e-05
-0.000145509
3.25315e-05
-0.000144752
3.52515e-05
-0.000143953
3.82013e-05
-0.000143103
4.13994e-05
-0.000142215
4.48593e-05
-0.000141274
4.86018e-05
-0.000140293
5.26561e-05
-0.000139253
5.70443e-05
-0.000138165
6.17946e-05
-0.000137002
6.69222e-05
-0.000135771
7.24707e-05
-0.000134445
7.85082e-05
-0.000133028
8.50575e-05
-0.000131482
9.2118e-05
-0.000129805
9.98059e-05
-0.000127974
0.000108192
-0.000125968
0.000117251
-0.000123765
0.000127112
-0.000121356
0.000137903
-0.000118703
0.000149522
-0.000115802
0.000162279
-0.000112626
0.000176117
-0.000109152
0.000191162
-0.000105369
0.000207596
-0.000101237
0.000225386
-9.67518e-05
0.000244848
-9.18628e-05
0.000265907
-8.65689e-05
0.000288898
-8.0831e-05
0.000313815
-7.46234e-05
0.000340893
-6.79206e-05
0.000370317
-6.06726e-05
0.000402078
-5.28618e-05
0.000436586
-4.44418e-05
0.000473812
-3.53626e-05
0.000513903
-2.55858e-05
0.000557103
-1.50544e-05
0.000603414
-3.69856e-06
0.000652825
8.57112e-06
0.000705431
2.18693e-05
0.000761063
3.63267e-05
0.000819358
5.20366e-05
0.000879706
6.91414e-05
0.000941139
8.76257e-05
0.00100215
0.000107497
0.00106069
0.000128474
0.00111414
0.000150078
0.00115932
0.000171796
0.0011927
0.000193488
0.00121014
0.00021447
0.00120546
0.000235472
0.00117152
0.000255357
0.00109705
0.000273272
0.000967151
0.00028679
0.000752089
0.000297017
0.000477656
2.65512e-05
0.000294955
-0.000146764
2.31516e-05
0.000147248
-0.000146236
2.50618e-05
-0.000145656
2.71373e-05
-0.00014502
2.93936e-05
-0.000144329
3.18447e-05
-0.00014358
3.45076e-05
-0.000142775
3.74001e-05
-0.000141912
4.05412e-05
-0.000140995
4.39443e-05
-0.000140017
4.76298e-05
-0.000138987
5.16274e-05
-0.000137893
5.59582e-05
-0.000136745
6.06491e-05
-0.000135526
6.57115e-05
-0.000134239
7.11883e-05
-0.000132869
7.71492e-05
-0.000131417
8.36121e-05
-0.000129855
9.05672e-05
-0.000128178
9.81374e-05
-0.000126366
0.000106393
-0.0001244
0.000115296
-0.000122255
0.00012498
-0.000119922
0.000135582
-0.000117361
0.000146973
-0.000114563
0.000159494
-0.0001115
0.000173067
-0.000108147
0.000187821
-0.000104486
0.000203949
-0.000100483
0.000221392
-9.61158e-05
0.000240504
-9.13543e-05
0.00026116
-8.61773e-05
0.000283742
-8.05529e-05
0.00030821
-7.44522e-05
0.000334812
-6.78491e-05
0.000363734
-6.06937e-05
0.000394945
-5.29685e-05
0.000428887
-4.46282e-05
0.000465501
-3.56247e-05
0.000504932
-2.59218e-05
0.000547438
-1.54653e-05
0.000593
-4.18657e-06
0.000641597
8.0032e-06
0.000693301
2.12209e-05
0.000747914
3.55892e-05
0.000805076
5.11873e-05
0.000864198
6.81274e-05
0.000924329
8.63665e-05
0.000984046
0.000105879
0.0010414
0.000126377
0.00109391
0.000147414
0.00113851
0.000168543
0.00117171
0.000189686
0.00118923
0.000210251
0.00118505
0.000230952
0.00115167
0.000250651
0.00107819
0.000268454
0.000949902
0.000281792
0.000739376
0.000290597
0.000470919
3.20443e-05
0.000289824
-0.000145201
2.27196e-05
0.000145654
-0.000144713
2.45839e-05
-0.000144175
2.66083e-05
-0.000143582
2.88094e-05
-0.000142931
3.12019e-05
-0.000142218
3.38034e-05
-0.000141443
3.66322e-05
-0.000140601
3.97083e-05
-0.000139696
4.30449e-05
-0.000138718
4.66626e-05
-0.000137678
5.05927e-05
-0.000136562
5.48553e-05
-0.000135385
5.94771e-05
-0.000134127
6.44666e-05
-0.000132799
6.98665e-05
-0.000131385
7.57489e-05
-0.000129893
8.21268e-05
-0.000128295
8.89823e-05
-0.000126594
9.64439e-05
-0.00012477
0.000104582
-0.000122808
0.000113343
-0.000120684
0.000122868
-0.000118389
0.000133298
-0.000115885
0.00014448
-0.00011316
0.000156782
-0.000110185
0.000170105
-0.000106933
0.000184581
-0.000103386
0.000200412
-9.94997e-05
0.000217521
-9.52656e-05
0.000236278
-9.06293e-05
0.000256547
-8.55851e-05
0.000278717
-8.00909e-05
0.000302735
-7.41173e-05
0.000328857
-6.76365e-05
0.000357272
-6.05971e-05
0.000387925
-5.29805e-05
0.000421289
-4.47412e-05
0.000457279
-3.58315e-05
0.000496039
-2.62162e-05
0.000537837
-1.58428e-05
0.00058264
-4.64459e-06
0.000630408
7.46233e-06
0.000681204
2.05865e-05
0.000734789
3.484e-05
0.000790828
5.02838e-05
0.00084873
6.70052e-05
0.000907603
8.49401e-05
0.000966051
0.000104045
0.00102226
0.000124044
0.0010739
0.000144537
0.00111797
0.00016514
0.00115097
0.000185833
0.00116862
0.000206073
0.0011645
0.00022655
0.00113144
0.000246099
0.00105858
0.000263806
0.000932071
0.000277105
0.000725751
0.000284957
0.000462624
3.03061e-05
0.000284118
-0.000143459
2.23134e-05
0.000143871
-0.000143007
2.41354e-05
-0.000142507
2.61124e-05
-0.000141955
2.82614e-05
-0.000141346
3.05972e-05
-0.000140677
3.31377e-05
-0.000139943
3.59017e-05
-0.000139141
3.89097e-05
-0.000138269
4.2175e-05
-0.00013732
4.57186e-05
-0.0001363
4.95729e-05
-0.000135197
5.37583e-05
-0.00013402
5.83018e-05
-0.000132756
6.32094e-05
-0.00013141
6.85245e-05
-0.000129974
7.43218e-05
-0.000128453
8.0611e-05
-0.000126826
8.73657e-05
-0.000125095
9.47208e-05
-0.000123248
0.000102746
-0.000121271
0.000111374
-0.000119143
0.000120751
-0.000116859
0.000131024
-0.000114379
0.000142012
-0.000111697
0.00015411
-0.00010878
0.0001672
-0.000105603
0.000181415
-0.000102144
0.000196964
-9.83644e-05
0.000213748
-9.42372e-05
0.000232172
-8.97286e-05
0.000252051
-8.48125e-05
0.000273819
-7.94524e-05
0.000297391
-7.36147e-05
0.000323036
-6.7269e-05
0.000350944
-6.0362e-05
0.000381038
-5.2873e-05
0.000413823
-4.47548e-05
0.000449188
-3.59594e-05
0.000487274
-2.6451e-05
0.000528366
-1.6179e-05
0.000572411
-5.07689e-06
0.000619358
6.92889e-06
0.000669258
1.9936e-05
0.000721855
3.40392e-05
0.000776811
4.92882e-05
0.000833578
6.57436e-05
0.000891278
8.33357e-05
0.000948601
0.000102013
0.00100381
0.000121521
0.00105465
0.00014151
0.0010982
0.000161658
0.00113096
0.000181976
0.00114852
0.000201974
0.00114467
0.000222278
0.00111196
0.000241708
0.00103997
0.000259309
0.000914989
0.000272594
0.000713053
0.000279917
0.000457265
3.61962e-05
0.000278389
-0.000141561
2.19374e-05
0.000141957
-0.000141138
2.37211e-05
-0.00014067
2.56549e-05
-0.000140157
2.77558e-05
-0.00013959
3.00384e-05
-0.000138966
3.25206e-05
-0.000138278
3.52214e-05
-0.000137523
3.81618e-05
-0.000136697
4.13547e-05
-0.000135791
4.48214e-05
-0.000134809
4.85958e-05
-0.000133739
5.26983e-05
-0.000132589
5.71561e-05
-0.000131342
6.19736e-05
-0.000130007
6.71952e-05
-0.000128573
7.2899e-05
-0.000127047
7.90913e-05
-0.00012541
8.57389e-05
-0.000123665
9.2983e-05
-0.000121802
0.000100893
-0.000119809
0.00010939
-0.000117671
0.000118624
-0.000115384
0.000128745
-0.000112912
0.00013955
-0.000110249
0.000151458
-0.000107366
0.000164328
-0.000104238
0.000178296
-0.000100844
0.000193578
-9.714e-05
0.000210057
-9.3113e-05
0.000228151
-8.87063e-05
0.000247665
-8.39093e-05
0.000269038
-7.86757e-05
0.000292174
-7.29715e-05
0.000317348
-6.67636e-05
0.000344753
-5.99966e-05
0.000374287
-5.26467e-05
0.000406489
-4.46652e-05
0.000441222
-3.60021e-05
0.000478625
-2.66212e-05
0.000518998
-1.64714e-05
0.000562272
-5.48828e-06
0.000608383
6.39289e-06
0.000657382
1.92529e-05
0.000708992
3.3173e-05
0.000762891
4.81896e-05
0.000818534
6.4348e-05
0.000875108
8.15749e-05
0.000931309
9.98221e-05
0.000985532
0.000118862
0.00103558
0.000138399
0.00107859
0.000158158
0.00111105
0.000178179
0.00112853
0.000197986
0.00112454
0.000218153
0.00109198
0.000237468
0.00102055
0.000254947
0.000897295
0.000268211
0.000699335
0.000275274
0.000449631
3.57204e-05
0.000272902
-0.000139589
2.15737e-05
0.000139959
-0.000139189
2.33226e-05
-0.000138746
2.52174e-05
-0.000138262
2.72746e-05
-0.000137727
2.95084e-05
-0.000137141
3.19366e-05
-0.000136494
3.45781e-05
-0.000135783
3.7454e-05
-0.000135003
4.05764e-05
-0.000134146
4.39671e-05
-0.00013321
4.76609e-05
-0.000132186
5.16783e-05
-0.000131075
5.60471e-05
-0.000129866
6.07699e-05
-0.00012856
6.58926e-05
-0.00012715
7.14965e-05
-0.000125639
7.75856e-05
-0.000124011
8.41198e-05
-0.000122269
9.12477e-05
-0.000120405
9.90387e-05
-0.000118409
0.000107401
-0.000116267
0.000116491
-0.000113977
0.000126464
-0.000111508
0.000137089
-0.000108855
0.000148814
-0.000105992
0.000161475
-0.000102895
0.000175208
-9.95448e-05
0.000190237
-9.59035e-05
0.000206421
-9.19431e-05
0.000224209
-8.76286e-05
0.000243361
-8.29313e-05
0.000264357
-7.78112e-05
0.000287069
-7.22316e-05
0.000311782
-6.61567e-05
0.000338694
-5.95297e-05
0.000367678
-5.23236e-05
0.000399304
-4.4488e-05
0.000433411
-3.59707e-05
0.000470138
-2.67342e-05
0.000509796
-1.67269e-05
0.000552307
-5.88555e-06
0.000597593
5.84492e-06
0.000645712
1.85305e-05
0.000696379
3.2237e-05
0.00074927
4.69958e-05
0.000803876
6.28359e-05
0.000859397
7.96943e-05
0.000914605
9.75265e-05
0.00096793
0.000116136
0.00101722
0.000135272
0.00105968
0.000154705
0.00109176
0.000174476
0.00110896
0.000194134
0.00110506
0.000214176
0.00107273
0.000233374
0.00100215
0.000250697
0.000880465
0.000263872
0.000686721
0.000270848
0.000444545
4.28621e-05
0.000267796
-0.000137541
2.12286e-05
0.000137906
-0.000137157
2.29457e-05
-0.000136735
2.48049e-05
-0.000136276
2.6822e-05
-0.00013577
2.9011e-05
-0.000135218
3.13893e-05
-0.000134608
3.39755e-05
-0.000133939
3.67905e-05
-0.000133203
3.98459e-05
-0.000132392
4.31631e-05
-0.000131505
4.67779e-05
-0.000130529
5.07106e-05
-0.000129467
5.49894e-05
-0.000128303
5.96153e-05
-0.000127041
6.46352e-05
-0.00012567
7.01344e-05
-0.000124193
7.61144e-05
-0.000122593
8.25293e-05
-0.000120873
8.95344e-05
-0.000119026
9.72005e-05
-0.000117042
0.000105424
-0.000114909
0.000114367
-0.000112626
0.000124189
-0.000110164
0.000134636
-0.000107522
0.00014618
-0.000104675
0.000158636
-0.000101601
0.000172142
-9.82854e-05
0.000186927
-9.46843e-05
0.000202831
-9.07875e-05
0.000220317
-8.65394e-05
0.000239132
-8.1928e-05
0.00025976
-7.69067e-05
0.000282062
-7.14383e-05
0.000306329
-6.54872e-05
0.000332757
-5.89941e-05
0.0003612
-5.19306e-05
0.000392256
-4.42438e-05
0.000425738
-3.58801e-05
0.000461786
-2.68e-05
0.000500727
-1.69515e-05
0.000542466
-6.27215e-06
0.000586918
5.28552e-06
0.000634156
1.7773e-05
0.000683886
3.12454e-05
0.000735791
4.57285e-05
0.000789363
6.12456e-05
0.000843862
7.77419e-05
0.000898052
9.51833e-05
0.000950453
0.000113402
0.000998963
0.000132189
0.00104081
0.000151344
0.00107243
0.000170911
0.00108937
0.000190437
0.00108519
0.000210355
0.00105296
0.000229415
0.000982957
0.000246552
0.000863031
0.000259583
0.00067312
0.000266502
0.00043694
4.32665e-05
0.000263041
-0.000135477
2.08879e-05
0.000135824
-0.000135106
2.25753e-05
-0.000134698
2.44018e-05
-0.000134256
2.63821e-05
-0.000133771
2.85303e-05
-0.000133243
3.08628e-05
-0.000132662
3.33982e-05
-0.000132027
3.61569e-05
-0.000131329
3.91496e-05
-0.000130561
4.23973e-05
-0.000129719
4.59366e-05
-0.000128792
4.97873e-05
-0.000127779
5.39778e-05
-0.000126667
5.85074e-05
-0.000125453
6.34243e-05
-0.00012413
6.88173e-05
-0.000122697
7.46858e-05
-0.000121138
8.09779e-05
-0.000119454
8.78564e-05
-0.000117639
9.53931e-05
-0.000115681
0.000103473
-0.000113571
0.000112265
-0.000111308
0.000121933
-0.000108864
0.0001322
-0.00010624
0.000143563
-0.000103412
0.000155817
-0.000100363
0.000169099
-9.70749e-05
0.000183646
-9.35156e-05
0.000199275
-8.96598e-05
0.000216479
-8.54755e-05
0.000234956
-8.09344e-05
0.000255234
-7.59985e-05
0.000277139
-7.06295e-05
0.000300973
-6.47911e-05
0.000326933
-5.84238e-05
0.000354849
-5.14975e-05
0.000385349
-4.39579e-05
0.000418222
-3.57503e-05
0.000453606
-2.68335e-05
0.000491844
-1.71548e-05
0.000532827
-6.6524e-06
0.000576466
4.71475e-06
0.000622848
1.69883e-05
0.000671686
3.02123e-05
0.00072265
4.44145e-05
0.000775264
5.96108e-05
0.000828794
7.57624e-05
0.000882061
9.28449e-05
0.000933601
0.000110716
0.000981342
0.000129198
0.00102254
0.000148116
0.00105364
0.000167499
0.00107017
0.000186902
0.00106597
0.000206683
0.00103393
0.000225585
0.000964827
0.000242493
0.000846578
0.000255306
0.000660823
0.000262176
0.000431863
5.07e-05
0.000258587
-0.000133377
2.05603e-05
0.000133725
-0.000133016
2.22198e-05
-0.000132619
2.40154e-05
-0.000132193
2.59615e-05
-0.000131726
2.80715e-05
-0.00013122
3.03615e-05
-0.000130665
3.28496e-05
-0.000130059
3.5556e-05
-0.000129395
3.84901e-05
-0.000128664
4.16724e-05
-0.000127864
4.514e-05
-0.000126982
4.89122e-05
-0.000126018
5.30172e-05
-0.000124955
5.74525e-05
-0.000123794
6.22673e-05
-0.000122522
6.75538e-05
-0.000121141
7.33093e-05
-0.000119631
7.94765e-05
-0.000117995
8.62253e-05
-0.000116223
9.36289e-05
-0.000114306
0.000101562
-0.000112232
0.000110199
-0.000110001
0.00011971
-0.000107588
0.000129794
-0.000104991
0.000140974
-0.000102192
0.000153024
-9.917e-05
0.000166084
-9.59156e-05
0.000180396
-9.23888e-05
0.000195759
-8.85837e-05
0.000212676
-8.4447e-05
0.000230839
-7.99712e-05
0.000250772
-7.51104e-05
0.000272293
-6.98305e-05
0.000295707
-6.40942e-05
0.000321211
-5.78433e-05
0.000348612
-5.10466e-05
0.000378565
-4.36497e-05
0.000410837
-3.55963e-05
0.000445564
-2.68449e-05
0.0004831
-1.73415e-05
0.000523329
-7.02585e-06
0.000566151
4.14027e-06
0.000611679
1.61896e-05
0.000659626
2.91617e-05
0.000709666
4.30836e-05
0.000761312
5.79723e-05
0.000813882
7.38001e-05
0.000866181
9.05557e-05
0.000916822
0.000108117
0.000963734
0.000126333
0.00100423
0.00014504
0.00103475
0.000164258
0.00105087
0.00018353
0.00104634
0.000203158
0.0010144
0.000221868
0.000945956
0.000238517
0.000829569
0.000251076
0.000647612
0.000257809
0.000424359
5.10337e-05
0.000254301
-0.000131293
2.02333e-05
0.000131625
-0.000130939
2.1866e-05
-0.000130551
2.36325e-05
-0.000130135
2.55465e-05
-0.000129679
2.76209e-05
-0.000129188
2.98716e-05
-0.000128651
3.2316e-05
-0.000128068
3.49738e-05
-0.00012743
3.78535e-05
-0.000126731
4.09749e-05
-0.000125966
4.43754e-05
-0.000125125
4.80735e-05
-0.000124204
5.20972e-05
-0.00012319
5.64419e-05
-0.000122078
6.11578e-05
-0.000120859
6.63403e-05
-0.00011953
7.19844e-05
-0.000118075
7.80273e-05
-0.00011649
8.46461e-05
-0.000114769
9.19152e-05
-0.000112901
9.9699e-05
-0.000110873
0.000108178
-0.000108686
0.000117529
-0.000106314
0.000127428
-0.000103756
0.000138423
-0.000100994
0.000150269
-9.80098e-05
0.000163106
-9.47917e-05
0.000177185
-9.13101e-05
0.000192281
-8.75429e-05
0.000208927
-8.34626e-05
0.000226768
-7.90447e-05
0.00024637
-7.42544e-05
0.000267516
-6.90561e-05
0.000290521
-6.34144e-05
0.000315583
-5.72715e-05
0.000342484
-5.05969e-05
0.000371909
-4.33359e-05
0.000403598
-3.54328e-05
0.000437687
-2.68447e-05
0.000474544
-1.75182e-05
0.000514042
-7.39287e-06
0.000556074
3.56645e-06
0.000600777
1.53897e-05
0.000647875
2.81104e-05
0.000697026
4.17617e-05
0.000747764
5.63578e-05
0.000799411
7.18877e-05
0.000850818
8.83475e-05
0.000900592
0.000105634
0.000946694
0.000123612
0.000986456
0.000142128
0.00101636
0.000161179
0.00103199
0.00018031
0.00102739
0.00019976
0.000995673
0.000218254
0.000928219
0.000234607
0.000813648
0.000246864
0.000635848
0.000253422
0.000419533
5.79891e-05
0.000250126
-0.000129192
1.99167e-05
0.000129528
-0.000128845
2.15236e-05
-0.000128465
2.32621e-05
-0.000128059
2.51451e-05
-0.000127615
2.71856e-05
-0.000127139
2.93988e-05
-0.000126619
3.18019e-05
-0.000126056
3.44142e-05
-0.00012544
3.72429e-05
-0.000124768
4.03071e-05
-0.000124034
4.36445e-05
-0.000123228
4.72726e-05
-0.000122346
5.12191e-05
-0.000121375
5.54771e-05
-0.00012031
6.00975e-05
-0.000119142
6.51788e-05
-0.000117866
7.07134e-05
-0.000116466
7.66334e-05
-0.000114937
8.31227e-05
-0.000113272
9.02573e-05
-0.000111459
9.78912e-05
-0.000109485
0.000106212
-0.00010735
0.0001154
-0.000105028
0.000125113
-0.000102519
0.00013592
-9.98032e-05
0.00014756
-9.68643e-05
0.000160175
-9.36932e-05
0.000174019
-9.0254e-05
0.000188853
-8.65422e-05
0.000205221
-8.25111e-05
0.000222757
-7.81544e-05
0.000242028
-7.34321e-05
0.000262807
-6.83111e-05
0.000285413
-6.27581e-05
0.000310042
-5.67164e-05
0.000336455
-5.01567e-05
0.000365361
-4.30251e-05
0.000396477
-3.52661e-05
0.000429936
-2.68372e-05
0.000466122
-1.76849e-05
0.000504892
-7.74965e-06
0.000546138
3.00339e-06
0.000590017
1.46023e-05
0.000636264
2.70797e-05
0.000684529
4.0472e-05
0.000734343
5.47962e-05
0.000785056
7.00512e-05
0.000835517
8.62432e-05
0.000884379
0.000103282
0.000929604
0.000121043
0.000968589
0.000139376
0.00099783
0.00015826
0.00101299
0.00017723
0.00100806
0.000196478
0.00097649
0.000214722
0.000909795
0.00023076
0.000797193
0.000242706
0.000623171
0.000248991
0.000412409
5.77637e-05
0.000245963
-0.000127123
1.95994e-05
0.000127445
-0.000126782
2.11811e-05
-0.000126407
2.28924e-05
-0.000126007
2.47459e-05
-0.00012557
2.67541e-05
-0.000125104
2.89319e-05
-0.000124594
3.12962e-05
-0.000124046
3.38657e-05
-0.000123448
3.66465e-05
-0.000122798
3.96572e-05
-0.000122088
4.29354e-05
-0.000121312
4.64979e-05
-0.000120464
5.03717e-05
-0.000119532
5.45477e-05
-0.000118509
5.90773e-05
-0.000117388
6.40617e-05
-0.000116162
6.94911e-05
-0.000114815
7.52916e-05
-0.000113341
8.16542e-05
-0.000111733
8.8656e-05
-0.000109977
9.61411e-05
-0.000108062
0.000104303
-0.000105984
0.000113329
-0.000103719
0.000122854
-0.000101266
0.000133473
-9.86043e-05
0.000144907
-9.57197e-05
0.000157297
-9.26005e-05
0.000170908
-8.92188e-05
0.000185477
-8.55563e-05
0.000201577
-8.15874e-05
0.000218799
-7.72923e-05
0.000237748
-7.26386e-05
0.000258166
-6.75941e-05
0.00028038
-6.21265e-05
0.000304587
-5.61818e-05
0.000330524
-4.97314e-05
0.000358927
-4.2723e-05
0.000389488
-3.5102e-05
0.00042234
-2.68265e-05
0.000457877
-1.78435e-05
0.000495947
-8.09454e-06
0.000536436
2.45631e-06
0.000579522
1.38374e-05
0.000624953
2.60817e-05
0.000672365
3.92302e-05
0.000721298
5.33014e-05
0.000771107
6.83049e-05
0.000820676
8.42522e-05
0.000868651
0.000101065
0.000913029
0.000118623
0.000951226
0.000136776
0.000979799
0.000155478
0.000994445
0.000174269
0.00098944
0.000193287
0.000958161
0.000211261
0.000892552
0.000226958
0.000781894
0.000238566
0.000612019
0.000244563
0.000408059
6.39975e-05
0.000241821
-0.000125048
1.9292e-05
0.000125375
-0.000124712
2.08491e-05
-0.000124343
2.25339e-05
-0.000123951
2.43585e-05
-0.000123523
2.63352e-05
-0.000123068
2.84787e-05
-0.00012257
3.08055e-05
-0.000122036
3.3334e-05
-0.000121453
3.60692e-05
-0.000120822
3.90291e-05
-0.000120133
4.22513e-05
-0.000119383
4.57517e-05
-0.000118564
4.95565e-05
-0.000117665
5.36544e-05
-0.000116681
5.80972e-05
-0.000115602
6.29887e-05
-0.000114422
6.83164e-05
-0.000113125
7.4001e-05
-0.000111705
8.02398e-05
-0.000110154
8.71112e-05
-0.000108456
9.44496e-05
-0.000106601
0.000102455
-0.000104584
0.000111319
-0.000102381
0.000120657
-9.99877e-05
0.000131088
-9.73875e-05
0.000142314
-9.45628e-05
0.000154481
-9.15051e-05
0.000167856
-8.81802e-05
0.000182163
-8.45849e-05
0.000197987
-8.06753e-05
0.000214908
-7.64481e-05
0.000233533
-7.18652e-05
0.000253595
-6.68975e-05
0.000275423
-6.15144e-05
0.000299215
-5.56637e-05
0.000324685
-4.93185e-05
0.000352592
-4.24279e-05
0.000382607
-3.4939e-05
0.000414858
-2.68106e-05
0.000449753
-1.79907e-05
0.000487127
-8.42167e-06
0.000526864
1.93379e-06
0.000569157
1.31057e-05
0.000613767
2.51297e-05
0.000660317
3.80494e-05
0.000708348
5.18869e-05
0.000757231
6.66573e-05
0.000805856
8.23787e-05
0.000852902
9.89786e-05
0.000896372
0.00011634
0.00093375
0.000134308
0.000961624
0.000152819
0.000975789
0.000171406
0.000970492
0.000190173
0.000939431
0.000207849
0.000874682
0.000223198
0.000766085
0.000234473
0.000599956
0.000240121
0.000401523
6.31937e-05
0.000237637
-0.000123015
1.89841e-05
0.000123329
-0.000122685
2.05168e-05
-0.000122321
2.21755e-05
-0.000121935
2.39719e-05
-0.000121512
2.5918e-05
-0.000121062
2.80284e-05
-0.000120572
3.03191e-05
-0.000120048
3.28084e-05
-0.000119476
3.55002e-05
-0.00011886
3.84116e-05
-0.000118188
4.15808e-05
-0.000117459
4.50224e-05
-0.000116663
4.87623e-05
-0.000115794
5.27866e-05
-0.000114841
5.71473e-05
-0.0001138
6.19507e-05
-0.000112661
6.71817e-05
-0.00011141
7.27551e-05
-0.000110039
7.88747e-05
-0.000108542
8.56196e-05
-0.000106901
9.28147e-05
-0.000105105
0.000100665
-0.00010315
0.00010937
-0.000101009
0.000118523
-9.86809e-05
0.000128766
-9.61453e-05
0.000139785
-9.33864e-05
0.000151728
-9.03931e-05
0.00016487
-8.71383e-05
0.000178912
-8.36042e-05
0.00019447
-7.97676e-05
0.000211079
-7.56099e-05
0.000229388
-7.11016e-05
0.000249097
-6.6213e-05
0.000270544
-6.09151e-05
0.000293927
-5.51576e-05
0.00031894
-4.8915e-05
0.000346365
-4.21385e-05
0.000375849
-3.47764e-05
0.000407519
-2.67891e-05
0.000441795
-1.81255e-05
0.0004785
-8.72905e-06
0.000517513
1.43926e-06
0.000559044
1.24122e-05
0.000602863
2.42285e-05
0.000648579
3.69343e-05
0.000695743
5.0554e-05
0.000743729
6.5108e-05
0.000791458
8.06165e-05
0.0008376
9.7014e-05
0.000880205
0.00011418
0.000916775