/*--------------------------------*- C++ -*----------------------------------*\
  =========                 |
  \\      /  F ield         | OpenFOAM: The Open Source CFD Toolbox
   \\    /   O peration     | Website:  https://openfoam.org
    \\  /    A nd           | Version:  6.0
     \\/     M anipulation  |
\*---------------------------------------------------------------------------*/
FoamFile
{
    version     2.0;
    format      ascii;
    class       volVectorField;
    location    "14";
    object      U;
}
// * * * * * * * * * * * * * * * * * * * * * * * * * * * * * * * * * * * * * //

dimensions      [0 1 -1 0 0 0 0];

internalField   nonuniform List<vector> 
62000
(
(0.99849 0.00475979 -5.26052e-19)
(0.998616 0.00461068 -2.00765e-18)
(0.998519 0.00430937 2.71358e-19)
(0.99845 0.00387198 -7.16891e-21)
(0.998418 0.00343495 2.01529e-18)
(0.998397 0.00295749 -2.3671e-19)
(0.998391 0.00246072 -1.32939e-18)
(0.998397 0.00195821 1.29596e-18)
(0.998412 0.00145791 -1.59271e-18)
(0.998436 0.000973501 -1.03338e-18)
(0.998466 0.000511825 6.51041e-19)
(0.998504 8.41066e-05 1.6711e-18)
(0.998547 -0.000306427 -1.0395e-18)
(0.998598 -0.000652079 1.02818e-18)
(0.998655 -0.000954153 -1.06866e-18)
(0.998722 -0.0012089 1.51797e-18)
(0.998797 -0.00142061 -1.931e-18)
(0.99888 -0.00158919 4.92811e-19)
(0.998972 -0.00171976 1.69203e-19)
(0.999072 -0.00181468 1.07986e-19)
(0.999178 -0.00187787 -1.08168e-18)
(0.99929 -0.00191306 5.82035e-19)
(0.999405 -0.00192241 -6.61039e-21)
(0.999522 -0.0019092 1.65761e-19)
(0.999638 -0.00187443 -1.59994e-19)
(0.999751 -0.00181939 -6.20737e-19)
(0.99986 -0.00174317 6.0777e-19)
(0.999963 -0.00164517 5.66235e-20)
(1.00006 -0.00152368 4.56213e-20)
(1.00014 -0.00137977 -4.09203e-19)
(1.00021 -0.00122172 2.25161e-19)
(1.00026 -0.00104805 -4.68978e-19)
(1.00029 -0.000861649 -7.96422e-20)
(1.0003 -0.000664079 2.84541e-20)
(1.00029 -0.000459732 4.31894e-20)
(1.00027 -0.000257 -1.84772e-19)
(1.00023 -6.77019e-05 4.24729e-20)
(1.00017 9.47583e-05 2.67272e-20)
(1.0001 0.000216247 3.00655e-20)
(1.00004 0.000286257 -4.33161e-20)
(0.999983 0.000299565 -3.61198e-20)
(0.999946 0.000262767 9.05941e-22)
(0.999939 0.000195063 -4.4325e-20)
(0.999967 0.000178698 1.02148e-19)
(1.00002 0.000305477 2.3296e-19)
(1.00006 0.000667484 -5.30119e-19)
(1 0.00127438 1.4564e-18)
(0.999715 0.00199779 2.89297e-18)
(0.999037 0.00248042 -1.59717e-18)
(0.997887 0.00220814 7.05383e-18)
(0.996291 0.000827176 1.38244e-17)
(0.994443 -0.0016684 2.31798e-17)
(0.992677 -0.00501489 4.87381e-18)
(0.991244 -0.00853286 7.83607e-18)
(0.989939 -0.0124468 1.3021e-17)
(0.98908 -0.0168999 2.92236e-17)
(0.9881 -0.0232892 4.50205e-18)
(0.986722 -0.0379908 4.8913e-17)
(1.01635 -0.00153128 -2.35229e-17)
(0.390334 -0.602563 6.5477e-17)
(0.99983 0.00860093 -7.67216e-20)
(0.999578 0.00877626 5.87897e-19)
(0.999201 0.00898411 -2.51329e-19)
(0.998821 0.00892796 2.7444e-19)
(0.998522 0.00884125 6.53918e-19)
(0.998258 0.00864001 -1.15832e-19)
(0.998039 0.00832992 -7.28917e-19)
(0.997864 0.00792012 -3.0936e-20)
(0.997725 0.00741207 5.68336e-19)
(0.997617 0.00681885 -9.69676e-19)
(0.997533 0.00615207 -3.43663e-19)
(0.997469 0.00543046 1.18889e-18)
(0.997417 0.00466769 -8.57176e-19)
(0.997377 0.003885 5.77947e-19)
(0.997345 0.00309421 -7.68039e-19)
(0.997322 0.00231526 3.93291e-19)
(0.997308 0.00155605 -1.63254e-19)
(0.997305 0.000831641 -1.08404e-19)
(0.997317 0.000145119 1.15075e-19)
(0.997346 -0.000494065 1.51462e-20)
(0.997394 -0.0010863 2.75019e-19)
(0.997465 -0.00162809 -2.19696e-19)
(0.997559 -0.00212071 -1.63509e-19)
(0.997676 -0.00256424 2.07021e-19)
(0.997816 -0.0029594 -4.60416e-19)
(0.997979 -0.00330586 -9.06701e-20)
(0.998163 -0.00360038 7.19466e-19)
(0.998371 -0.0038391 -3.32019e-19)
(0.998592 -0.0040155 5.41717e-19)
(0.998823 -0.0041317 -4.42811e-20)
(0.999045 -0.0041858 -2.73268e-19)
(0.99926 -0.00417163 9.81222e-20)
(0.999464 -0.00408483 2.79291e-20)
(0.99965 -0.0039152 1.04823e-19)
(0.999812 -0.00365903 -1.48023e-19)
(0.999939 -0.00331455 4.90466e-20)
(1.00003 -0.00288547 3.14428e-20)
(1.00008 -0.00237813 -1.02554e-20)
(1.0001 -0.00180243 8.71712e-21)
(1.00009 -0.0011651 4.94968e-21)
(1.00007 -0.000470383 4.61408e-20)
(1.00004 0.000285549 -7.21138e-21)
(1.00005 0.00112738 3.58927e-20)
(1.00009 0.00220509 3.95851e-20)
(1.00009 0.00358723 -3.86027e-19)
(0.999912 0.00523259 3.76446e-19)
(0.99934 0.00684269 -1.91745e-18)
(0.998108 0.00781493 -1.64393e-18)
(0.996021 0.00726604 -7.17933e-19)
(0.993165 0.00439922 -7.63424e-19)
(0.98991 -0.000828016 -1.52201e-17)
(0.986865 -0.00746025 -2.2191e-17)
(0.984598 -0.0141692 1.71072e-18)
(0.983143 -0.019749 -2.76707e-18)
(0.982102 -0.0249205 -1.3338e-17)
(0.981386 -0.0312092 2.16661e-18)
(0.980836 -0.0416527 4.5507e-18)
(0.979951 -0.0620504 -1.17027e-17)
(1.00791 -0.0551072 3.70979e-17)
(1.11887 0.231907 -2.49343e-17)
(1.004 0.00583949 5.09032e-19)
(1.00375 0.00655033 -1.37497e-19)
(1.00341 0.00712676 -6.44456e-20)
(1.00299 0.00763721 -2.46375e-20)
(1.00258 0.00816663 8.54054e-19)
(1.00215 0.0086459 -6.93827e-19)
(1.00174 0.00904625 -2.22402e-19)
(1.00136 0.0093533 1.77209e-19)
(1.00101 0.00954276 3.9373e-19)
(1.00069 0.00960272 1.30841e-19)
(1.00041 0.00952512 -6.3258e-19)
(1.00017 0.00930928 -2.71699e-19)
(0.999955 0.00895747 2.70427e-19)
(0.999766 0.00848104 -1.06604e-19)
(0.999597 0.00788915 4.92963e-20)
(0.999444 0.00720195 4.34386e-19)
(0.999302 0.00643197 -4.55145e-19)
(0.999172 0.00560273 4.3409e-19)
(0.999052 0.00472633 -5.85521e-20)
(0.998945 0.00382581 2.85816e-19)
(0.998853 0.00291046 -1.70921e-19)
(0.998781 0.00199863 -2.02045e-19)
(0.998731 0.00109751 8.20501e-20)
(0.998708 0.000219402 2.55155e-19)
(0.998714 -0.000630213 -1.41226e-19)
(0.998753 -0.00144131 2.24182e-19)
(0.998828 -0.00220537 -7.68298e-20)
(0.998943 -0.00290901 -1.50716e-19)
(0.99909 -0.00354115 -2.09444e-19)
(0.999261 -0.00409317 1.75915e-19)
(0.999441 -0.00455815 2.09859e-20)
(0.99963 -0.00491946 4.93206e-21)
(0.999825 -0.00515619 -9.84963e-20)
(1.00002 -0.00524889 8.12868e-20)
(1.00019 -0.00517717 3.33037e-20)
(1.00034 -0.00492178 4.35994e-20)
(1.00046 -0.00446769 -2.85211e-20)
(1.00054 -0.00380312 2.22699e-20)
(1.00057 -0.00292288 -2.89253e-20)
(1.00058 -0.00182311 6.08291e-21)
(1.00056 -0.000508009 -3.45801e-20)
(1.00055 0.00101176 2.43128e-21)
(1.00059 0.00275706 -5.91459e-20)
(1.00068 0.00483921 -2.04045e-19)
(1.00071 0.00721669 2.00164e-19)
(1.00052 0.0096526 -3.58045e-20)
(0.999854 0.011575 3.18909e-19)
(0.998431 0.0120981 -1.19788e-18)
(0.99612 0.0101949 5.41475e-19)
(0.993149 0.00524031 -3.84835e-20)
(0.990047 -0.00224081 -1.44796e-17)
(0.987555 -0.010428 -6.04579e-18)
(0.986304 -0.0172939 1.11869e-17)
(0.986198 -0.0213676 1.22588e-17)
(0.986949 -0.0234234 1.15366e-17)
(0.987958 -0.0257894 -4.3835e-17)
(0.989025 -0.0321646 1.0551e-17)
(0.988852 -0.0465397 -2.06402e-17)
(1.01974 -0.041315 -4.89813e-17)
(0.916337 -0.0582922 5.87516e-19)
(1.00806 0.00566558 1.01523e-19)
(1.0082 0.00621765 -7.69091e-20)
(1.00825 0.00643367 1.74599e-20)
(1.00816 0.00679972 1.25744e-20)
(1.00798 0.00729527 -5.57395e-20)
(1.00771 0.0078728 -4.78189e-21)
(1.00737 0.00849834 9.34471e-21)
(1.00698 0.00914189 6.89549e-21)
(1.00656 0.00976353 -1.72095e-20)
(1.00613 0.0103282 5.3767e-20)
(1.0057 0.0108049 1.94124e-20)
(1.00529 0.0111669 1.70631e-21)
(1.00488 0.0113928 -4.92672e-20)
(1.0045 0.0114698 -8.72924e-21)
(1.00414 0.0113882 -6.4271e-20)
(1.0038 0.0111501 1.24073e-19)
(1.00347 0.0107572 -6.44971e-20)
(1.00316 0.0102227 -4.67937e-20)
(1.00286 0.00955677 1.02467e-19)
(1.00258 0.00878022 -1.0356e-19)
(1.00231 0.00790619 6.84889e-22)
(1.00205 0.00695807 7.2119e-20)
(1.00181 0.00594972 -1.63313e-20)
(1.00159 0.00490138 -3.54663e-20)
(1.0014 0.00382612 1.88216e-20)
(1.00125 0.00274212 -1.88596e-20)
(1.00113 0.00166482 -2.82294e-20)
(1.00105 0.000617159 2.39103e-20)
(1.00102 -0.000380732 4.5405e-20)
(1.00102 -0.00131677 -1.19354e-20)
(1.00104 -0.00217132 1.78526e-20)
(1.00109 -0.00291672 -7.35726e-20)
(1.00115 -0.00352662 -3.81777e-20)
(1.00123 -0.00396525 -1.46022e-20)
(1.00132 -0.00419775 5.14824e-20)
(1.00139 -0.00418807 -5.72316e-21)
(1.00144 -0.00390216 -3.08179e-20)
(1.00146 -0.00330952 1.08755e-20)
(1.00146 -0.0023883 1.74421e-20)
(1.00143 -0.00112255 -4.41953e-20)
(1.00139 0.000484248 -1.10047e-20)
(1.00137 0.00240708 -4.84505e-21)
(1.00144 0.00467568 1.07183e-19)
(1.00159 0.00728344 3.18792e-20)
(1.00172 0.0100767 2.88998e-19)
(1.00162 0.0126776 -9.86297e-20)
(1.00105 0.0143591 7.27357e-19)
(0.999719 0.0141307 3.17412e-19)
(0.997487 0.0109942 6.25222e-18)
(0.994576 0.00454074 -1.65974e-18)
(0.991493 -0.00433534 2.51336e-17)
(0.988991 -0.0133824 2.51e-17)
(0.987817 -0.0203071 -1.62461e-17)
(0.988014 -0.0235557 1.1739e-17)
(0.989627 -0.0238085 1.74078e-17)
(0.991856 -0.0236626 1.78121e-17)
(0.994144 -0.0270094 1.1559e-18)
(0.995203 -0.0387145 4.71085e-18)
(1.02206 -0.0328892 3.4415e-17)
(0.994957 -0.0171314 -4.22252e-18)
(1.00967 0.0109085 2.23291e-20)
(1.01025 0.0108511 1.24688e-19)
(1.01073 0.0103785 2.53894e-20)
(1.0111 0.010096 -3.86115e-21)
(1.01134 0.00998793 2.11119e-19)
(1.01147 0.0100369 -3.20856e-19)
(1.01147 0.0102339 4.28004e-20)
(1.01137 0.0105626 -2.41685e-19)
(1.01119 0.0109924 -1.36497e-19)
(1.01093 0.0114894 6.62755e-19)
(1.01063 0.0120168 -3.17037e-19)
(1.01028 0.0125356 4.07844e-20)
(1.00991 0.0130084 1.94129e-20)
(1.00953 0.013402 -4.43613e-19)
(1.00915 0.0136859 4.42846e-19)
(1.00876 0.01384 -1.01466e-19)
(1.00837 0.0138453 1.23757e-19)
(1.00798 0.0136964 -1.41882e-19)
(1.00759 0.0133875 2.02269e-19)
(1.0072 0.0129266 -3.08353e-19)
(1.0068 0.0123178 3.40042e-19)
(1.00641 0.0115791 -2.61172e-19)
(1.00601 0.0107213 -3.58373e-19)
(1.00562 0.0097643 3.31776e-19)
(1.00524 0.00872265 9.21079e-20)
(1.00488 0.00761688 -4.18371e-19)
(1.00454 0.0064655 3.33487e-19)
(1.00423 0.00529753 1.68322e-20)
(1.00396 0.00413365 2.03363e-19)
(1.00371 0.00299717 -2.60164e-19)
(1.00349 0.00190806 1.53186e-19)
(1.00331 0.000897066 8.19734e-20)
(1.00315 3.04112e-06 2.13904e-19)
(1.00303 -0.000734277 -5.07497e-20)
(1.00292 -0.00126827 5.77062e-20)
(1.00283 -0.00155142 -3.45847e-21)
(1.00273 -0.00153533 -6.19362e-20)
(1.00264 -0.00117501 -1.41999e-20)
(1.00254 -0.00043427 -4.32976e-22)
(1.00244 0.000714975 2.50988e-20)
(1.00236 0.00227262 -4.43371e-21)
(1.00232 0.00420698 -7.51887e-21)
(1.00241 0.0065712 -9.28441e-20)
(1.00262 0.00921968 -1.98391e-19)
(1.00285 0.0119206 -1.42811e-19)
(1.0029 0.014242 -1.75767e-19)
(1.00252 0.0154182 -1.55458e-19)
(1.00139 0.0144741 7.34625e-19)
(0.999299 0.0105037 -4.26384e-19)
(0.996361 0.0032366 -1.621e-18)
(0.992947 -0.00631799 -3.34116e-18)
(0.989729 -0.0158753 -1.15042e-17)
(0.98758 -0.0232539 -5.19182e-20)
(0.986806 -0.0270196 -1.24635e-17)
(0.987944 -0.0277449 6.05138e-18)
(0.990422 -0.0278332 -3.0843e-18)
(0.993545 -0.030831 -4.30229e-18)
(0.996703 -0.0423831 -2.01381e-18)
(1.02146 -0.0339958 1.50026e-17)
(0.99456 0.00272456 2.02283e-18)
(1.009 0.01864 8.34843e-20)
(1.00976 0.0181045 -9.69075e-20)
(1.01046 0.0171594 -1.96779e-19)
(1.01112 0.0163097 1.44263e-21)
(1.01171 0.0155846 1.34644e-19)
(1.01219 0.0149893 1.8155e-19)
(1.01258 0.014547 8.2871e-20)
(1.01285 0.0142688 3.90916e-19)
(1.01302 0.0141517 -5.08083e-19)
(1.0131 0.0141837 -5.26081e-19)
(1.0131 0.0143444 6.59135e-19)
(1.01303 0.0146046 -3.97914e-19)
(1.01291 0.0149293 1.36528e-19)
(1.01274 0.0152816 -3.60341e-19)
(1.01255 0.0156218 5.84924e-20)
(1.01234 0.015915 1.80848e-19)
(1.0121 0.016127 9.90672e-19)
(1.01185 0.0162331 -1.48982e-18)
(1.01157 0.0162103 7.30033e-19)
(1.01128 0.0160486 -4.61669e-19)
(1.01095 0.0157382 6.68528e-19)
(1.0106 0.0152836 -5.19253e-19)
(1.01022 0.0146858 4.4783e-19)
(1.00981 0.0139571 1.98857e-19)
(1.00937 0.0131073 -3.18386e-20)
(1.00891 0.0121525 -3.06623e-20)
(1.00844 0.0111101 -3.60335e-19)
(1.00797 0.0100086 -4.20976e-19)
(1.00749 0.00887033 1.35818e-19)
(1.00702 0.0077143 -1.10164e-19)
(1.00655 0.00656276 1.29596e-19)
(1.00611 0.00545072 -3.75669e-20)
(1.00569 0.00441084 -5.21624e-19)
(1.0053 0.00348911 1.50369e-20)
(1.00493 0.00273455 -2.05184e-19)
(1.00458 0.00219857 1.1693e-19)
(1.00426 0.00193692 1.55883e-19)
(1.00396 0.00200241 4.01461e-20)
(1.00369 0.0024412 1.65514e-20)
(1.00346 0.00329156 3.81935e-21)
(1.00329 0.00455844 1.05716e-20)
(1.00323 0.00621207 4.18223e-22)
(1.00334 0.00833548 -1.06807e-20)
(1.00364 0.0106733 1.71158e-19)
(1.00403 0.0129559 -1.4698e-19)
(1.00437 0.0147804 2.88755e-19)
(1.00441 0.0154395 -1.85192e-20)
(1.0038 0.0140665 -2.84156e-19)
(1.00225 0.00989174 -2.40823e-18)
(0.999701 0.00273736 3.72811e-18)
(0.996333 -0.00643082 -5.66215e-18)
(0.992639 -0.0155431 5.16353e-18)
(0.989527 -0.022766 2.80746e-18)
(0.98755 -0.0269286 -2.5379e-18)
(0.987746 -0.0285285 -4.40004e-17)
(0.989997 -0.0294673 1.05973e-17)
(0.993654 -0.0325082 -1.04073e-17)
(0.99903 -0.0431392 3.84662e-18)
(1.02192 -0.03204 2.25854e-18)
(0.99839 0.017143 -1.81792e-18)
(1.00779 0.0263162 6.37137e-19)
(1.00846 0.0256582 -3.84441e-19)
(1.00912 0.0246162 -1.75746e-19)
(1.00982 0.0235389 -1.62292e-19)
(1.01051 0.0224872 3.52584e-19)
(1.01116 0.021473 4.3643e-19)
(1.01174 0.0205383 -9.69789e-19)
(1.01226 0.0197155 1.16039e-19)
(1.01268 0.0190282 -1.49218e-19)
(1.01302 0.0184918 9.39062e-19)
(1.01327 0.018113 -6.71972e-19)
(1.01346 0.0178867 3.91505e-19)
(1.01357 0.0177985 5.69852e-19)
(1.01365 0.0178258 -1.17938e-18)
(1.01368 0.0179368 2.10834e-19)
(1.0137 0.0180986 4.73675e-19)
(1.01369 0.0182724 6.02699e-19)
(1.01366 0.0184247 -1.89068e-18)
(1.01361 0.0185192 9.01587e-19)
(1.01354 0.0185311 9.06561e-19)
(1.01343 0.0184354 -1.04327e-18)
(1.01329 0.0182214 8.27705e-20)
(1.0131 0.017876 8.53471e-21)
(1.01285 0.0174003 3.86022e-19)
(1.01255 0.0167937 -1.76136e-19)
(1.01218 0.0160643 6.66176e-19)
(1.01175 0.0152243 4.8139e-19)
(1.01127 0.0142979 -1.75492e-19)
(1.01074 0.0133008 -5.514e-19)
(1.01017 0.0122543 -3.15616e-19)
(1.00956 0.0111726 -3.41745e-19)
(1.00893 0.0100847 2.13566e-19)
(1.00829 0.00902538 -1.2789e-19)
(1.00766 0.0080335 -2.05875e-19)
(1.00703 0.00715577 2.28584e-19)
(1.00642 0.00644046 4.18474e-20)
(1.00584 0.00594327 4.81742e-20)
(1.00529 0.00571759 -4.92398e-20)
(1.0048 0.00581364 2.78726e-20)
(1.0044 0.0062759 5.92374e-21)
(1.00411 0.00711323 4.36875e-21)
(1.004 0.00830388 -5.02597e-21)
(1.00414 0.00995813 6.1779e-20)
(1.00453 0.0117643 -3.46371e-20)
(1.00517 0.0134489 1.75775e-19)
(1.00594 0.0146991 1.87198e-20)
(1.00664 0.014935 2.65344e-19)
(1.0069 0.0134613 5.43936e-19)
(1.00636 0.00968419 -1.84434e-19)
(1.00483 0.00350608 -2.05421e-18)
(1.00223 -0.00421977 5.42614e-19)
(0.998814 -0.011755 -5.07168e-18)
(0.995423 -0.0177328 4.65046e-18)
(0.992738 -0.0213262 -2.59596e-19)
(0.992173 -0.0229996 1.54032e-17)
(0.994033 -0.0241286 -5.73938e-18)
(0.99771 -0.0265892 -1.79057e-18)
(1.00456 -0.0355525 -8.10615e-18)
(1.02553 -0.02243 -1.99743e-17)
(0.996023 0.0325573 3.3062e-18)
(1.00695 0.0326747 -2.94856e-19)
(1.00738 0.0321459 -6.05733e-19)
(1.00784 0.031278 3.26357e-19)
(1.00839 0.0302776 4.44692e-19)
(1.009 0.0292176 1.39861e-19)
(1.00964 0.0280998 -5.53645e-19)
(1.01026 0.0269671 -2.37318e-19)
(1.01086 0.0258564 -2.28563e-19)
(1.0114 0.0248034 2.78529e-19)
(1.01188 0.0238403 -2.29435e-19)
(1.01228 0.0229952 3.6831e-19)
(1.01261 0.022287 7.16184e-19)
(1.01287 0.0217258 -9.57158e-19)
(1.01309 0.0213123 3.4571e-19)
(1.01326 0.0210354 1.55972e-20)
(1.01341 0.0208775 9.8365e-19)
(1.01354 0.0208111 -6.36514e-19)
(1.01366 0.0208068 -2.72523e-19)
(1.01378 0.020828 5.66329e-19)
(1.0139 0.0208438 -1.73842e-18)
(1.014 0.0208211 6.6767e-19)
(1.01408 0.0207357 1.45664e-18)
(1.01411 0.0205623 -1.46409e-18)
(1.0141 0.0202893 1.6779e-18)
(1.01403 0.0199026 -4.06962e-19)
(1.01387 0.0193997 -9.09844e-19)
(1.01363 0.018784 -3.52753e-20)
(1.01329 0.0180711 5.52557e-19)
(1.01287 0.0172731 -3.05749e-19)
(1.01235 0.0163989 1.33466e-21)
(1.01175 0.0154596 5.69513e-19)
(1.01108 0.014482 1.28473e-19)
(1.01035 0.0134876 2.33867e-19)
(1.00958 0.0125125 3.12707e-19)
(1.00878 0.0115942 1.57576e-19)
(1.00798 0.0107728 -2.87565e-19)
(1.00718 0.0100978 3.23318e-20)
(1.00642 0.00961709 7.28432e-20)
(1.00573 0.00937909 -3.89442e-20)
(1.00515 0.00942917 2.46656e-21)
(1.00474 0.00977728 4.98628e-21)
(1.00458 0.0104119 -7.17234e-21)
(1.00473 0.0114628 -1.31592e-19)
(1.00522 0.0126169 4.12153e-20)
(1.0061 0.0136214 5.34305e-20)
(1.00734 0.0142845 4.93356e-20)
(1.00875 0.0141865 -2.27821e-19)
(1.01001 0.0128308 -1.57065e-19)
(1.01071 0.00980985 7.05255e-19)
(1.01053 0.00510158 1.12475e-18)
(1.00919 -0.0005751 -9.45676e-20)
(1.00667 -0.00584862 1.77654e-19)
(1.00366 -0.00984266 -5.09446e-18)
(1.00084 -0.0121146 1.85239e-18)
(0.999845 -0.0131728 2.70852e-18)
(1.00125 -0.0139943 6.9475e-19)
(1.00438 -0.0157307 4.37432e-19)
(1.01171 -0.0234521 3.95108e-18)
(1.0307 -0.00996734 1.68685e-17)
(0.991574 0.043553 -3.25862e-18)
(1.0068 0.037646 7.39751e-19)
(1.00694 0.0373505 -8.8245e-19)
(1.00713 0.0367753 5.03771e-19)
(1.00744 0.0360169 6.65476e-20)
(1.00786 0.0351481 -2.89544e-19)
(1.00835 0.0341552 1.52906e-19)
(1.00889 0.0330704 -5.71265e-19)
(1.00945 0.0319228 -2.77747e-19)
(1.01 0.0307462 4.29725e-19)
(1.01052 0.029576 8.44672e-19)
(1.01098 0.0284488 -9.60937e-19)
(1.01138 0.0273973 -6.86984e-20)
(1.01172 0.02645 5.3801e-20)
(1.012 0.0256282 1.21621e-19)
(1.01222 0.0249427 -6.2021e-19)
(1.01241 0.0243976 8.17173e-19)
(1.01258 0.0239844 -9.15196e-19)
(1.01274 0.0236894 1.49759e-18)
(1.01291 0.0234861 -6.19753e-19)
(1.01309 0.0233498 2.96144e-19)
(1.01327 0.0232481 -1.783e-20)
(1.01346 0.0231526 6.90067e-19)
(1.01365 0.0230308 -1.77132e-18)
(1.0138 0.0228623 4.83858e-19)
(1.01392 0.0226197 -4.73974e-19)
(1.01397 0.0222909 7.01285e-19)
(1.01393 0.0218678 7.74643e-19)
(1.0138 0.0213561 -7.82922e-19)
(1.01356 0.0207569 1.94225e-19)
(1.01321 0.0200743 1.23783e-19)
(1.01274 0.0193094 -1.68038e-19)
(1.01215 0.0184771 -3.84815e-19)
(1.01146 0.0175976 2.48705e-20)
(1.01069 0.0166938 -5.87607e-19)
(1.00985 0.015794 3.82317e-19)
(1.00896 0.0149271 -1.92889e-19)
(1.00806 0.0141324 -4.04226e-20)
(1.00717 0.0134477 -3.62582e-20)
(1.00635 0.0129148 2.08899e-20)
(1.00564 0.012575 1.55561e-21)
(1.00514 0.0124351 8.47567e-21)
(1.00493 0.0124938 2.49846e-21)
(1.00509 0.0128895 6.05253e-20)
(1.00562 0.013353 -4.54712e-21)
(1.00667 0.0136662 -7.13608e-20)
(1.00826 0.0137619 -3.51015e-21)
(1.01025 0.0133805 7.18638e-20)
(1.01234 0.012213 1.97099e-19)
(1.01415 0.0100245 -9.24416e-19)
(1.01525 0.00685139 8.55089e-19)
(1.01521 0.00327359 -8.2877e-19)
(1.01379 0.000309143 1.49469e-18)
(1.01148 -0.00163142 -1.67124e-19)
(1.00891 -0.00247518 1.22162e-18)
(1.00775 -0.00282006 7.84145e-19)
(1.00871 -0.00341084 1.71735e-18)
(1.01095 -0.00489575 1.19776e-18)
(1.01817 -0.0123876 -2.79393e-18)
(1.0357 0.000262391 -2.10355e-18)
(0.987121 0.0499183 6.5728e-18)
(1.00721 0.0413656 4.16939e-20)
(1.00707 0.0413019 7.7594e-19)
(1.00698 0.0410289 -3.52809e-19)
(1.00703 0.0405612 4.45338e-19)
(1.0072 0.0399695 -4.68114e-19)
(1.00749 0.0392243 2.25975e-19)
(1.00786 0.0383442 -8.93784e-19)
(1.00831 0.037345 5.59396e-19)
(1.00878 0.0362497 -6.9871e-19)
(1.00927 0.0350864 3.40556e-19)
(1.00974 0.0338886 8.83459e-20)
(1.01017 0.0326907 -2.68436e-19)
(1.01055 0.0315279 8.28979e-19)
(1.01086 0.0304327 -1.45885e-18)
(1.01112 0.0294314 -5.93627e-20)
(1.01132 0.0285455 2.96462e-20)
(1.01149 0.0277868 1.02863e-18)
(1.01163 0.0271598 -7.20477e-19)
(1.01177 0.0266562 9.30238e-19)
(1.01191 0.026265 -6.24705e-19)
(1.01207 0.0259647 -9.56806e-20)
(1.01225 0.0257318 -4.58254e-19)
(1.01245 0.0255357 4.67916e-19)
(1.01265 0.0253531 7.99335e-19)
(1.01284 0.0251495 -5.99295e-19)
(1.013 0.0249056 -5.29243e-19)
(1.01311 0.0246033 5.89224e-19)
(1.01314 0.0242373 -9.25258e-20)
(1.01307 0.0238022 -2.90154e-19)
(1.01289 0.0232855 8.60347e-19)
(1.01259 0.0226833 -1.81343e-19)
(1.01216 0.022004 -3.87246e-20)
(1.0116 0.0212532 9.25582e-20)
(1.01092 0.0204474 1.47891e-19)
(1.01015 0.0196025 1.16644e-19)
(1.00929 0.0187354 1.58395e-20)
(1.00839 0.0178728 6.47488e-21)
(1.00748 0.0170402 3.94679e-20)
(1.00661 0.0162697 -5.38781e-20)
(1.00585 0.0155937 2.54115e-21)
(1.0053 0.0150129 -7.20703e-21)
(1.00506 0.0145335 1.00543e-20)
(1.00519 0.0142932 7.64255e-20)
(1.00571 0.0140951 6.26287e-20)
(1.0068 0.013763 -7.69564e-20)
(1.00853 0.0133368 2.7661e-20)
(1.01083 0.0126938 4.03524e-20)
(1.01342 0.0116792 5.15573e-19)
(1.01595 0.0101915 1.14521e-18)
(1.01797 0.00830366 -1.78279e-18)
(1.01895 0.00646192 1.77833e-18)
(1.01849 0.00536959 -3.91437e-19)
(1.01692 0.00504306 4.45148e-18)
(1.01475 0.0052322 2.19655e-18)
(1.01363 0.00523855 2.97703e-18)
(1.01428 0.00445312 -1.35955e-19)
(1.01565 0.00258611 -3.32342e-18)
(1.02267 -0.00547048 8.54883e-19)
(1.03957 0.00606837 -3.72831e-18)
(0.983717 0.0519525 -1.11456e-17)
(1.00807 0.0441935 1.75691e-19)
(1.00769 0.0443232 -1.71704e-19)
(1.00735 0.0443136 -3.68018e-19)
(1.00714 0.0441189 -3.43101e-19)
(1.00707 0.0438086 6.26895e-19)
(1.00712 0.0433424 2.58731e-19)
(1.00728 0.042727 -6.36051e-19)
(1.00755 0.0419649 -3.94993e-19)
(1.00789 0.0410672 8.18325e-19)
(1.00828 0.0400503 -9.46225e-19)
(1.0087 0.0389389 5.54152e-19)
(1.00911 0.037761 8.32872e-19)
(1.00949 0.0365492 -6.406e-19)
(1.00983 0.035338 -5.93148e-20)
(1.01012 0.0341595 9.73362e-19)
(1.01034 0.0330455 -6.68405e-19)
(1.01051 0.0320208 -2.22267e-19)
(1.01064 0.0311059 9.71026e-20)
(1.01073 0.0303087 -1.36749e-19)
(1.01082 0.0296353 -4.63874e-19)
(1.01091 0.0290786 1.01441e-18)
(1.01101 0.0286277 -5.49721e-19)
(1.01114 0.0282606 1.67909e-19)
(1.01129 0.027959 -1.13476e-18)
(1.01145 0.0276885 9.26668e-19)
(1.01161 0.0274286 -2.91064e-19)
(1.01175 0.0271547 7.13743e-19)
(1.01185 0.0268549 -4.90077e-19)
(1.01188 0.026513 2.03415e-19)
(1.01183 0.0261109 -6.13642e-19)
(1.01166 0.0256342 -2.34528e-19)
(1.01138 0.0250773 6.23902e-19)
(1.01097 0.0244439 -3.38152e-19)
(1.01044 0.0237362 5.18883e-21)
(1.00979 0.0229598 1.51406e-19)
(1.00904 0.0221197 -1.988e-19)
(1.00822 0.0212294 -1.3976e-20)
(1.00736 0.0203017 -3.50667e-20)
(1.00653 0.0193568 4.15285e-20)
(1.00579 0.0184151 -2.18603e-21)
(1.00523 0.0174692 -6.3403e-21)
(1.00497 0.0165291 -1.55443e-21)
(1.00506 0.0157244 -5.18098e-20)
(1.0055 0.0149427 -9.54677e-21)
(1.00649 0.0140515 -4.61426e-20)
(1.00816 0.0131697 -2.32409e-20)
(1.01046 0.0122775 -3.63446e-20)
(1.01317 0.0113286 -5.49683e-19)
(1.01597 0.0103142 -1.42501e-18)
(1.01844 0.00931362 1.00043e-18)
(1.02002 0.0086509 -1.72088e-18)
(1.02021 0.00876876 -1.58095e-18)
(1.01925 0.00937299 -2.53288e-18)
(1.01755 0.00997453 -8.48675e-18)
(1.01664 0.00981353 -5.07076e-18)
(1.0172 0.00838316 1.04112e-18)
(1.018 0.0056992 1.27022e-17)
(1.02515 -0.00320047 1.13829e-18)
(1.04232 0.0076774 -1.23569e-18)
(0.981653 0.0515228 1.09466e-17)
(1.0092 0.0463286 -5.53601e-19)
(1.00863 0.0465958 5.8051e-19)
(1.00809 0.0467891 2.1554e-19)
(1.00766 0.0468185 -1.2615e-18)
(1.00735 0.0467551 9.61479e-19)
(1.00717 0.0465519 4.77641e-19)
(1.00711 0.0462071 -9.70232e-19)
(1.00717 0.0457128 1.04606e-18)
(1.00734 0.045069 -9.97529e-19)
(1.00759 0.0442805 -3.47623e-19)
(1.0079 0.0433604 3.95208e-19)
(1.00825 0.0423269 6.09212e-19)
(1.0086 0.0412044 -4.80635e-19)
(1.00894 0.0400219 3.51597e-19)
(1.00924 0.0388098 -1.02487e-19)
(1.00949 0.0376017 1.52248e-19)
(1.00968 0.0364285 -3.95057e-19)
(1.00981 0.0353195 -4.89646e-19)
(1.0099 0.0342952 1.35271e-18)
(1.00995 0.0333753 -8.60164e-19)
(1.00998 0.0325679 5.18514e-19)
(1.01 0.0318757 4.35217e-19)
(1.01004 0.0312902 -5.42051e-19)
(1.01009 0.0308023 2.63136e-20)
(1.01016 0.030385 2.8509e-19)
(1.01025 0.0300213 -5.80992e-20)
(1.01034 0.0296867 -5.96675e-19)
(1.01042 0.029366 -9.21516e-20)
(1.01047 0.0290408 4.15258e-19)
(1.01046 0.0286803 -2.53413e-19)
(1.01038 0.0282666 3.89388e-19)
(1.01019 0.0277885 -4.01649e-19)
(1.00991 0.0272359 -2.35506e-19)
(1.0095 0.0266053 -9.62691e-20)
(1.00899 0.025891 1.15707e-20)
(1.00837 0.0250873 -4.99065e-20)
(1.00767 0.0241949 1.11036e-19)
(1.00692 0.0232145 7.40715e-20)
(1.00617 0.0221537 -1.80034e-20)
(1.00549 0.0210197 3.7896e-21)
(1.00496 0.0197957 9.54516e-21)
(1.0047 0.0184926 1.5848e-21)
(1.00473 0.0172265 -1.31669e-19)
(1.00503 0.015967 -4.23171e-20)
(1.00583 0.0146261 3.20874e-20)
(1.00726 0.0133683 8.43693e-20)
(1.00931 0.0122422 -3.0132e-20)
(1.0118 0.0112648 -1.74119e-20)
(1.01449 0.0104758 -5.65573e-20)
(1.01698 0.0099422 -1.7465e-18)
(1.01876 0.00987889 2.83715e-19)
(1.01931 0.0105268 9.801e-19)
(1.01878 0.0113778 -2.42667e-18)
(1.01754 0.0117883 -1.01208e-18)
(1.017 0.0109932 -2.12233e-18)
(1.01776 0.0086104 -7.61978e-18)
(1.0184 0.00496221 -1.05216e-17)
(1.02608 -0.00462602 -2.54765e-20)
(1.04415 0.00622139 6.66856e-18)
(0.980924 0.0494653 3.85197e-18)
(1.01049 0.0480195 8.51198e-19)
(1.00979 0.0483795 -6.16142e-19)
(1.00911 0.0487217 -7.08715e-19)
(1.0085 0.0489228 2.65348e-19)
(1.008 0.0490571 8.35415e-19)
(1.00761 0.0490747 -1.65622e-18)
(1.00734 0.0489691 2.00787e-18)
(1.0072 0.0487254 -6.96511e-19)
(1.00716 0.048336 -3.61212e-19)
(1.00724 0.0477962 -6.7733e-19)
(1.0074 0.0471094 9.59745e-19)
(1.00763 0.0462834 2.6735e-20)
(1.00791 0.0453331 2.51485e-19)
(1.0082 0.044279 -1.40606e-18)
(1.00849 0.0431452 7.62805e-19)
(1.00874 0.0419614 -4.04451e-19)
(1.00896 0.0407571 5.49223e-19)
(1.00912 0.0395645 -6.25352e-20)
(1.00922 0.0384095 -5.84174e-19)
(1.00927 0.0373204 3.6001e-19)
(1.00928 0.0363158 2.40176e-19)
(1.00926 0.0354109 1.45057e-19)
(1.00922 0.0346098 -4.66847e-19)
(1.00919 0.0339153 2.72111e-19)
(1.00916 0.0333108 -1.42717e-19)
(1.00915 0.0327873 2.48724e-19)
(1.00915 0.0323251 -1.79283e-19)
(1.00916 0.0319119 2.593e-19)
(1.00916 0.0315258 -2.87833e-20)
(1.00913 0.0311378 2.19137e-19)
(1.00906 0.0307235 -5.16612e-21)
(1.00891 0.0302619 2.19238e-20)
(1.00869 0.0297437 2.60555e-20)
(1.00838 0.0291535 -4.71493e-20)
(1.00798 0.0284781 4.8027e-20)
(1.00748 0.0277031 -8.3019e-20)
(1.0069 0.0268177 3.13957e-20)
(1.00627 0.0258122 -2.93988e-20)
(1.00563 0.0246819 -1.8248e-21)
(1.00502 0.0234209 3.54265e-23)
(1.00453 0.0220028 5.52757e-21)
(1.00425 0.0204367 -4.07668e-22)
(1.00421 0.0188223 1.58114e-19)
(1.00435 0.0172 1.05906e-19)
(1.00489 0.0155223 4.11604e-20)
(1.00597 0.0139705 2.05317e-19)
(1.00762 0.01263 -9.72386e-20)
(1.00967 0.0115429 -2.41718e-19)
(1.01197 0.0107648 4.72566e-19)
(1.0142 0.010334 1.0796e-18)
(1.01588 0.0103728 3.6587e-19)
(1.01652 0.0109776 1.32495e-18)
(1.01631 0.0115081 -3.44808e-18)
(1.01552 0.0112586 7.94733e-18)
(1.01549 0.00952237 3.0862e-18)
(1.0167 0.00607852 6.72497e-18)
(1.01759 0.0015651 3.6775e-18)
(1.02619 -0.00832909 -3.21973e-19)
(1.04548 0.00314256 -2.16716e-18)
(0.981105 0.0474536 4.19934e-18)
(1.01185 0.0493657 -1.06401e-18)
(1.01105 0.0497752 -1.03656e-18)
(1.01027 0.0502149 1.43216e-18)
(1.00954 0.0505356 -4.20513e-19)
(1.00889 0.0508168 -1.4201e-19)
(1.00833 0.0510083 -9.18331e-19)
(1.00788 0.0511014 -6.89999e-20)
(1.00754 0.0510773 1.26637e-18)
(1.00731 0.0509232 -4.72686e-19)
(1.0072 0.0506277 -3.82984e-19)
(1.0072 0.050186 5.27694e-20)
(1.00728 0.0495969 -3.63502e-19)
(1.00744 0.0488661 -1.07436e-19)
(1.00765 0.0480045 1.02371e-18)
(1.00788 0.0470279 -2.4648e-19)
(1.00812 0.0459587 -4.372e-19)
(1.00833 0.0448219 1.83857e-19)
(1.00851 0.0436465 8.96285e-19)
(1.00864 0.0424593 -8.82326e-19)
(1.00871 0.0412912 1.88054e-19)
(1.00873 0.0401672 3.25481e-19)
(1.0087 0.0391103 -1.24965e-19)
(1.00863 0.0381349 6.23679e-20)
(1.00855 0.0372538 -6.91883e-20)
(1.00845 0.0364619 3.26551e-19)
(1.00835 0.0357595 -5.68179e-20)
(1.00826 0.0351351 2.61239e-19)
(1.00818 0.0345817 -1.68943e-19)
(1.0081 0.034083 -1.97396e-19)
(1.00801 0.0336061 -3.80972e-20)
(1.0079 0.0331292 1.8228e-19)
(1.00775 0.0326312 1.37866e-19)
(1.00754 0.0320942 -1.10106e-19)
(1.00728 0.0315013 -1.45999e-19)
(1.00694 0.0308325 1.65373e-19)
(1.00653 0.0300664 -3.61781e-20)
(1.00605 0.0291833 -5.61644e-20)
(1.00552 0.028165 -3.28927e-20)
(1.00496 0.0269959 -2.91386e-21)
(1.00443 0.0256581 1.20254e-20)
(1.00398 0.0241169 1.16746e-20)
(1.00369 0.0223774 -5.53829e-21)
(1.00357 0.0205225 3.80707e-20)
(1.00354 0.0186445 -1.39053e-19)
(1.00379 0.0167337 -6.20565e-20)
(1.00448 0.0149617 -4.71582e-19)
(1.00564 0.0134277 4.80259e-19)
(1.00715 0.01217 3.6802e-19)
(1.00892 0.0112328 -9.9006e-20)
(1.0107 0.0106222 2.93641e-19)
(1.01211 0.0103858 3.65698e-19)
(1.01272 0.0105262 -2.13604e-18)
(1.01273 0.0103464 2.91796e-18)
(1.01241 0.00914514 -2.16332e-18)
(1.01299 0.00632442 -8.84849e-19)
(1.01485 0.00186176 2.08358e-18)
(1.0163 -0.00329389 -2.0675e-18)
(1.02602 -0.0130744 -1.09339e-18)
(1.04656 -0.000527161 7.83549e-18)
(0.981895 0.0456913 -2.96072e-17)
(1.01321 0.0505094 1.22377e-18)
(1.01237 0.0509428 -1.80423e-18)
(1.01153 0.051445 2.46081e-19)
(1.01072 0.0518462 1.04654e-18)
(1.00997 0.0522309 -1.59179e-18)
(1.00928 0.0525502 1.26312e-18)
(1.00867 0.0527957 -5.55816e-19)
(1.00816 0.052947 3.47084e-19)
(1.00776 0.0529888 3.02015e-19)
(1.00747 0.052906 -9.72605e-19)
(1.00729 0.0526886 -4.63179e-19)
(1.00721 0.0523287 1.2651e-18)
(1.00722 0.0518248 -7.44323e-20)
(1.00731 0.0511795 3.79806e-19)
(1.00745 0.0504003 -4.00078e-19)
(1.00763 0.0495017 -2.07501e-19)
(1.00781 0.0485012 -2.73511e-19)
(1.00798 0.0474224 5.48493e-19)
(1.00812 0.0462878 -4.40136e-19)
(1.00822 0.0451274 3.03303e-19)
(1.00826 0.0439667 -2.72065e-20)
(1.00825 0.0428328 -4.9088e-19)
(1.00819 0.0417457 4.29089e-19)
(1.00809 0.040726 -4.90723e-19)
(1.00795 0.0397778 1.75126e-19)
(1.0078 0.0389106 -2.39e-19)
(1.00764 0.0381215 -9.70666e-20)
(1.00748 0.0374117 7.89295e-20)
(1.00732 0.0367676 4.83924e-20)
(1.00716 0.0361667 1.40505e-19)
(1.00698 0.0355852 -2.42168e-19)
(1.00679 0.0350005 7.06068e-20)
(1.00656 0.0344009 -4.01826e-20)
(1.0063 0.0337627 9.35193e-20)
(1.00598 0.0330645 4.02015e-20)
(1.00561 0.03228 5.36789e-20)
(1.0052 0.0313839 -3.28308e-21)
(1.00473 0.0303515 8.37476e-21)
(1.00425 0.0291583 1.39641e-20)
(1.00377 0.0277766 -1.23607e-21)
(1.00334 0.0261649 -5.71629e-21)
(1.00303 0.0243234 -8.75689e-21)
(1.00282 0.0223179 -1.75962e-20)
(1.00263 0.0202743 1.7381e-19)
(1.00261 0.0182133 3.49309e-19)
(1.00291 0.0162789 -4.19654e-19)
(1.00359 0.0145678 -4.95989e-19)
(1.00453 0.0130947 -1.20055e-18)
(1.00575 0.01188 2.27946e-19)
(1.00704 0.0108937 -5.8855e-19)
(1.00812 0.0101295 -1.46096e-19)