/*--------------------------------*- C++ -*----------------------------------*\
  =========                 |
  \\      /  F ield         | OpenFOAM: The Open Source CFD Toolbox
   \\    /   O peration     | Website:  https://openfoam.org
    \\  /    A nd           | Version:  6.0
     \\/     M anipulation  |
\*---------------------------------------------------------------------------*/
FoamFile
{
    version     2.0;
    format      ascii;
    class       volScalarField;
    location    "0.7";
    object      p;
}
// * * * * * * * * * * * * * * * * * * * * * * * * * * * * * * * * * * * * * //

dimensions      [0 2 -2 0 0 0 0];

internalField   nonuniform List<scalar> 
200
(
-9.52623e-09
-0.000146071
-0.000485868
-0.00100594
-0.0017261
-0.00268939
-0.0039499
-0.00556406
-0.00753935
-0.00967658
-0.0114243
-0.0120448
-0.0107708
-0.00643605
0.00248013
0.0162704
0.0319763
0.0435474
0.0463058
0.0424485
0.000143823
-3.09883e-05
-0.000347203
-0.000810274
-0.00143956
-0.00224839
-0.00324618
-0.00446081
-0.00599443
-0.00801911
-0.0105348
-0.0130256
-0.0143097
-0.0125553
-0.00577246
0.006714
0.0225475
0.0360622
0.041657
0.0394769
0.00051553
0.000260949
-4.306e-05
-0.000442392
-0.000969939
-0.00162981
-0.00246641
-0.00366805
-0.00565589
-0.00897321
-0.0138457
-0.019645
-0.0247047
-0.0266526
-0.0231163
-0.0127779
0.00333798
0.0208183
0.032971
0.0362631
0.000980789
0.000618281
0.000317722
-3.02067e-05
-0.000480202
-0.00105542
-0.00191364
-0.00352274
-0.00670775
-0.01229
-0.0203817
-0.0299045
-0.0387486
-0.0443894
-0.0444658
-0.0372073
-0.0221061
-0.00127746
0.019274
0.0319933
0.0012833
0.000809089
0.000513337
0.000215128
-0.000147206
-0.000624111
-0.00152756
-0.00362428
-0.00805144
-0.0157055
-0.0264261
-0.0387026
-0.0501546
-0.0583081
-0.0610649
-0.0567403
-0.0440584
-0.0229623
0.00312239
0.0252695
0.00105791
0.00049839
0.000269947
0.000110694
-3.07156e-05
-0.00023487
-0.000970367
-0.00323206
-0.00830972
-0.0170493
-0.0290732
-0.0426379
-0.0552524
-0.0644945
-0.0684914
-0.0658792
-0.0554548
-0.0360817
-0.00846745
0.0203751
-0.000231534
-0.000767065
-0.000666961
-0.000409426
-3.26921e-05
0.000350495
0.000129101
-0.00182642
-0.00683044
-0.015645
-0.0278048
-0.0415271
-0.054311
-0.0636856
-0.0677434
-0.0651257
-0.0547299
-0.0349801
-0.00490456
0.0307926
-0.00347114
-0.00354576
-0.00245769
-0.00139145
-0.000104171
0.00120934
0.00179585
0.000459416
-0.00406161
-0.0124216
-0.0241394
-0.0374846
-0.0499942
-0.0590091
-0.0622289
-0.0575411
-0.0429776
-0.0158144
0.0259037
0.076979
-0.0100805
-0.00916808
-0.00571097
-0.00261113
-4.85086e-05
0.00220793
0.00351651
0.00271512
-0.00135879
-0.00922641
-0.0204064
-0.0332196
-0.0452654
-0.0536256
-0.0553759
-0.0468549
-0.0237133
0.0201283
0.0879668
0.171513
-0.0380314
-0.0125235
-0.00264957
0.000653891
0.00298262
0.00518076
0.0064177
0.00552192
0.00142282
-0.00630651
-0.017209
-0.0296637
-0.0413466
-0.0491755
-0.049757
-0.0380107
-0.00683366
0.0552011
0.15626
0.285588
)
;

boundaryField
{
    movingWall
    {
        type            zeroGradient;
    }
    fixedWalls
    {
        type            zeroGradient;
    }
    frontAndBack
    {
        type            empty;
    }
}


// ************************************************************************* //
