/*--------------------------------*- C++ -*----------------------------------*\
  =========                 |
  \\      /  F ield         | OpenFOAM: The Open Source CFD Toolbox
   \\    /   O peration     | Website:  https://openfoam.org
    \\  /    A nd           | Version:  6.0
     \\/     M anipulation  |
\*---------------------------------------------------------------------------*/
FoamFile
{
    version     2.0;
    format      ascii;
    class       surfaceScalarField;
    location    "0.7";
    object      phi;
}
// * * * * * * * * * * * * * * * * * * * * * * * * * * * * * * * * * * * * * //

dimensions      [0 3 -1 0 0 0 0];

internalField   nonuniform List<scalar> 
370
(
6.30635e-08
-6.30626e-08
1.17658e-07
-5.45949e-08
1.47268e-07
-2.96093e-08
1.60526e-07
-1.32581e-08
1.53403e-07
7.12323e-09
1.04311e-07
4.90922e-08
-2.95128e-08
1.33823e-07
-3.23944e-07
2.94431e-07
-9.05985e-07
5.82041e-07
-1.9414e-06
1.03541e-06
-3.53083e-06
1.58943e-06
-5.55586e-06
2.02504e-06
-7.62303e-06
2.06717e-06
-9.17758e-06
1.55454e-06
-9.68901e-06
5.11435e-07
-8.7785e-06
-9.10515e-07
-6.35907e-06
-2.41942e-06
-2.96596e-06
-3.39311e-06
-1.96208e-07
-2.76976e-06
-1.96208e-07
3.2715e-08
-9.57774e-08
-4.51483e-09
-1.73645e-08
-1.12625e-07
7.85007e-08
-2.92059e-07
1.66175e-07
-5.82471e-07
2.97534e-07
-1.07018e-06
5.36799e-07
-1.8937e-06
9.57343e-07
-3.23011e-06
1.63084e-06
-5.21353e-06
2.56547e-06
-7.78298e-06
3.60486e-06
-1.05925e-05
4.39897e-06
-1.31308e-05
4.56333e-06
-1.49629e-05
3.89922e-06
-1.58324e-05
2.42406e-06
-1.55673e-05
2.46384e-07
-1.39807e-05
-2.49715e-06
-1.09122e-05
-5.48787e-06
-6.49874e-06
-7.80661e-06
-1.86425e-06
-7.40424e-06
-2.06046e-06
-9.11923e-08
-4.58489e-09
-3.47759e-07
2.39202e-07
-7.18224e-07
4.48966e-07
-1.21181e-06
6.59763e-07
-1.90245e-06
9.88172e-07
-2.90956e-06
1.54391e-06
-4.36231e-06
2.41009e-06
-6.32424e-06
3.59277e-06
-8.69478e-06
4.936e-06
-1.11794e-05
6.08943e-06
-1.34047e-05
6.62435e-06
-1.50912e-05
6.24983e-06
-1.61228e-05
4.93075e-06
-1.64879e-05
2.78923e-06
-1.6171e-05
-7.05309e-08
-1.50513e-05
-3.6169e-06
-1.28285e-05
-7.71065e-06
-9.07489e-06
-1.15602e-05
-3.8221e-06
-1.2657e-05
-5.88257e-06
-2.70808e-07
2.66223e-07
-8.09147e-07
7.77541e-07
-1.47424e-06
1.11406e-06
-2.26064e-06
1.44616e-06
-3.23292e-06
1.96045e-06
-4.46577e-06
2.77676e-06
-5.98947e-06
3.93379e-06
-7.7351e-06
5.3384e-06
-9.51592e-06
6.71682e-06
-1.1088e-05
7.66147e-06
-1.22697e-05
7.80605e-06
-1.30196e-05
6.9998e-06
-1.34047e-05
5.31577e-06
-1.35149e-05
2.89947e-06
-1.34026e-05
-1.82777e-07
-1.30141e-05
-4.00542e-06
-1.20309e-05
-8.69382e-06
-9.71664e-06
-1.38745e-05
-5.2511e-06
-1.71226e-05
-1.11337e-05
-4.83564e-07
7.49786e-07
-1.30895e-06
1.60292e-06
-2.20881e-06
2.01392e-06
-3.13437e-06
2.37173e-06
-4.10714e-06
2.93322e-06
-5.13704e-06
3.80666e-06
-6.18685e-06
4.98359e-06
-7.1598e-06
6.31135e-06
-7.92589e-06
7.48291e-06
-8.38756e-06
8.12315e-06
-8.53994e-06
7.95843e-06
-8.47293e-06
6.93279e-06
-8.31943e-06
5.16226e-06
-8.20756e-06
2.7876e-06
-8.24083e-06
-1.49508e-07
-8.44715e-06
-3.7991e-06
-8.61468e-06
-8.52629e-06
-7.98433e-06
-1.45049e-05
-5.23272e-06
-1.98742e-05
-1.63664e-05
-7.29219e-07
1.47901e-06
-1.82275e-06
2.69645e-06
-2.85014e-06
3.04131e-06
-3.7174e-06
3.23899e-06
-4.41421e-06
3.63003e-06
-4.91915e-06
4.3116e-06
-5.19277e-06
5.25722e-06
-5.18912e-06
6.3077e-06
-4.88738e-06
7.18117e-06
-4.33014e-06
7.5659e-06
-3.63272e-06
7.26101e-06
-2.94956e-06
6.24963e-06
-2.43133e-06
4.64404e-06
-2.20383e-06
2.5601e-06
-2.37499e-06
2.16537e-08
-3.005e-06
-3.16909e-06
-3.9928e-06
-7.53849e-06
-4.76847e-06
-1.37292e-05
-3.91609e-06
-2.07265e-05
-2.02825e-05
-1.05223e-06
2.53123e-06
-2.42906e-06
4.07329e-06
-3.47225e-06
4.0845e-06
-4.11327e-06
3.88e-06
-4.36006e-06
3.87682e-06
-4.19689e-06
4.14842e-06
-3.61602e-06
4.67635e-06
-2.64525e-06
5.33693e-06
-1.37346e-06
5.90938e-06
4.55276e-08
6.14692e-06
1.41575e-06
5.89079e-06
2.54985e-06
5.11553e-06
3.29175e-06
3.90214e-06
3.53656e-06
2.31528e-06
3.21036e-06
3.47859e-07
2.2845e-06
-2.24323e-06
7.84717e-07
-6.03871e-06
-9.97299e-07
-1.19472e-05
-1.92164e-06
-1.98022e-05
-2.22041e-05
-1.51781e-06
4.04904e-06
-3.28188e-06
5.83737e-06
-4.16013e-06
4.96274e-06
-4.30451e-06
4.02439e-06
-3.94167e-06
3.51398e-06
-3.12157e-06
3.32832e-06
-1.84111e-06
3.39589e-06
-1.40462e-07
3.63628e-06
1.8553e-06
3.91362e-06
3.95075e-06
4.05147e-06
5.90968e-06
3.93186e-06
7.52734e-06
3.49787e-06
8.63503e-06
2.79445e-06
9.12553e-06
1.82478e-06
8.91213e-06
5.6126e-07
7.94703e-06
-1.27813e-06
6.15178e-06
-4.24346e-06
3.48692e-06
-9.28232e-06
6.78051e-07
-1.69933e-05
-2.15261e-05
-4.49373e-06
8.54277e-06
-4.12917e-06
5.4728e-06
-2.43499e-06
3.26857e-06
-9.29092e-07
2.51849e-06
5.01468e-07
2.08342e-06
2.03859e-06
1.7912e-06
3.78846e-06
1.64603e-06
5.80319e-06
1.62155e-06
8.05139e-06
1.66542e-06
1.04134e-05
1.68941e-06
1.27018e-05
1.64347e-06
1.47259e-05
1.4738e-06
1.63143e-05
1.20604e-06
1.73313e-05
8.0783e-07
1.76111e-05
2.81377e-07
1.69305e-05
-5.97528e-07
1.48831e-05
-2.19604e-06
1.10258e-05
-5.42501e-06
5.12274e-06
-1.10903e-05
-1.64033e-05
8.54278e-06
1.40156e-05
1.72841e-05
1.98026e-05
2.18861e-05
2.36773e-05
2.53233e-05
2.69448e-05
2.86103e-05
3.02997e-05
3.19431e-05
3.34169e-05
3.4623e-05
3.54308e-05
3.57122e-05
3.51147e-05
3.29186e-05
2.74936e-05
1.64033e-05
)
;

boundaryField
{
    movingWall
    {
        type            calculated;
        value           uniform 0;
    }
    fixedWalls
    {
        type            calculated;
        value           uniform 0;
    }
    frontAndBack
    {
        type            empty;
        value           nonuniform 0();
    }
}


// ************************************************************************* //
