/*--------------------------------*- C++ -*----------------------------------*\
  =========                 |
  \\      /  F ield         | OpenFOAM: The Open Source CFD Toolbox
   \\    /   O peration     | Website:  https://openfoam.org
    \\  /    A nd           | Version:  6.0
     \\/     M anipulation  |
\*---------------------------------------------------------------------------*/
FoamFile
{
    version     2.0;
    format      ascii;
    class       volVectorField;
    location    "0.7";
    object      U;
}
// * * * * * * * * * * * * * * * * * * * * * * * * * * * * * * * * * * * * * //

dimensions      [0 1 -1 0 0 0 0];

internalField   nonuniform List<vector> 
200
(
(0.000693899 -0.000752928 0)
(0.00192243 -0.000825096 0)
(0.00274953 -0.00068564 0)
(0.0031949 -0.000652766 0)
(0.00333384 -0.000663924 0)
(0.00293365 -0.000608116 0)
(0.0013726 -0.000327466 0)
(-0.00253803 0.000524535 0)
(-0.0108984 0.0026663 0)
(-0.0266794 0.00711308 0)
(-0.0528014 0.0143759 0)
(-0.090342 0.0228411 0)
(-0.134751 0.028038 0)
(-0.173896 0.0258318 0)
(-0.193957 0.015975 0)
(-0.186418 0.000909338 0)
(-0.150218 -0.0155321 0)
(-0.0928123 -0.0263052 0)
(-0.0311894 -0.0205241 0)
(0.000669301 0.000432397 0)
(0.000525651 -0.00194115 0)
(0.000663108 -0.00149249 0)
(-0.000817844 -0.000530742 0)
(-0.00361739 0.000227093 0)
(-0.00802131 0.00126284 0)
(-0.0152515 0.00330038 0)
(-0.0274863 0.00735337 0)
(-0.0479842 0.0149733 0)
(-0.0807157 0.0278451 0)
(-0.127781 0.0455708 0)
(-0.185035 0.0628043 0)
(-0.242228 0.0709367 0)
(-0.288576 0.0641893 0)
(-0.316027 0.0422156 0)
(-0.319419 0.00774531 0)
(-0.296179 -0.0352252 0)
(-0.246342 -0.0792455 0)
(-0.173579 -0.107861 0)
(-0.0867835 -0.0915095 0)
(-0.0137688 -0.0142689 0)
(-0.000546009 -0.00153856 0)
(-0.00369704 0.00116513 0)
(-0.0100529 0.00402882 0)
(-0.0185616 0.006837 0)
(-0.0298991 0.0111601 0)
(-0.0460823 0.0188616 0)
(-0.0697717 0.0318614 0)
(-0.103485 0.0512844 0)
(-0.14781 0.0753656 0)
(-0.19917 0.0979406 0)
(-0.249781 0.1103 0)
(-0.291415 0.105692 0)
(-0.319462 0.0823063 0)
(-0.332738 0.0419793 0)
(-0.330917 -0.012803 0)
(-0.31284 -0.0793288 0)
(-0.276055 -0.150761 0)
(-0.217454 -0.207045 0)
(-0.134881 -0.201592 0)
(-0.0333975 -0.0661522 0)
(-0.00217833 0.00199769 0)
(-0.00984423 0.00913013 0)
(-0.0221609 0.0146222 0)
(-0.0366292 0.0202102 0)
(-0.0537395 0.0289196 0)
(-0.0751439 0.0432166 0)
(-0.102139 0.0643976 0)
(-0.134963 0.0912902 0)
(-0.171829 0.118891 0)
(-0.208238 0.13901 0)
(-0.238403 0.143757 0)
(-0.258769 0.129325 0)
(-0.269759 0.0965272 0)
(-0.273727 0.0478985 0)
(-0.272394 -0.0152692 0)
(-0.265361 -0.0934865 0)
(-0.248775 -0.185504 0)
(-0.214727 -0.276515 0)
(-0.151905 -0.312384 0)
(-0.0460075 -0.165668 0)
(-0.004223 0.00955056 0)
(-0.0169198 0.0229962 0)
(-0.0348534 0.0307724 0)
(-0.0533012 0.0381888 0)
(-0.0719533 0.0496801 0)
(-0.0914647 0.0675591 0)
(-0.111783 0.0919682 0)
(-0.13223 0.120083 0)
(-0.151221 0.145731 0)
(-0.166003 0.161007 0)
(-0.173937 0.159791 0)
(-0.174911 0.140419 0)
(-0.171653 0.104983 0)
(-0.167672 0.0561902 0)
(-0.165912 -0.00543324 0)
(-0.167723 -0.0831868 0)
(-0.170374 -0.183037 0)
(-0.163864 -0.302161 0)
(-0.129733 -0.393001 0)
(-0.0356084 -0.290006 0)
(-0.00678198 0.0217549 0)
(-0.0248186 0.042494 0)
(-0.0472471 0.0505444 0)
(-0.0665941 0.0568654 0)
(-0.0819146 0.0673372 0)
(-0.0933445 0.0839719 0)
(-0.100509 0.106243 0)
(-0.103246 0.1308 0)
(-0.101469 0.151614 0)
(-0.094844 0.161853 0)
(-0.0835034 0.156927 0)
(-0.0694116 0.136269 0)
(-0.0560896 0.102263 0)
(-0.047053 0.0575071 0)
(-0.0454124 0.00246087 0)
(-0.0533654 -0.0672769 0)
(-0.0703906 -0.162859 0)
(-0.0871763 -0.29481 0)
(-0.0830051 -0.432143 0)
(-0.00456707 -0.395838 0)
(-0.0104273 0.0395808 0)
(-0.0348393 0.0670363 0)
(-0.0607905 0.0715477 0)
(-0.0779807 0.072816 0)
(-0.0863007 0.0777179 0)
(-0.0863889 0.0882613 0)
(-0.0781695 0.10396 0)
(-0.0624237 0.121883 0)
(-0.0407765 0.136954 0)
(-0.0152389 0.143585 0)
(0.0118185 0.138143 0)
(0.0371944 0.120188 0)
(0.0571419 0.0916493 0)
(0.0685351 0.0544482 0)
(0.0686291 0.0087939 0)
(0.0563105 -0.0501234 0)
(0.0301373 -0.135266 0)
(-0.00188596 -0.265988 0)
(-0.0239784 -0.43114 0)
(0.0378241 -0.461392 0)
(-0.0160347 0.0650716 0)
(-0.0479971 0.0998532 0)
(-0.0795389 0.0936338 0)
(-0.0876752 0.0816 0)
(-0.0840658 0.0766161 0)
(-0.0714752 0.0779335 0)
(-0.0498546 0.0845199 0)
(-0.0198832 0.0942392 0)
(0.0165363 0.103423 0)
(0.0565341 0.107797 0)
(0.0964336 0.104489 0)
(0.132493 0.092627 0)
(0.160418 0.0734363 0)
(0.177826 0.0477653 0)
(0.180617 0.01549 0)
(0.169747 -0.0284117 0)
(0.139698 -0.0958075 0)
(0.100172 -0.208199 0)
(0.0547423 -0.373316 0)
(0.0960985 -0.456241 0)
(-0.0909363 0.137691 0)
(-0.0931898 0.118502 0)
(-0.0631057 0.0822305 0)
(-0.0338721 0.0652026 0)
(-0.00421725 0.0551615 0)
(0.0260516 0.0494036 0)
(0.0589425 0.0476505 0)
(0.0962165 0.0492137 0)
(0.137758 0.0524641 0)
(0.183131 0.054814 0)
(0.228506 0.0544454 0)
(0.272335 0.0499847 0)
(0.307788 0.0419575 0)
(0.335791 0.0301335 0)
(0.346292 0.0146649 0)
(0.344986 -0.00810814 0)
(0.31408 -0.0457031 0)
(0.27102 -0.115306 0)
(0.194063 -0.241569 0)
(0.192332 -0.342585 0)
(0.188794 0.111623 0)
(0.232073 0.0978875 0)
(0.307055 0.0732068 0)
(0.37068 0.0561073 0)
(0.419193 0.0442835 0)
(0.458185 0.0355764 0)
(0.491734 0.0292069 0)
(0.523878 0.0246836 0)
(0.555113 0.0217867 0)
(0.58835 0.0197476 0)
(0.619787 0.0182695 0)
(0.652286 0.0164041 0)
(0.676819 0.0144069 0)
(0.699732 0.0113693 0)
(0.705106 0.00801867 0)
(0.706261 0.00224072 0)
(0.671439 -0.00624586 0)
(0.625713 -0.0246021 0)
(0.499322 -0.0564211 0)
(0.38906 -0.108524 0)
)
;

boundaryField
{
    movingWall
    {
        type            fixedValue;
        value           uniform (1 0 0);
    }
    fixedWalls
    {
        type            noSlip;
    }
    frontAndBack
    {
        type            empty;
    }
}


// ************************************************************************* //
