/*--------------------------------*- C++ -*----------------------------------*\
  =========                 |
  \\      /  F ield         | OpenFOAM: The Open Source CFD Toolbox
   \\    /   O peration     | Website:  https://openfoam.org
    \\  /    A nd           | Version:  6.0
     \\/     M anipulation  |
\*---------------------------------------------------------------------------*/
FoamFile
{
    version     2.0;
    format      ascii;
    class       volScalarField;
    location    "15";
    object      p;
}
// * * * * * * * * * * * * * * * * * * * * * * * * * * * * * * * * * * * * * //

dimensions      [0 2 -2 0 0 0 0];

internalField   nonuniform List<scalar> 
2000
(
-0.355161
-0.361051
-0.362719
-0.362026
-0.360139
-0.357434
-0.354188
-0.350696
-0.347246
-0.34352
-0.357885
-0.363354
-0.364681
-0.363686
-0.361511
-0.35853
-0.355021
-0.351268
-0.347564
-0.343718
-0.363352
-0.36796
-0.368595
-0.366991
-0.364234
-0.360696
-0.356651
-0.352361
-0.348126
-0.344036
-0.371604
-0.374869
-0.374441
-0.371908
-0.368269
-0.363885
-0.359015
-0.353879
-0.348796
-0.344316
-0.382699
-0.384078
-0.382187
-0.378401
-0.373576
-0.368049
-0.362046
-0.355709
-0.349375
-0.344302
-0.3967
-0.395572
-0.391793
-0.386428
-0.380123
-0.373163
-0.36571
-0.357767
-0.349653
-0.343663
-0.413641
-0.409308
-0.4032
-0.395947
-0.387903
-0.379269
-0.370102
-0.36017
-0.349629
-0.342139
-0.433464
-0.425187
-0.416315
-0.406898
-0.396902
-0.38641
-0.375335
-0.363048
-0.349057
-0.338576
-0.455956
-0.443034
-0.431023
-0.419239
-0.40716
-0.394678
-0.381394
-0.365784
-0.345644
-0.32829
-0.480683
-0.462586
-0.447223
-0.433117
-0.419297
-0.405561
-0.391151
-0.373433
-0.348335
-0.324311
-0.506958
-0.483415
-0.464645
-0.448444
-0.433679
-0.420722
-0.409912
-0.401885
-0.40193
-0.421359
-0.533955
-0.504943
-0.482672
-0.46411
-0.447736
-0.434006
-0.423392
-0.416952
-0.41981
-0.436974
-0.56095
-0.526711
-0.501029
-0.479997
-0.461594
-0.446182
-0.434124
-0.42614
-0.425333
-0.433042
-0.587292
-0.548244
-0.5194
-0.495925
-0.475248
-0.45755
-0.44299
-0.43182
-0.425515
-0.424068
-0.61223
-0.568873
-0.537159
-0.511249
-0.487992
-0.467366
-0.449333
-0.433768
-0.421093
-0.411355
-0.634772
-0.587662
-0.553358
-0.52496
-0.498766
-0.474626
-0.452419
-0.431834
-0.412707
-0.395811
-0.65363
-0.603397
-0.566764
-0.53577
-0.506282
-0.478158
-0.451362
-0.425594
-0.400438
-0.377681
-0.667245
-0.614622
-0.575915
-0.542198
-0.509111
-0.476704
-0.445199
-0.414446
-0.383999
-0.356727
-0.673853
-0.619699
-0.579187
-0.542648
-0.505776
-0.469011
-0.432966
-0.397727
-0.36293
-0.332452
-0.671587
-0.616886
-0.574886
-0.53551
-0.494848
-0.453908
-0.41378
-0.374801
-0.336717
-0.304268
-0.658594
-0.604444
-0.561343
-0.519257
-0.475036
-0.430394
-0.386915
-0.345144
-0.304915
-0.271644
-0.633138
-0.580731
-0.537022
-0.492553
-0.445285
-0.397711
-0.351865
-0.308421
-0.267237
-0.234209
-0.59375
-0.544342
-0.500647
-0.45436
-0.404859
-0.355413
-0.308408
-0.264541
-0.223621
-0.19183
-0.539335
-0.49422
-0.45131
-0.404032
-0.353407
-0.303403
-0.256624
-0.213685
-0.174273
-0.144649
-0.469292
-0.42977
-0.388566
-0.341374
-0.290986
-0.241935
-0.196892
-0.156304
-0.119669
-0.0930937
-0.383621
-0.35096
-0.312511
-0.266679
-0.21806
-0.17157
-0.129814
-0.0930182
-0.0604462
-0.0377893
-0.283014
-0.258398
-0.223827
-0.180749
-0.135487
-0.0931539
-0.0561631
-0.0245273
0.0026745
0.0204375
-0.168913
-0.153373
-0.123804
-0.0848755
-0.0445063
-0.00782738
0.0230037
0.0480503
0.0681512
0.0795561
-0.0435302
-0.0378609
-0.0142932
0.0192677
0.0534978
0.0833561
0.106827
0.123501
0.13346
0.135849
0.0901778
0.0854948
0.102291
0.129649
0.157202
0.18022
0.196733
0.205122
0.204106
0.197391
0.228634
0.213427
0.222844
0.243374
0.264148
0.281283
0.293507
0.299004
0.297969
0.311902
0.367942
0.342291
0.343753
0.356588
0.369626
0.379615
0.385682
0.386935
0.385868
0.398805
0.504158
0.468412
0.461608
0.466171
0.470836
0.472924
0.47187
0.467256
0.461571
0.466684
0.633437
0.588184
0.573119
0.569224
0.565331
0.559348
0.551017
0.540187
0.528933
0.526098
0.752116
0.698168
0.675193
0.663086
0.650922
0.637175
0.621865
0.60503
0.588362
0.578419
0.856812
0.795196
0.76501
0.745364
0.725654
0.704876
0.683288
0.661075
0.63956
0.623405
0.944508
0.876462
0.840084
0.813945
0.787778
0.761024
0.734142
0.707428
0.681851
0.660493
1.01265
0.9396
0.898323
0.867042
0.83579
0.804358
0.773357
0.743166
0.714442
0.689026
1.05924
0.982757
0.93809
0.903251
0.868495
0.833853
0.800039
0.767484
0.736615
0.708412
1.08288
1.00466
0.958261
0.921604
0.885061
0.848787
0.813546
0.779796
0.747841
0.718219
1.08288
1.00466
0.958261
0.921604
0.885061
0.848787
0.813546
0.779796
0.747841
0.718219
1.05924
0.982758
0.938091
0.903252
0.868495
0.833853
0.800039
0.767484
0.736615
0.708412
1.01265
0.939601
0.898324
0.867042
0.83579
0.804358
0.773357
0.743166
0.714442
0.689026
0.94451
0.876464
0.840085
0.813946
0.787778
0.761024
0.734142
0.707428
0.681851
0.660493
0.856814
0.795198
0.765011
0.745365
0.725655
0.704876
0.683288
0.661075
0.639559
0.623405
0.752119
0.69817
0.675194
0.663087
0.650923
0.637176
0.621865
0.60503
0.588361
0.578418
0.63344
0.588187
0.573121
0.569225
0.565332
0.559349
0.551017
0.540187
0.528932
0.526097
0.504161
0.468415
0.46161
0.466173
0.470836
0.472925
0.47187
0.467256
0.46157
0.466683
0.367945
0.342293
0.343755
0.35659
0.369627
0.379615
0.385682
0.386935
0.385867
0.398805
0.228637
0.21343
0.222846
0.243375
0.264149
0.281283
0.293507
0.299003
0.297968
0.311902
0.0901805
0.085497
0.102293
0.12965
0.157202
0.180221
0.196733
0.205122
0.204106
0.197392
-0.0435278
-0.037859
-0.0142918
0.0192686
0.0534982
0.0833561
0.106827
0.1235
0.133459
0.135849
-0.168911
-0.153372
-0.123803
-0.084875
-0.0445063
-0.00782766
0.0230031
0.0480495
0.0681503
0.0795553
-0.283013
-0.258397
-0.223827
-0.180749
-0.135488
-0.0931546
-0.056164
-0.0245284
0.00267328
0.0204362
-0.38362
-0.35096
-0.312511
-0.26668
-0.21806
-0.171571
-0.129815
-0.0930197
-0.0604478
-0.0377909
-0.469292
-0.429771
-0.388568
-0.341375
-0.290987
-0.241936
-0.196894
-0.156306
-0.119671
-0.0930957
-0.539336
-0.494222
-0.451312
-0.404034
-0.353409
-0.303405
-0.256626
-0.213687
-0.174275
-0.144651
-0.593753
-0.544345
-0.50065
-0.454363
-0.404862
-0.355416
-0.30841
-0.264544
-0.223623
-0.191832
-0.633142
-0.580735
-0.537026
-0.492557
-0.445289
-0.397715
-0.351869
-0.308425
-0.26724
-0.234212
-0.658598
-0.604449
-0.561348
-0.519262
-0.475041
-0.430399
-0.386919
-0.345148
-0.304919
-0.271647
-0.671593
-0.616892
-0.574892
-0.535516
-0.494853
-0.453913
-0.413785
-0.374805
-0.336721
-0.304272
-0.673859
-0.619706
-0.579194
-0.542655
-0.505782
-0.469017
-0.432972
-0.397732
-0.362935
-0.332457
-0.667253
-0.61463
-0.575922
-0.542205
-0.509118
-0.476711
-0.445205
-0.414452
-0.384005
-0.356732
-0.653639
-0.603406
-0.566773
-0.535779
-0.50629
-0.478166
-0.45137
-0.425601
-0.400444
-0.377687
-0.634781
-0.587671
-0.553367
-0.524969
-0.498775
-0.474635
-0.452427
-0.431842
-0.412714
-0.395818
-0.612241
-0.568884
-0.537169
-0.51126
-0.488002
-0.467376
-0.449342
-0.433777
-0.421101
-0.411363
-0.587303
-0.548255
-0.519411
-0.495936
-0.475259
-0.457561
-0.443
-0.431829
-0.425524
-0.424076
-0.560961
-0.526722
-0.50104
-0.480008
-0.461605
-0.446193
-0.434135
-0.42615
-0.425343
-0.433052
-0.533966
-0.504954
-0.482683
-0.464122
-0.447747
-0.434017
-0.423404
-0.416963
-0.419821
-0.436984
-0.506969
-0.483426
-0.464656
-0.448455
-0.433691
-0.420734
-0.409924
-0.401897
-0.401942
-0.42137
-0.480694
-0.462596
-0.447233
-0.433128
-0.419309
-0.405573
-0.391163
-0.373446
-0.348348
-0.324324
-0.455966
-0.443044
-0.431033
-0.419249
-0.407171
-0.394689
-0.381406
-0.365796
-0.345656
-0.328302
-0.433473
-0.425196
-0.416324
-0.406908
-0.396913
-0.386421
-0.375347
-0.36306
-0.349069
-0.338588
-0.413648
-0.409316
-0.403209
-0.395956
-0.387913
-0.379279
-0.370112
-0.360181
-0.34964
-0.342149
-0.396707
-0.395579
-0.391801
-0.386436
-0.380131
-0.373172
-0.365719
-0.357776
-0.349663
-0.343672
-0.382704
-0.384084
-0.382193
-0.378408
-0.373583
-0.368056
-0.362054
-0.355717
-0.349383
-0.34431
-0.371608
-0.374874
-0.374446
-0.371914
-0.368275
-0.363891
-0.359022
-0.353886
-0.348803
-0.344323
-0.363355
-0.367963
-0.368599
-0.366994
-0.364237
-0.3607
-0.356656
-0.352365
-0.348131
-0.344041
-0.357886
-0.363356
-0.364683
-0.363688
-0.361513
-0.358533
-0.355024
-0.351271
-0.347566
-0.343721
-0.355161
-0.361051
-0.362719
-0.362027
-0.36014
-0.357434
-0.354188
-0.350697
-0.347247
-0.343521
-0.29697
-0.131914
-0.0861802
-0.0348618
-0.0231129
-0.0110427
-0.0069221
-0.00189698
-0.0011251
0.00327314
-0.298211
-0.132475
-0.0864635
-0.0350708
-0.0231918
-0.0111145
-0.00696778
-0.00193253
-0.0011461
0.00324674
-0.300622
-0.133579
-0.0870226
-0.0354908
-0.0233513
-0.0112587
-0.00705821
-0.00200211
-0.00118614
0.003195
-0.30406
-0.1352
-0.0878446
-0.0361227
-0.0235899
-0.0114738
-0.00719214
-0.00210501
-0.00124441
0.00311841
-0.30828
-0.137294
-0.0889016
-0.036963
-0.0239038
-0.0117566
-0.00736696
-0.00223972
-0.00131928
0.00301771
-0.312922
-0.139782
-0.0901415
-0.0379956
-0.0242847
-0.0121012
-0.00757895
-0.00240409
-0.00140883
0.00289401
-0.317857
-0.142732
-0.0915674
-0.0392132
-0.0247305
-0.012502
-0.00782469
-0.00259483
-0.00151189
0.00274979
-0.323605
-0.1468
-0.0934427
-0.0407159
-0.0252834
-0.0129703
-0.00810898
-0.00281027
-0.00162976
0.00258906
-0.328433
-0.152369
-0.0959488
-0.0426719
-0.0259976
-0.0135361
-0.008443
-0.00305871
-0.00175935
0.00240708
-0.320659
-0.1548
-0.0971067
-0.044428
-0.0265726
-0.0141041
-0.00877444
-0.00334912
-0.00186615
0.00217055
-0.254128
-0.146785
-0.0935517
-0.0477968
-0.0272747
-0.0156834
-0.00973772
-0.00446622
-0.00212624
0.00115079
-0.195703
-0.137636
-0.087418
-0.0491436
-0.0289843
-0.0180748
-0.0115996
-0.00614875
-0.00297022
-2.44178e-05
-0.153915
-0.119539
-0.07778
-0.0474703
-0.0301763
-0.020047
-0.0132657
-0.00769273
-0.00386323
-0.000897834
-0.114039
-0.0984161
-0.0681799
-0.0452719
-0.0309597
-0.0215588
-0.014602
-0.00897093
-0.00465454
-0.00148815
-0.084609
-0.0809753
-0.0612487
-0.0438484
-0.0315697
-0.0226713
-0.0156414
-0.00996975
-0.00531769
-0.00186584
-0.0643837
-0.0680047
-0.0561951
-0.0427326
-0.0318261
-0.0233535
-0.0163874
-0.0107158
-0.0058457
-0.00210465
-0.0512633
-0.0586548
-0.0522677
-0.0416825
-0.0318078
-0.0237269
-0.0169049
-0.0112617
-0.00624856
-0.00225834
-0.0429523
-0.0521337
-0.0492606
-0.0407761
-0.031695
-0.0239304
-0.0172548
-0.0116458
-0.00653841
-0.0023567
-0.0380877
-0.0479933
-0.047225
-0.0401411
-0.0316009
-0.0240396
-0.0174689
-0.0118876
-0.00672532
-0.0024141
-0.035836
-0.045972
-0.0462007
-0.0398294
-0.031561
-0.0240876
-0.0175687
-0.0120003
-0.00681869
-0.00243763
-0.225025
-0.25294
-0.278741
-0.302712
-0.325237
-0.346821
-0.368078
-0.389652
-0.412035
-0.435895
-0.0741244
-0.0842664
-0.0934313
-0.101862
-0.109865
-0.117822
-0.12619
-0.135509
-0.14636
-0.160533
-0.0511762
-0.0603489
-0.0691366
-0.0775127
-0.08544
-0.0928735
-0.0997701
-0.106103
-0.111868
-0.117189
-0.0246193
-0.0303272
-0.0358289
-0.0411437
-0.0462936
-0.0513018
-0.0561917
-0.0609855
-0.065683
-0.0701661
-0.0188189
-0.0231618
-0.0273801
-0.0314703
-0.0354289
-0.0392517
-0.0429353
-0.0464769
-0.0498569
-0.0530458
-0.0136886
-0.0168925
-0.0200369
-0.0231208
-0.0261437
-0.0291052
-0.0320047
-0.034841
-0.0376023
-0.0402936
-0.0125106
-0.0150342
-0.0175212
-0.0199676
-0.0223698
-0.0247249
-0.0270303
-0.0292835
-0.0314785
-0.0336294
-0.0116683
-0.013713
-0.0157408
-0.0177476
-0.0197298
-0.0216839
-0.0236069
-0.0254957
-0.0273471
-0.0291686
-0.0115541
-0.0133157
-0.015069
-0.0168093
-0.0185327
-0.020235
-0.0219128
-0.0235629
-0.0251832
-0.0267752
-0.0114847
-0.0130977
-0.0147077
-0.0163108
-0.0179036
-0.0194825
-0.0210446
-0.0225869
-0.024108
-0.0256061
0.161639
0.120638
0.0752894
0.0322191
-0.00952314
-0.0504066
-0.0898146
-0.127165
-0.162191
-0.194808
0.111311
0.0853959
0.0586155
0.0357867
0.0156731
-0.00299543
-0.0203009
-0.0360326
-0.0501643
-0.0628113
0.0673122
0.0516191
0.0366803
0.0237815
0.0119412
0.000485004
-0.0106573
-0.021398
-0.031714
-0.0416323
0.0471711
0.0381065
0.0294921
0.0217956
0.0145417
0.00746135
0.000557221
-0.00611206
-0.0125254
-0.0186899
0.0317278
0.0257853
0.0200582
0.0147804
0.0097021
0.00469304
-0.000239688
-0.00506475
-0.00976975
-0.0143543
0.021545
0.0176651
0.0138316
0.0102057
0.0066747
0.00317106
-0.000303581
-0.00373252
-0.00710748
-0.0104265
0.0139037
0.0111838
0.00843898
0.005773
0.00313769
0.000500371
-0.00213706
-0.00476343
-0.00737092
-0.00995472
0.00876948
0.00678264
0.00474677
0.0027235
0.000696139
-0.0013488
-0.00340889
-0.00547661
-0.00754563
-0.00961104
0.00546936
0.00388241
0.00224722
0.0005927
-0.00108594
-0.00279178
-0.00452093
-0.00626724
-0.00802495
-0.00978892
0.00388867
0.00247601
0.00102056
-0.000463526
-0.00197684
-0.00351832
-0.00508363
-0.0066676
-0.0082654
-0.00987253
0.329194
0.328493
0.32694
0.324061
0.319069
0.310728
0.297266
0.276289
0.245161
0.200515
0.239358
0.238241
0.235604
0.231016
0.224142
0.214551
0.201673
0.184851
0.163335
0.13657
0.168603
0.167474
0.164806
0.160281
0.15379
0.145225
0.134397
0.121092
0.104903
0.085914
0.117072
0.116186
0.114084
0.110523
0.105485
0.098995
0.0910479
0.0816528
0.0707319
0.0586202
0.0808125
0.0801685
0.0786307
0.0760195
0.0723423
0.0676515
0.0619814
0.0553701
0.0477981
0.039474
0.0556995
0.0552368
0.0541298
0.0522502
0.0496114
0.0462645
0.0422514
0.0376159
0.0323759
0.0266775
0.0386033
0.0382655
0.0374571
0.0360848
0.0341602
0.0317237
0.028809
0.0254488
0.0216627
0.0175346
0.0273601
0.0271041
0.0264914
0.0254515
0.0239938
0.0221496
0.0199457
0.0174074
0.014555
0.0114405
0.020553
0.0203453
0.0198485
0.0190054
0.0178234
0.0163275
0.014539
0.0124767
0.0101586
0.00761592
0.017347
0.0171613
0.0167181
0.0159664
0.0149123
0.013578
0.0119821
0.0101409
0.00807129
0.00579601
0.479119
0.480871
0.487203
0.498347
0.514195
0.535052
0.561382
0.593711
0.632576
0.678224
0.476878
0.478605
0.484857
0.495844
0.511444
0.531923
0.557689
0.58918
0.626797
0.670631
0.472449
0.47413
0.480229
0.490913
0.506027
0.525765
0.55042
0.580258
0.615405
0.655654
0.46593
0.467557
0.473445
0.483698
0.498111
0.516772
0.539806
0.567219
0.598723
0.633699
0.457462
0.459038
0.464678
0.474394
0.487921
0.505213
0.526168
0.550453
0.577215
0.605352
0.447212
0.448761
0.454132
0.46323
0.475717
0.491385
0.509867
0.530407
0.551453
0.57135
0.435377
0.436965
0.44209
0.450525
0.46186
0.4757
0.491371
0.507622
0.522112
0.532559
0.422162
0.423976
0.428989
0.436834
0.447044
0.459006
0.471668
0.48314
0.490195
0.489772
0.407637
0.409928
0.415019
0.4224
0.431589
0.441754
0.451396
0.457797
0.456574
0.442484
0.391441
0.393875
0.398539
0.40479
0.412162
0.419704
0.425642
0.426753
0.418272
0.39055
0.391442
0.393876
0.39854
0.404791
0.412164
0.419706
0.425643
0.426754
0.418273
0.39055
0.407639
0.409929
0.41502
0.422401
0.43159
0.441755
0.451397
0.457797
0.456574
0.442483
0.422163
0.423978
0.42899
0.436835
0.447045
0.459007
0.471669
0.48314
0.490195
0.489772
0.435378
0.436966
0.442091
0.450526
0.461861
0.475701
0.491372
0.507622
0.522112
0.532558
0.447213
0.448762
0.454133
0.463231
0.475718
0.491385
0.509867
0.530406
0.551452
0.571349
0.457463
0.459039
0.464678
0.474395
0.487922
0.505213
0.526168
0.550452
0.577214
0.605351
0.465931
0.467558
0.473446
0.483698
0.498111
0.516773
0.539806
0.567219
0.598722
0.633698
0.472449
0.474131
0.480229
0.490914
0.506027
0.525765
0.55042
0.580257
0.615405
0.655654
0.476878
0.478605
0.484857
0.495845
0.511444
0.531923
0.557689
0.58918
0.626797
0.670631
0.479119
0.480871
0.487203
0.498347
0.514195
0.535052
0.561382
0.593711
0.632576
0.678224
0.0173502
0.0171645
0.0167213
0.0159695
0.0149155
0.0135812
0.0119853
0.010144
0.00807434
0.00579904
0.0205562
0.0203485
0.0198517
0.0190086
0.0178266
0.0163306
0.0145421
0.0124798
0.0101616
0.00761893
0.0273632
0.0271072
0.0264945
0.0254546
0.0239969
0.0221526
0.0199488
0.0174104
0.014558
0.0114435
0.0386062
0.0382684
0.03746
0.0360877
0.0341632
0.0317266
0.0288119
0.0254517
0.0216655
0.0175375
0.0557023
0.0552395
0.0541325
0.052253
0.0496141
0.0462672
0.0422541
0.0376186
0.0323785
0.0266802
0.080815
0.080171
0.0786332
0.076022
0.0723448
0.067654
0.0619838
0.0553725
0.0478005
0.0394764
0.117074
0.116189
0.114087
0.110525
0.105487
0.0989972
0.09105
0.0816548
0.0707339
0.0586222
0.168605
0.167476
0.164808
0.160283
0.153792
0.145227
0.134399
0.121094
0.104904
0.0859157
0.23936
0.238243
0.235606
0.231018
0.224144
0.214553
0.201675
0.184852
0.163336
0.136571
0.329196
0.328495
0.326942
0.324062
0.319071
0.31073
0.297268
0.27629
0.245162
0.200517
0.00389165
0.00247891
0.00102337
-0.000460835
-0.00197428
-0.00351588
-0.0050813
-0.00666538
-0.00826327
-0.00987049
0.00547232
0.00388529
0.00225
0.000595361
-0.00108342
-0.00278939
-0.00451866
-0.00626508
-0.00802289
-0.00978694
0.00877241
0.00678552
0.00474955
0.00272613
0.00069861
-0.00134648
-0.0034067
-0.00547454
-0.00754366
-0.00960915
0.0139065
0.0111866
0.00844169
0.00577556
0.00314008
0.000502601
-0.00213496
-0.00476145
-0.00736905
-0.00995293
0.0215476
0.0176677
0.0138341
0.010208
0.00667682
0.00317303
-0.000301753
-0.00373081
-0.00710587
-0.010425
0.0317301
0.0257876
0.0200604
0.0147824
0.00970395
0.00469474
-0.000238121
-0.0050633
-0.00976841
-0.014353
0.047173
0.0381084
0.0294939
0.0217972
0.0145432
0.00746267
0.000558395
-0.00611103
-0.0125245
-0.0186891
0.0673138
0.0516207
0.0366818
0.0237828
0.0119423
0.000485796
-0.0106568
-0.0213977
-0.0317139
-0.0416323
0.111313
0.0853971
0.0586163
0.0357871
0.0156731
-0.00299583
-0.0203017
-0.0360338
-0.0501657
-0.0628129
0.161641
0.120639
0.0752893
0.0322182
-0.00952455
-0.0504084
-0.0898167
-0.127167
-0.162194
-0.19481
-0.0114827
-0.0130958
-0.0147058
-0.016309
-0.0179017
-0.0194807
-0.0210428
-0.0225853
-0.0241066
-0.0256048
-0.0115522
-0.0133139
-0.0150671
-0.0168075
-0.0185308
-0.0202331
-0.021911
-0.0235612
-0.0251817
-0.0267738
-0.0116665
-0.0137113
-0.0157391
-0.017746
-0.0197281
-0.0216823
-0.0236053
-0.0254942
-0.0273457
-0.0291673
-0.0125089
-0.0150325
-0.0175196
-0.019966
-0.0223683
-0.0247234
-0.0270288
-0.0292821
-0.0314772
-0.0336282
-0.0136872
-0.0168911
-0.0200355
-0.0231194
-0.0261423
-0.0291038
-0.0320034
-0.0348397
-0.0376012
-0.0402925
-0.0188177
-0.0231607
-0.027379
-0.0314692
-0.0354277
-0.0392505
-0.0429342
-0.0464758
-0.0498558
-0.0530447
-0.0246186
-0.0303265
-0.0358283
-0.0411431
-0.0462928
-0.0513009
-0.0561908
-0.0609844
-0.0656819
-0.0701648
-0.0511763
-0.060349
-0.0691366
-0.0775126
-0.0854396
-0.0928729
-0.0997692
-0.106102
-0.111867
-0.117187
-0.074126
-0.084268
-0.0934327
-0.101863
-0.109866
-0.117823
-0.12619
-0.13551
-0.14636
-0.160533
-0.225028
-0.252942
-0.278743
-0.302714
-0.325239
-0.346823
-0.36808
-0.389654
-0.412037
-0.435898
-0.0358348
-0.0459714
-0.0462014
-0.0398323
-0.0315655
-0.0240906
-0.0175701
-0.011999
-0.00681806
-0.00243639
-0.0380865
-0.0479925
-0.0472256
-0.0401442
-0.0316056
-0.0240429
-0.0174703
-0.0118861
-0.00672458
-0.00241273
-0.0429511
-0.0521326
-0.0492611
-0.0407796
-0.0317005
-0.0239342
-0.0172562
-0.011644
-0.00653731
-0.00235509
-0.0512619
-0.0586532
-0.0522679
-0.0416868
-0.0318145
-0.0237314
-0.0169061
-0.0112591
-0.00624666
-0.00225625
-0.0643822
-0.0680021
-0.0561948
-0.0427382
-0.031835
-0.0233592
-0.0163883
-0.0107119
-0.00584221
-0.00210169
-0.0846072
-0.080971
-0.0612477
-0.043856
-0.0315818
-0.0226788
-0.0156416
-0.00996375
-0.00531132
-0.00186139
-0.114036
-0.0984089
-0.0681787
-0.0452833
-0.0309769
-0.0215688
-0.014601
-0.00896154
-0.00464356
-0.00148146
-0.15391
-0.119525
-0.0777779
-0.0474879
-0.0302016
-0.0200611
-0.0132634
-0.00767902
-0.00384605
-0.0008882
-0.195695
-0.137611
-0.0874107
-0.0491672
-0.0290197
-0.0180953
-0.0115976
-0.00613163
-0.00294704
-1.17898e-05
-0.254122
-0.14675
-0.0935349
-0.0478197
-0.027315
-0.0157092
-0.00973859
-0.00444964
-0.00210118
0.00116475
-0.320656
-0.154765
-0.0970885
-0.0444454
-0.0266056
-0.0141261
-0.00877675
-0.00333708
-0.00184613
0.00218186
-0.328431
-0.152335
-0.095931
-0.0426882
-0.0260286
-0.0135568
-0.00844539
-0.00304778
-0.00174087
0.0024175
-0.323602
-0.146766
-0.0934261
-0.0407317
-0.0253124
-0.0129895
-0.00811116
-0.00280031
-0.00161295
0.0025985
-0.317852
-0.142701
-0.0915522
-0.039228
-0.0247571
-0.0125195
-0.00782683
-0.00258607
-0.00149699
0.00275815
-0.312917
-0.139753
-0.0901278
-0.0380089
-0.0243082
-0.0121166
-0.00758071
-0.00239639
-0.00139581
0.00290129
-0.308275
-0.137269
-0.0888897
-0.0369744
-0.0239238
-0.0117697
-0.00736841
-0.00223325
-0.00130836
0.00302382
-0.304055
-0.13518
-0.0878349
-0.0361318
-0.023606
-0.0114843
-0.00719323
-0.00209985
-0.00123574
0.00312327
-0.300618
-0.133564
-0.0870153
-0.0354975
-0.0233631
-0.0112664
-0.00705902
-0.00199841
-0.00117993
0.00319851
-0.298209
-0.132466
-0.086459
-0.0350749
-0.023199
-0.0111192
-0.00696811
-0.00193015
-0.00114224
0.00324892
-0.296969
-0.131911
-0.0861787
-0.0348632
-0.0231153
-0.0110444
-0.00692236
-0.00189632
-0.00112392
0.00327383
)
;

boundaryField
{
    inlet
    {
        type            zeroGradient;
    }
    outlet
    {
        type            fixedValue;
        value           uniform 0;
    }
    cylinder
    {
        type            zeroGradient;
    }
    top
    {
        type            symmetryPlane;
    }
    bottom
    {
        type            symmetryPlane;
    }
    defaultFaces
    {
        type            empty;
    }
}


// ************************************************************************* //
