/*--------------------------------*- C++ -*----------------------------------*\
  =========                 |
  \\      /  F ield         | OpenFOAM: The Open Source CFD Toolbox
   \\    /   O peration     | Website:  https://openfoam.org
    \\  /    A nd           | Version:  6.0
     \\/     M anipulation  |
\*---------------------------------------------------------------------------*/
FoamFile
{
    version     2.0;
    format      ascii;
    class       surfaceScalarField;
    location    "15";
    object      phi;
}
// * * * * * * * * * * * * * * * * * * * * * * * * * * * * * * * * * * * * * //

dimensions      [0 3 -1 0 0 0 0];

internalField   nonuniform List<scalar> 
3880
(
-1.79646e-05
1.797e-05
-5.42824e-09
-5.34173e-05
3.54699e-05
-1.71778e-08
-9.51739e-05
4.17856e-05
-2.89575e-08
-0.00013616
4.10261e-05
-4.0202e-08
-0.00017201
3.59007e-05
-5.06706e-08
-0.000200312
2.83622e-05
-6.0328e-08
-0.000220136
1.98929e-05
-6.92133e-08
-0.000231725
1.16673e-05
-7.74175e-08
-0.000236299
4.65868e-06
-8.52476e-08
-3.545e-07
-9.29234e-08
-0.000235851
-1.72831e-05
3.52532e-05
-5.0759e-05
6.89457e-05
-8.93824e-05
8.0409e-05
-0.000126191
7.78352e-05
-0.000156862
6.6571e-05
-0.000178947
5.04478e-05
-0.000191431
3.23761e-05
-0.000194456
1.46922e-05
-0.000189184
-6.1284e-07
-1.18934e-05
-0.000177645
-1.58853e-05
5.11385e-05
-4.53272e-05
9.83876e-05
-7.75989e-05
0.000112681
-0.000106008
0.000106244
-0.000126356
8.69186e-05
-0.000136164
6.0256e-05
-0.000134257
3.04691e-05
-0.000120571
1.00601e-06
-9.61293e-05
-2.50541e-05
-4.50083e-05
-6.30143e-05
-1.36844e-05
6.48229e-05
-3.68418e-05
0.000121545
-5.93184e-05
0.000135157
-7.49299e-05
0.000121856
-7.97776e-05
9.17663e-05
-7.14382e-05
5.19165e-05
-4.85616e-05
7.59252e-06
-1.07669e-05
-3.67886e-05
4.11911e-05
-7.70121e-05
-0.000109025
0.000105208
-1.05178e-05
7.53408e-05
-2.47873e-05
0.000135814
-3.35759e-05
0.000143946
-3.15471e-05
0.000119827
-1.541e-05
7.56291e-05
1.69644e-05
1.95422e-05
6.69853e-05
-4.24284e-05
0.000135411
-0.000105214
0.000221954
-0.000163555
-0.000211674
0.000324603
-6.13505e-06
8.14758e-05
-8.37807e-06
0.000138058
1.15998e-06
0.000134408
2.65514e-05
9.44357e-05
7.00274e-05
3.21531e-05
0.000132953
-4.33836e-05
0.000216411
-0.000125886
0.000321404
-0.000210208
0.000448345
-0.000290495
-0.000358815
0.000595485
-2.25272e-07
8.17011e-05
1.33582e-05
0.000124474
4.68747e-05
0.000100891
0.000102744
3.8566e-05
0.000181618
-4.67206e-05
0.000283382
-0.000145148
0.000407948
-0.000250452
0.000555861
-0.000358121
0.00072819
-0.000462824
-0.000554641
0.000924016
7.49426e-06
7.42068e-05
4.13007e-05
9.06675e-05
0.000105486
3.67062e-05
0.000200647
-5.65955e-05
0.000325495
-0.000171568
0.000477653
-0.000297306
0.000654501
-0.000427299
0.000854318
-0.000557939
0.00107755
-0.000686058
-0.000804627
0.00132754
1.71308e-05
5.7076e-05
7.57604e-05
3.20379e-05
0.000177877
-6.54108e-05
0.000322568
-0.000201286
0.000506883
-0.000355883
0.000726054
-0.000516477
0.0009738
-0.000675045
0.00124329
-0.000827431
0.00153075
-0.000973511
-0.00112391
0.00185002
2.84185e-05
2.86575e-05
0.000115821
-5.53647e-05
0.000262405
-0.000211995
0.000466761
-0.000405642
0.000726091
-0.000615212
0.00103592
-0.000826305
0.00138944
-0.00102857
0.00177584
-0.00121383
0.0021794
-0.00137707
-0.00152218
0.00257768
4.05445e-05
-1.1887e-05
0.000158634
-0.000173454
0.00035264
-0.000406001
0.000621279
-0.000674281
0.000963906
-0.00095784
0.00138119
-0.00124359
0.00187633
-0.00152371
0.0024584
-0.0017959
0.00315024
-0.00206891
-0.00238098
0.00400903
5.2431e-05
-6.4318e-05
0.000200212
-0.000321236
0.000438536
-0.000644325
0.000763857
-0.000999602
0.00117346
-0.00136744
0.00166542
-0.00173555
0.00223864
-0.00209693
0.0028922
-0.00244946
0.00362058
-0.00279729
-0.00314936
0.00438897
6.35598e-05
-0.000127878
0.000238509
-0.000496185
0.000515375
-0.00092119
0.000886103
-0.00137033
0.00134288
-0.00182422
0.00187754
-0.0022702
0.00248082
-0.00270021
0.0031409
-0.00310955
0.00383921
-0.0034956
-0.00385218
0.00454203
7.39498e-05
-0.000201828
0.000273246
-0.000695481
0.000582609
-0.00123055
0.000988206
-0.00177593
0.00147611
-0.00231213
0.00203167
-0.00282577
0.00263907
-0.0033076
0.00328055
-0.00375103
0.00393488
-0.00414992
-0.00449304
0.00457573
8.37425e-05
-0.00028557
0.000304562
-0.000916301
0.000640497
-0.00156649
0.00107131
-0.00220674
0.00157694
-0.00281775
0.00213715
-0.00338597
0.00273171
-0.00390216
0.00334051
-0.00435983
0.00394343
-0.00475285
-0.00507031
0.0045207
9.29257e-05
-0.000378496
0.000332195
-0.00115557
0.000688459
-0.00192275
0.00113487
-0.00265315
0.00164563
-0.00332852
0.00219618
-0.00393652
0.00276377
-0.00446975
0.00332813
-0.00492419
0.00387183
-0.00529655
-0.00557958
0.0043811
0.000101255
-0.000479751
0.000355261
-0.00140958
0.000724784
-0.00229228
0.00117646
-0.00310483
0.00167958
-0.00383164
0.0022066
-0.00446354
0.00273401
-0.00499716
0.00324299
-0.00543317
0.00371976
-0.00577332
-0.00601604
0.00415622
0.000108301
-0.000588052
0.000372416
-0.00167369
0.000747054
-0.00266691
0.00119283
-0.00355061
0.00167523
-0.00431403
0.00216529
-0.00495359
0.00264035
-0.00547223
0.00308439
-0.00587721
0.00348786
-0.00617679
-0.00637612
0.00384794
0.000113541
-0.000701593
0.000382151
-0.0019423
0.000752763
-0.00303753
0.00118092
-0.00397876
0.00162972
-0.00476284
0.00207046
-0.00539433
0.00248283
-0.0058846
0.00285452
-0.00624891
0.00318052
-0.00650278
-0.00665822
0.00346262
0.000116443
-0.000818036
0.000383054
-0.00220891
0.000739836
-0.00339431
0.00113863
-0.00437756
0.00154191
-0.00516612
0.0019228
-0.00577522
0.00226453
-0.00622632
0.00255913
-0.00654351
0.00280592
-0.00674958
-0.00686281
0.00301051
0.000116546
-0.000934582
0.000374025
-0.00246639
0.000706963
-0.00372724
0.00106531
-0.00473591
0.00141269
-0.0055135
0.00172554
-0.00608807
0.00199143
-0.00649221
0.00220684
-0.00675892
0.00237499
-0.00691772
-0.0069921
0.00250427
0.000113447
-0.00104803
0.000354302
-0.00270725
0.000653643
-0.00402658
0.000961605
-0.00504387
0.00124474
-0.00579664
0.00148391
-0.00632724
0.00167143
-0.00667972
0.00180795
-0.00689545
0.00189984
-0.00700961
-0.00704959
0.00195733
0.000106889
-0.00115492
0.000323605
-0.00292396
0.000580297
-0.00428328
0.000829497
-0.00529307
0.00104225
-0.0060094
0.00120459
-0.00648958
0.00131353
-0.00678866
0.00137333
-0.00695524
0.00139263
-0.00702892
-0.00703959
0.00138263
9.67262e-05
-0.00125164
0.000282058
-0.00310929
0.000488081
-0.0044893
0.000671888
-0.00547688
0.000810285
-0.00614779
0.000894811
-0.00657411
0.000926806
-0.00682065
0.000913353
-0.00694179
0.000864521
-0.00698009
-0.00696677
0.000791707
8.29405e-05
-0.00133459
0.000230179
-0.00325653
0.00037876
-0.00463788
0.000492303
-0.00559042
0.000554261
-0.00620975
0.000561685
-0.00658153
0.000519652
-0.00677862
0.000437188
-0.00685933
0.00032495
-0.00686785
-0.00683588
0.000194057
6.565e-05
-0.00140023
0.000168853
-0.00335973
0.00025459
-0.00472362
0.000294626
-0.00563046
0.000279565
-0.00619469
0.000211714
-0.00651368
9.92154e-05
-0.00666612
-4.77967e-05
-0.00671231
-0.000218826
-0.00669682
-0.00665147
-0.000403236
4.51254e-05
-0.00144536
9.93416e-05
-0.00341395
0.000118275
-0.00474255
8.30054e-05
-0.00559519
-8.60101e-06
-0.00610308
-0.000149408
-0.00637287
-0.000328824
-0.00648671
-0.00053627
-0.00650487
-0.000762021
-0.00647107
-0.00641733
-0.00099616
2.18167e-05
-0.00146718
2.33144e-05
-0.00341545
-2.69979e-05
-0.00469224
-0.0001381
-0.00548409
-0.000305131
-0.00593605
-0.000516676
-0.00616133
-0.000760153
-0.00624323
-0.00102492
-0.0062401
-0.00130255
-0.00619344
-0.00613392
-0.00158596
-3.60618e-06
-0.00146357
-5.70725e-05
-0.00336198
-0.000177444
-0.00457187
-0.000363765
-0.00529777
-0.000604928
-0.00569489
-0.000886028
-0.00588023
-0.00119283
-0.00593643
-0.0015145
-0.00591843
-0.00184399
-0.00586395
-0.00579427
-0.00218364
-3.01888e-05
-0.00143338
-0.000139
-0.00325317
-0.000328221
-0.00438265
-0.000587619
-0.00503837
-0.000901351
-0.00538116
-0.0012528
-0.00552878
-0.00162742
-0.0055618
-0.00201482
-0.00553103
-0.00241104
-0.00546773
-0.00540679
-0.00279852
-5.6698e-05
-0.00137668
-0.00021895
-0.00309092
-0.00047292
-0.00412868
-0.000799753
-0.00471154
-0.0011803
-0.00500061
-0.00159864
-0.00511044
-0.00204346
-0.00511698
-0.00250751
-0.00506699
-0.00298987
-0.00498537
-0.00487017
-0.00352649
-8.20587e-05
-0.00129463
-0.000293881
-0.0028791
-0.000605795
-0.00381676
-0.00099005
-0.00432728
-0.00142309
-0.00456757
-0.00188685
-0.00464668
-0.00236833
-0.00463549
-0.00285856
-0.00457676
-0.00335135
-0.00449257
-0.00439101
-0.00383051
-0.000105634
-0.00118899
-0.000362413
-0.00262232
-0.000725489
-0.00345369
-0.00115883
-0.00389394
-0.0016349
-0.0040915
-0.002134
-0.00414759
-0.00264266
-0.00412683
-0.00315189
-0.00406752
-0.00365452
-0.00398994
-0.00390458
-0.00414096
-0.000127079
-0.00106191
-0.000423961
-0.00232544
-0.000831895
-0.00304575
-0.00130767
-0.00341816
-0.00182074
-0.00357843
-0.00235064
-0.0036177
-0.00288429
-0.00359318
-0.00341354
-0.00353827
-0.00393281
-0.00347067
-0.00339985
-0.00443754
-0.000146134
-0.000915778
-0.00047809
-0.00199348
-0.000924835
-0.00259901
-0.00143716
-0.00290584
-0.00198231
-0.00303328
-0.00253967
-0.00306034
-0.00309693
-0.00303591
-0.00364711
-0.0029881
-0.00418623
-0.00293155
-0.00287409
-0.00471199
-0.000162552
-0.000753226
-0.000524347
-0.00163168
-0.00100388
-0.00211948
-0.00154706
-0.00236265
-0.00211958
-0.00246075
-0.00270094
-0.00247898
-0.0032797
-0.00245716
-0.00384992
-0.00241787
-0.00440881
-0.00237267
-0.00232766
-0.00495523
-0.000176081
-0.000577145
-0.00056222
-0.00124555
-0.00106837
-0.00161333
-0.00163664
-0.00179438
-0.00223161
-0.00186578
-0.00283302
-0.00187757
-0.00343018
-0.00186001
-0.004018
-0.00183004
-0.00459447
-0.00179621
-0.00176299
-0.00515914
-0.000186481
-0.000390664
-0.00059119
-0.000840836
-0.00111758
-0.00108694
-0.00170495
-0.00120701
-0.00231713
-0.0012536
-0.0029341
-0.0012606
-0.00354575
-0.00124836
-0.00414762
-0.00122818
-0.00473816
-0.00120566
-0.00118376
-0.00531738
-0.000193544
-0.000197121
-0.000610795
-0.000423585
-0.00115083
-0.00054691
-0.00175108
-0.000606757
-0.00237492
-0.000629752
-0.00300252
-0.000633001
-0.00362415
-0.00062673
-0.00423575
-0.000616581
-0.00483607
-0.000605339
-0.000594461
-0.00542538
-0.000197116
-4.89085e-09
-0.00062069
-1.08955e-08
-0.00116759
-1.41039e-08
-0.00177433
-1.54225e-08
-0.00240406
-1.55303e-08
-0.00303705
-1.49316e-08
-0.00366377
-1.39682e-08
-0.00428034
-1.28545e-08
-0.00488566
-1.17437e-08
-1.07261e-08
-0.00548011
-0.000197116
0.000197111
-0.00062069
0.000423563
-0.00116759
0.000546882
-0.00177433
0.000606726
-0.00240406
0.000629721
-0.00303705
0.000632972
-0.00366377
0.000626702
-0.00428034
0.000616556
-0.00488566
0.000605315
0.00059444
-0.00548011
-0.000193544
0.000390655
-0.000610796
0.000840815
-0.00115083
0.00108691
-0.00175108
0.00120698
-0.00237492
0.00125357
-0.00300252
0.00126057
-0.00362415
0.00124833
-0.00423575
0.00122815
-0.00483607
0.00120564
0.00118374
-0.00542538
-0.000186481
0.000577136
-0.000591191
0.00124552
-0.00111758
0.0016133
-0.00170495
0.00179435
-0.00231713
0.00186575
-0.00293411
0.00187754
-0.00354575
0.00185998
-0.00414762
0.00183002
-0.00473816
0.00179618
0.00176297
-0.00531739
-0.000176081
0.000753217
-0.000562221
0.00163166
-0.00106837
0.00211945
-0.00163664
0.00236262
-0.00223162
0.00246072
-0.00283303
0.00247895
-0.00343018
0.00245713
-0.00401801
0.00241784
-0.00459447
0.00237264
0.00232764
-0.00515914
-0.000162552
0.000915769
-0.000524348
0.00199346
-0.00100388
0.00259898
-0.00154706
0.00290581
-0.00211959
0.00303325
-0.00270095
0.00306031
-0.0032797
0.00303589
-0.00384992
0.00298807
-0.00440881
0.00293153
0.00287406
-0.00495523
-0.000146135
0.0010619
-0.000478092
0.00232542
-0.000924837
0.00304573
-0.00143716
0.00341813
-0.00198232
0.0035784
-0.00253967
0.00361767
-0.00309694
0.00359315
-0.00364712
0.00353825
-0.00418623
0.00347065
0.00339983
-0.004712
-0.00012708
0.00118898
-0.000423962
0.0026223
-0.000831898
0.00345366
-0.00130768
0.00389391
-0.00182075
0.00409147
-0.00235064
0.00414756
-0.00288429
0.0041268
-0.00341354
0.0040675
-0.00393282
0.00398992
0.00390455
-0.00443754
-0.000105635
0.00129462
-0.000362415
0.00287908
-0.000725492
0.00381674
-0.00115883
0.00432726
-0.00163491
0.00456754
-0.002134
0.00464665
-0.00264266
0.00463547
-0.0031519
0.00457674
-0.00365453
0.00449255
0.00439099
-0.00414096
-8.20596e-05
0.00137668
-0.000293883
0.0030909
-0.000605799
0.00412866
-0.000990055
0.00471151
-0.00142309
0.00500058
-0.00188685
0.00511041
-0.00236834
0.00511695
-0.00285857
0.00506696
-0.00335136
0.00498534
0.00487015
-0.00383052
-5.66991e-05
0.00143338
-0.000218953
0.00325316
-0.000472925
0.00438263
-0.000799759
0.00503835
-0.00118031
0.00538113
-0.00159865
0.00552875
-0.00204347
0.00556178
-0.00250752
0.00553101
-0.00298988
0.00546771
0.00540677
-0.0035265
-3.01899e-05
0.00146357
-0.000139003
0.00336197
-0.000328227
0.00457185
-0.000587627
0.00529775
-0.000901361
0.00569486
-0.00125281
0.0058802
-0.00162743
0.0059364
-0.00201484
0.00591841
-0.00241105
0.00586392
0.00579425
-0.00279854
-3.60746e-06
0.00146717
-5.70763e-05
0.00341544
-0.000177451
0.00469223
-0.000363774
0.00548407
-0.00060494
0.00593603
-0.000886041
0.0061613
-0.00119285
0.0062432
-0.00151451
0.00624007
-0.001844
0.00619342
0.0061339
-0.00218365
2.18153e-05
0.00144536
2.33103e-05
0.00341395
-2.70052e-05
0.00474254
-0.000138111
0.00559517
-0.000305144
0.00610306
-0.00051669
0.00637285
-0.000760169
0.00648668
-0.00102494
0.00650484
-0.00130257
0.00647105
0.00641731
-0.00158598
4.5124e-05
0.00140024
9.93372e-05
0.00335973
0.000118267
0.00472361
8.2994e-05
0.00563045
-8.61528e-06
0.00619467
-0.000149425
0.00651366
-0.000328842
0.0066661
-0.000536289
0.00671229
-0.00076204
0.0066968
0.00665145
-0.000996179
6.56486e-05
0.00133459
0.000168848
0.00325653
0.000254581
0.00463788
0.000294614
0.00559042
0.000279549
0.00620974
0.000211696
0.00658151
9.91954e-05
0.0067786
-4.78177e-05
0.0068593
-0.000218847
0.00686783
0.00683586
-0.000403257
8.29391e-05
0.00125165
0.000230174
0.0031093
0.000378751
0.0044893
0.00049229
0.00547688
0.000554244
0.00614778
0.000561665
0.00657409
0.00051963
0.00682064
0.000437164
0.00694177
0.000324926
0.00698006
0.00696675
0.000194033
9.67248e-05
0.00115492
0.000282053
0.00292397
0.000488072
0.00428328
0.000671875
0.00529307
0.000810267
0.00600939
0.00089479
0.00648957
0.000926782
0.00678864
0.000913327
0.00695522
0.000864495
0.0070289
0.00703956
0.00079168
0.000106888
0.00104804
0.000323601
0.00270726
0.000580288
0.00402659
0.000829483
0.00504388
0.00104224
0.00579664
0.00120457
0.00632723
0.0013135
0.00667971
0.0013733
0.00689543
0.0013926
0.00700959
0.00704957
0.0013826
0.000113446
0.000934589
0.000354298
0.0024664
0.000653634
0.00372726
0.000961591
0.00473592
0.00124472
0.00551351
0.00148389
0.00608807
0.0016714
0.0064922
0.00180792
0.00675891
0.00189981
0.0069177
0.00699208
0.0019573
0.000116545
0.000818045
0.000374021
0.00220893
0.000706955
0.00339433
0.0010653
0.00437758
0.00141267
0.00516613
0.00172552
0.00577523
0.0019914
0.00622632
0.00220681
0.0065435
0.00237495
0.00674956
0.00686279
0.00250424
0.000116443
0.000701602
0.00038305
0.00194232
0.000739828
0.00303755
0.00113862
0.00397879
0.00154189
0.00476286
0.00192278
0.00539434
0.0022645
0.0058846
0.0025591
0.0062489
0.00280589
0.00650277
0.00665821
0.00301047
0.00011354
0.000588062
0.000382148
0.00167371
0.000752756
0.00266694
0.0011809
0.00355064
0.00162971
0.00431406
0.00207044
0.00495361
0.0024828
0.00547224
0.00285449
0.00587721
0.00318048
0.00617678
0.00637611
0.00346258
0.000108301
0.000479762
0.000372414
0.0014096
0.000747048
0.00229231
0.00119282
0.00310486
0.00167522
0.00383166
0.00216526
0.00446356
0.00264032
0.00499718
0.00308436
0.00543317
0.00348782
0.00577332
0.00601603
0.0038479
0.000101255
0.000378507
0.000355259
0.00115559
0.000724779
0.00192278
0.00117646
0.00265319
0.00167957
0.00332855
0.00220658
0.00393655
0.00273398
0.00446977
0.00324296
0.0049242
0.00371972
0.00529656
0.00557958
0.00415617
9.29256e-05
0.000285581
0.000332194
0.000916326
0.000688456
0.00156652
0.00113486
0.00220678
0.00164562
0.00281779
0.00219616
0.00338601
0.00276374
0.00390219
0.00332809
0.00435985
0.00387179
0.00475286
0.00507031
0.00438105
8.37426e-05
0.000201839
0.000304562
0.000695507
0.000640495
0.00123059
0.00107131
0.00177597
0.00157693
0.00231217
0.00213713
0.00282581
0.00273168
0.00330764
0.00334047
0.00375106
0.00394339
0.00414994
0.00449305
0.00452065
7.39501e-05
0.000127888
0.000273246
0.000496211
0.000582609
0.000921227
0.000988204
0.00137037
0.00147611
0.00182427
0.00203166
0.00227025
0.00263905
0.00270025
0.00328052
0.00310958
0.00393484
0.00349563
0.0038522
0.00457568
6.35604e-05
6.4328e-05
0.00023851
0.000321261
0.000515375
0.000644362
0.000886103
0.000999648
0.00134288
0.00136749
0.00187753
0.0017356
0.0024808
0.00209698
0.00314088
0.00244951
0.00383918
0.00279733
0.0031494
0.00454198
5.24317e-05
1.18963e-05
0.000200214
0.000173479
0.000438538
0.000406038
0.000763858
0.000674327
0.00117345
0.000957893
0.00166542
0.00124364
0.00223862
0.00152377
0.00289218
0.00179595
0.00362055
0.00206896
0.00238102
0.00438892
4.05453e-05
-2.8649e-05
0.000158636
5.53885e-05
0.000352642
0.000212031
0.00062128
0.00040569
0.000963906
0.000615268
0.00138118
0.000826365
0.00187632
0.00102863
0.00245838
0.0012139
0.00315021
0.00137714
0.00152225
0.00400898
2.84192e-05
-5.70682e-05
0.000115823
-3.20149e-05
0.000262407
6.54475e-05
0.000466762
0.000201334
0.000726089
0.00035594
0.00103591
0.000516541
0.00138943
0.000675113
0.00177582
0.000827504
0.00217937
0.000973586
0.00112399
0.00257763
1.71313e-05
-7.41996e-05
7.57611e-05
-9.06447e-05
0.000177878
-3.66689e-05
0.000322566
5.66455e-05
0.000506878
0.000171629
0.000726044
0.000297375
0.000973782
0.000427375
0.00124327
0.00055802
0.00153071
0.000686146
0.000804724
0.00184997
7.49441e-06
-8.1694e-05
4.13004e-05
-0.000124451
0.000105484
-0.000100852
0.000200642
-3.8513e-05
0.000325485
4.67859e-05
0.000477637
0.000145224
0.000654476
0.000250536
0.000854282
0.000358214
0.0010775
0.000462926
0.000554753
0.00132747
-2.25508e-07
-8.14685e-05
1.33567e-05
-0.000138033
4.68706e-05
-0.000134366
0.000102736
-9.43785e-05
0.000181604
-3.20819e-05
0.00028336
4.34673e-05
0.000407916
0.000125981
0.000555817
0.000210313
0.000728132
0.000290611
0.000358942
0.000923943
-6.13563e-06
-7.53329e-05
-8.38054e-06
-0.000135788
1.15411e-06
-0.000143901
2.65405e-05
-0.000119765
7.00096e-05
-7.55511e-05
0.000132927
-1.94499e-05
0.000216374
4.25336e-05
0.000321355
0.000105332
0.000448282
0.000163684
0.000211816
0.000595408
-1.05186e-05
-6.48142e-05
-2.47904e-05
-0.000121516
-3.35828e-05
-0.000135109
-3.15595e-05
-0.000121788
-1.54293e-05
-9.16812e-05
1.69363e-05
-5.18156e-05
6.69469e-05
-7.47701e-06
0.000135361
3.69176e-05
0.000221891
7.71542e-05
0.000109181
0.000324526
-1.36853e-05
-5.11289e-05
-3.6845e-05
-9.83567e-05
-5.93253e-05
-0.000112628
-7.49419e-05
-0.000106172
-7.97962e-05
-8.6827e-05
-7.14647e-05
-6.0147e-05
-4.85974e-05
-3.03443e-05
-1.08132e-05
-8.66567e-07
4.11333e-05
2.52076e-05
4.5176e-05
0.000105138
-1.58861e-05
-3.52429e-05
-4.53299e-05
-6.89129e-05
-7.76046e-05
-8.03536e-05
-0.000106018
-7.77583e-05
-0.000126371
-6.64741e-05
-0.000136185
-5.03325e-05
-0.000134286
-3.22439e-05
-0.000120608
-1.45445e-05
-9.61756e-05
7.75426e-07
1.20707e-05
-6.30702e-05
-1.72836e-05
-1.79593e-05
-5.07606e-05
-3.54359e-05
-8.93859e-05
-4.17283e-05
-0.000126198
-4.09466e-05
-0.000156871
-3.58004e-05
-0.000178961
-2.82429e-05
-0.000191449
-1.97561e-05
-0.000194479
-1.15142e-05
-0.000189213
-4.4903e-06
5.38035e-07
-0.000177681
-1.79647e-05
-5.34178e-05
-9.51751e-05
-0.000136162
-0.000172013
-0.000200316
-0.000220141
-0.000231733
-0.000236309
-0.000235863
0.000197514
-0.000430335
-3.03042e-06
0.00134768
-0.00115053
3.65246e-07
0.00253075
-0.00118922
6.14382e-06
0.00329999
-0.000774875
5.64187e-06
0.00395671
-0.000657499
7.75761e-07
0.00442163
-0.000458535
-6.38728e-06
0.00483661
-0.000406822
-8.15882e-06
0.00513587
-0.000290962
-8.2957e-06
0.0054409
-0.000302459
-2.57063e-06
-0.00021723
5.02414e-06
0.000309663
-0.000917644
0.00143048
-0.00227135
0.00258705
-0.00234578
0.00333958
-0.0015274
0.00398446
-0.00130237
0.00444259
-0.000916668
0.004853
-0.000817232
0.00515026
-0.000588225
0.00545419
-0.000606391
-0.000430171
0.000526632
-0.00150729
0.00159022
-0.00333494
0.00269531
-0.00345087
0.00341571
-0.0022478
0.0040378
-0.00192446
0.0044829
-0.00136177
0.00488452
-0.00121884
0.005178
-0.000881708
0.00547989
-0.000908286
-0.0006447
0.000834399
-0.00223648
0.00181585
-0.00431639
0.00284734
-0.00448237
0.00352261
-0.00292307
0.00411276
-0.00251461
0.00453989
-0.0017889
0.00492948
-0.00160843
0.0052181
-0.00117033
0.00551757
-0.00120775
-0.00086198
0.00121316
-0.00312504
0.00209183
-0.00519506
0.00303162
-0.00542215
0.00365203
-0.00354349
0.00420353
-0.00306612
0.00460939
-0.00219476
0.00498495
-0.00198399
0.00526849
-0.00145387
0.00556578
-0.00150505
-0.00108355
0.00163863
-0.00416819
0.00239938
-0.00595581
0.00323428
-0.00625704
0.00379409
-0.0041033
0.00430317
-0.00357519
0.00468648
-0.00257806
0.00504753
-0.00234504
0.00532682
-0.00173316
0.00562303
-0.00180126
-0.00131144
0.00208254
-0.00532671
0.00271712
-0.00659039
0.00343993
-0.00697986
0.00393785
-0.00460122
0.00440395
-0.00404129
0.00476562
-0.00293974
0.00511333
-0.00269275
0.00539035
-0.00201018
0.00568746
-0.00209837
-0.00154818
0.00251442
-0.00651359
0.00302183
-0.00709781
0.00363247
-0.00759049
0.00407198
-0.00504072
0.00449788
-0.0044672
0.00484106
-0.00328292
0.00517824
-0.00302993
0.00545614
-0.00228808
0.00575703
-0.00239926
-0.00179687
0.00291662
-0.00758018
0.00329455
-0.00747575
0.00379781
-0.00809375
0.00418594
-0.00542886
0.00457744
-0.0048587
0.00490721
-0.00361269
0.00523823
-0.00336095
0.00552122
-0.00257106
0.00582964
-0.00270769
-0.00206107
0.00329394
-0.00829644
0.00353369
-0.0077155
0.00392516
-0.00848521
0.00427246
-0.00577616
0.0046359
-0.00522213
0.00495921
-0.003936
0.00528923
-0.00369097
0.00558302
-0.00286486
0.00590268
-0.00302735
-0.00234569
0.043383
-0.00106652
-0.0506129
0.0392427
-0.00357518
0.0372551
-0.00649764
0.0371779
-0.0056989
0.0371816
-0.00522591
0.0375243
-0.00427863
0.037956
-0.00412267
0.0385186
-0.00342748
0.039055
-0.00356375
-0.00294979
0.0523642
0.00315318
-0.0565839
0.0502027
-0.00141369
0.0476641
-0.00395905
0.0461817
-0.00421648
0.0450479
-0.00409213
0.044324
-0.00355466
0.0437787
-0.00357737
0.043532
-0.00318082
0.0432985
-0.00333026
-0.00288441
0.053886
0.00437864
-0.0551115
0.0525922
-0.000119843
0.0509783
-0.00234521
0.0496746
-0.00291276
0.0485667
-0.0029842
0.0477167
-0.00270464
0.0469342
-0.00279487
0.0463908
-0.00263741
0.0458512
-0.00279068
-0.0024789
0.0520271
0.00425003
-0.0518985
0.0515862
0.000321087
0.0507197
-0.00147874
0.04985
-0.0020431
0.0490421
-0.00217628
0.0483816
-0.00204411
0.0477101
-0.00212337
0.0471741
-0.00210142
0.0466294
-0.00224599
-0.00199943
0.0499696
0.00358883
-0.0493084
0.0498074
0.000483256
0.0493359
-0.00100727
0.0487848
-0.00149199
0.0482253
-0.00161679
0.0477481
-0.00156692
0.0472398
-0.00161501
0.0467911
-0.00165269
0.0463296
-0.00178457
-0.00156143
0.0482697
0.00280984
-0.0474907
0.0482632
0.000489706
0.04796
-0.000704098
0.0475724
-0.00110435
0.0471568
-0.00120117
0.046786
-0.00119616
0.046392
-0.00122098
0.0460155
-0.00127617
0.045623
-0.00139211
-0.00118542
0.0470613
0.00204116
-0.0462926
0.0471264
0.000424555
0.0469015
-0.000479129
0.0465898
-0.000792641
0.0462488
-0.00086023
0.0459283
-0.00087567
0.0455958
-0.000888457
0.04526
-0.000940346
0.0449027
-0.00103481
-0.000857316
0.0462474
0.00132255
-0.0455288
0.0463646
0.000307348
0.0461831
-0.000297651
0.0459049
-0.000514486
0.0456011
-0.000556417
0.0453018
-0.000576333
0.044997
-0.000583707
0.0446792
-0.000622536
0.0443335
-0.000689106
-0.000558845
0.0457512
0.000648979
-0.0450776
0.0459011
0.000157428
0.0457474
-0.000143901
0.0454845
-0.000251651
0.045199
-0.000270836
0.0449084
-0.000285782
0.0446146
-0.000289848
0.0443033
-0.000311286
0.0439586
-0.00034435
-0.000276484
0.0455168
-0.0448678
0.0456742
0.0455303
0.0452787
0.0450078
0.044722
0.0444322
0.0441209
0.0437766
0.0567905
0.0022961
-0.0560761
0.0573473
0.00290582
0.057698
0.00349722
0.057793
0.00406126
0.0575854
0.00458874
0.0570352
0.00507087
0.056111
0.00549995
0.0547831
0.00586986
0.0529964
0.00617575
0.00639246
0.0514005
0.0016874
-0.0507918
0.0520543
0.00225198
0.0527393
0.00281223
0.0534375
0.00336305
0.0541275
0.00389876
0.0547852
0.00441316
0.0553853
0.00489981
0.0559028
0.00535236
0.0563135
0.00576509
0.00612206
0.0480887
0.00121302
-0.0476143
0.0486441
0.00169663
0.0492772
0.00217908
0.0499828
0.00265749
0.0507528
0.00312871
0.0515767
0.00358928
0.0524411
0.0040354
0.0533306
0.00446289
0.0542284
0.00486725
0.00523901
0.0454885
0.000887106
-0.0451626
0.0458945
0.00129062
0.0463812
0.00169238
0.0469485
0.00209015
0.0475956
0.00248167
0.0483202
0.00286462
0.049119
0.00323659
0.0499868
0.00359509
0.0509168
0.00393733
0.00425728
0.0438985
0.000648008
-0.0436594
0.0442116
0.000977471
0.044599
0.00130505
0.0450602
0.00162887
0.0455948
0.00194708
0.0462016
0.00225781
0.046879
0.00255919
0.0476248
0.00284935
0.0484359
0.00312619
0.00338482
0.042802
0.000466571
-0.0426205
0.0430533
0.000726107
0.0433745
0.000983865
0.043765
0.00123833
0.0442241
0.00148799
0.0447506
0.00173137
0.0453428
0.00196698
0.0459988
0.00219336
0.0467161
0.0024089
0.00261022
0.0421078
0.000322525
-0.0419637
0.0423187
0.000515214
0.042596
0.000706481
0.0429392
0.000895173
0.043347
0.00108015
0.0438181
0.00126027
0.0443507
0.00143444
0.0449425
0.00160153
0.045591
0.00176036
0.00190864
0.0416556
0.000202623
-0.0415357
0.0418406
0.000330233
0.0420902
0.00045688
0.0424036
0.00058179
0.0427795
0.000704197
0.0432165
0.000823341
0.0437124
0.000938473
0.0442651
0.00104886
0.0448718
0.0011537
0.00125166
0.0413909
9.74805e-05
-0.0412858
0.0415601
0.000161079
0.0417927
0.000224214
0.042088
0.000286495
0.0424447
0.000347538
0.0428611
0.000406958
0.0433352
0.000464378
0.0438646
0.000519428
0.0444466
0.000571714
0.000620597
0.0412654
-0.0411679
0.0414265
0.0416507
0.0419372
0.0422847
0.0426917
0.0431561
0.0436755
0.0442472
0.0481163
-0.00335588
-0.0475589
0.04883
-0.00289737
0.049653
-0.002409
0.0505456
-0.00188874
0.0514799
-0.00133756
0.0524374
-0.000763372
0.0533997
-0.000170666
0.0543455
0.000436874
0.0552483
0.00105451
0.00167649
0.0479883
-0.00340902
-0.0479352
0.0480846
-0.00299368
0.0482236
-0.00254802
0.0484112
-0.00207634
0.0486535
-0.00157981
0.0489546
-0.00106449
0.0493181
-0.000534121
0.049746
8.96808e-06
0.0502382
0.000562295
0.0011229
0.0468976
-0.00314954
-0.0471571
0.0466935
-0.0027896
0.04655
-0.00240451
0.0464724
-0.0019987
0.0464668
-0.00157423
0.0465368
-0.00113454
0.0466849
-0.000682126
0.0469128
-0.000218995
0.0472223
0.000252767
0.000730902
0.0455805
-0.00277321
-0.0459568
0.045262
-0.00247109
0.0450048
-0.00214733
0.0448125
-0.00180636
0.0446883
-0.00145008
0.0446347
-0.0010809
0.0446535
-0.000700923
0.0447466
-0.000312083
0.0449157
8.36057e-05
0.000484052
0.0446576
-0.00235118
-0.0450796
0.0442894
-0.00210284
0.0439794
-0.00183738
0.0437309
-0.00155785
0.0435467
-0.00126586
0.043429
-0.00096328
0.04338
-0.00065183
0.0434011
-0.000333211
0.0434939
-9.16349e-06
0.00031852
0.0439867
-0.00190161
-0.0444363
0.0435891
-0.00170521
0.0432472
-0.00149551
0.0429641
-0.00127476
0.0427424
-0.00104419
0.0425844
-0.000805215
0.0424918
-0.000559221
0.0424662
-0.000307599
0.0425088
-5.17778e-05
0.000206778
0.0435557
-0.00143694
-0.0440204
0.0431414
-0.00129089
0.042781
-0.00113515
0.0424775
-0.000971187
0.0422332
-0.000799926
0.0420504
-0.000622384
0.0419307
-0.000439595
0.0418758
-0.000252614
0.0418865
-6.25237e-05
0.000129568
0.0432767
-0.000962147
-0.0437515
0.0428513
-0.000865501
0.0424786
-0.000762471
0.0421614
-0.000653988
0.0419022
-0.000540656
0.0417029
-0.000423137
0.0415654
-0.000302116
0.0414911
-0.000178296
0.041481
-5.2402e-05
7.48244e-05
0.0431157
-0.000481889
-0.0435959
0.042684
-0.000433889
0.0423043
-0.000382721
0.0419791
-0.000328823
0.041711
-0.000272497
0.0415019
-0.000214063
0.0413536
-0.00015386
0.0412676
-9.2239e-05
0.0412447
-2.95593e-05
3.38072e-05
0.0430418
-0.0435237
0.0426079
0.0422252
0.0418963
0.0416238
0.0414098
0.0412559
0.0411637
0.0411341
0.0429475
0.000174508
-0.000193092
0.0429916
0.000520903
-0.000564967
0.0430663
0.000872038
-0.000946723
0.0431891
0.00123609
-0.00135896
0.0433903
0.0016184
-0.00181953
0.0437132
0.00202322
-0.00234619
0.0442169
0.00245265
-0.0029563
0.0449731
0.00290911
-0.00366537
0.0460761
0.0033686
-0.00447159
0.00392054
-0.00540331
0.0429657
0.000137732
0.043073
0.000413581
0.0432543
0.000690778
0.0435199
0.000970497
0.0438847
0.00125355
0.0443678
0.00154016
0.044991
0.00182939
0.0457788
0.00212133
0.046747
0.0024004
0.0027324
0.0429665
0.000100118
0.0430779
0.000302242
0.0432628
0.000505899
0.0435252
0.000708068
0.0438709
0.000907852
0.0443071
0.00110395
0.0448422
0.00129427
0.0454865
0.0014771
0.0462444
0.00164246
0.00181972
0.0429586
7.04124e-05
0.0430476
0.0002133
0.0431959
0.000357539
0.0434045
0.000499534
0.0436742
0.000638078
0.0440063
0.000771874
0.0444012
0.000899347
0.044859
0.00101929
0.0453748
0.0011267
0.0012377
0.0429506
4.87656e-05
0.043016
0.000147878
0.0431256
0.000247909
0.0432792
0.000345964
0.0434763
0.00044098
0.0437163
0.000531907
0.043998
0.0006176
0.0443202
0.000697128
0.0446792
0.0007677
0.000837243
0.0429445
3.31995e-05
0.0429917
0.000100686
0.0430708
0.000168765
0.0431814
0.000235385
0.0433226
0.000299767
0.0434934
0.000361173
0.0436921
0.000418858
0.043917
0.000472228
0.0441649
0.00051981
0.000565856
0.0429403
2.1834e-05
0.0429748
6.62071e-05
0.0430326
0.00011095
0.0431133
0.000154704
0.0432161
0.000196945
0.0433401
0.000237183
0.043484
0.000274941
0.0436464
0.000309827
0.0438252
0.000341015
0.000370657
0.0429375
1.32205e-05
0.0429637
4.00757e-05
0.0430075
6.71414e-05
0.0430686
9.36083e-05
0.0431464
0.000119162
0.04324
0.000143511
0.0433486
0.000166378
0.0434709
0.000187537
0.0436053
0.000206554
0.000224527
0.0429359
6.23286e-06
0.0429571
1.88945e-05
0.0429926
3.16447e-05
0.0430421
4.41134e-05
0.0431051
5.61538e-05