/*--------------------------------*- C++ -*----------------------------------*\
  =========                 |
  \\      /  F ield         | OpenFOAM: The Open Source CFD Toolbox
   \\    /   O peration     | Website:  https://openfoam.org
    \\  /    A nd           | Version:  6.0
     \\/     M anipulation  |
\*---------------------------------------------------------------------------*/
FoamFile
{
    version     2.0;
    format      ascii;
    class       volVectorField;
    location    "15";
    object      U;
}
// * * * * * * * * * * * * * * * * * * * * * * * * * * * * * * * * * * * * * //

dimensions      [0 1 -1 0 0 0 0];

internalField   nonuniform List<vector> 
2000
(
(-0.00199149 0.00173836 5.84566e-20)
(-0.00761497 0.0032999 6.94013e-20)
(-0.0153037 0.00365529 -6.61572e-20)
(-0.0222745 0.00332647 -1.34993e-19)
(-0.0275807 0.00262408 -9.43041e-20)
(-0.031071 0.00175158 1.25643e-19)
(-0.0328445 0.000854685 7.31969e-20)
(-0.0331723 4.04112e-05 -2.96058e-20)
(-0.0324891 -0.000611775 -7.39276e-20)
(-0.0310914 -0.00103764 5.39015e-20)
(-0.0024894 0.0051189 -1.44873e-19)
(-0.00836106 0.00967015 1.99934e-19)
(-0.0156922 0.0106657 1.9938e-20)
(-0.0219564 0.0096476 -1.15812e-19)
(-0.0263443 0.00752997 5.54128e-19)
(-0.0287811 0.00491068 -2.43895e-19)
(-0.029414 0.00221896 -2.63904e-19)
(-0.0285406 -0.000225987 3.18327e-19)
(-0.0266117 -0.00218149 -3.14013e-19)
(-0.0240021 -0.0034542 1.58358e-19)
(-0.00343412 0.00821936 2.40641e-20)
(-0.00971202 0.0153803 8.53225e-21)
(-0.0162549 0.0168279 5.9901e-19)
(-0.021053 0.0150507 2.10114e-19)
(-0.0235716 0.0115119 4.16545e-20)
(-0.0238871 0.00716468 3.44728e-19)
(-0.0222399 0.00269642 -6.54836e-19)
(-0.0189764 -0.00136863 1.42029e-20)
(-0.0145769 -0.00461211 -3.87314e-19)
(-0.00957871 -0.00670898 4.2676e-19)
(-0.00472005 0.0108584 -4.5246e-20)
(-0.011377 0.0200155 2.60135e-19)
(-0.0165501 0.0216326 -7.58079e-19)
(-0.0190123 0.0190185 -9.80393e-20)
(-0.0186396 0.0140919 -5.58078e-19)
(-0.0157323 0.00809271 5.78023e-19)
(-0.0106648 0.00191739 -6.13182e-19)
(-0.00384627 -0.0037229 4.3067e-19)
(0.00420811 -0.00821616 1.8106e-19)
(0.012702 -0.0111013 -2.047e-19)
(-0.0061794 0.0128599 -5.03164e-19)
(-0.012899 0.0231951 4.49834e-21)
(-0.0158859 0.0246502 9.33423e-19)
(-0.0149659 0.0211697 2.79954e-19)
(-0.0105607 0.014995 -8.90095e-19)
(-0.0032658 0.00755011 5.5348e-19)
(0.00637241 -0.00013986 6.27682e-19)
(0.0178775 -0.00721898 -5.59669e-19)
(0.0307107 -0.012867 3.99138e-19)
(0.0437063 -0.0164841 9.79754e-20)
(-0.0075708 0.0140532 6.88041e-20)
(-0.0136354 0.0245836 1.27428e-20)
(-0.0132961 0.0255533 -1.19279e-18)
(-0.00769651 0.0212957 -6.67527e-19)
(0.00206526 0.0142079 7.96472e-19)
(0.0150248 0.00576546 -9.32874e-19)
(0.0304199 -0.00300044 1.06938e-18)
(0.0477077 -0.0111778 -9.22553e-20)
(0.0663677 -0.0177537 -3.00896e-19)
(0.0847492 -0.0220028 -8.75014e-19)
(-0.00856769 0.0142758 -1.49406e-19)
(-0.012747 0.0239042 -2.72878e-19)
(-0.00753571 0.02413 -3.3537e-19)
(0.00436972 0.0193689 7.15852e-19)
(0.0210779 0.0119904 1.32844e-18)
(0.0411749 0.00337319 -2.74516e-19)
(0.0636172 -0.00561259 -6.68875e-19)
(0.0877806 -0.0141722 2.03986e-19)
(0.113247 -0.0212011 -1.28584e-18)
(0.137805 -0.0259007 1.41205e-18)
(-0.00875449 0.0133884 9.13615e-19)
(-0.00921383 0.0209645 -4.9845e-19)
(0.00287548 0.0202931 9.74154e-19)
(0.0231011 0.0155196 -1.59194e-18)
(0.0486903 0.00882046 -7.61047e-19)
(0.0776929 0.00135815 -1.05451e-18)
(0.108675 -0.00633766 3.06285e-19)
(0.140856 -0.0138565 -8.54097e-19)
(0.174051 -0.0202297 1.86009e-18)
(0.20559 -0.0247686 5.21063e-19)
(-0.00764197 0.0113045 6.68387e-20)
(-0.00189653 0.015699 8.11971e-19)
(0.0195424 0.0140858 1.61399e-18)
(0.0505114 0.00996668 4.9374e-19)
(0.087323 0.00523092 1.46136e-18)
(0.127398 0.000841482 8.01738e-20)
(0.168723 -0.00300761 -1.1246e-21)
(0.210093 -0.00636165 5.89724e-19)
(0.251577 -0.00855774 4.78365e-19)
(0.290605 -0.0100122 -1.55099e-18)
(-0.00471751 0.00803633 -5.40419e-19)
(0.0103326 0.00822896 -9.05556e-19)
(0.0439922 0.00567894 -1.31731e-18)
(0.0885267 0.00284747 3.08203e-20)
(0.139474 0.00129384 -6.72191e-19)
(0.193728 0.00198189 1.0597e-18)
(0.248708 0.00523706 -2.91902e-18)
(0.302472 0.0112829 1.31104e-18)
(0.354367 0.0207218 4.93909e-19)
(0.401656 0.0294167 1.55022e-18)
(0.00045575 0.00375415 2.70405e-19)
(0.028344 -0.00104079 -1.03471e-18)
(0.0772215 -0.00454571 9.24276e-19)
(0.138175 -0.00583945 -3.5885e-19)
(0.206372 -0.00392523 3.90373e-19)
(0.278841 0.00212118 8.50494e-19)
(0.35374 0.0130376 -1.1419e-18)
(0.430654 0.029769 1.48689e-19)
(0.510547 0.0515887 -5.47491e-19)
(0.595747 0.0685383 1.10838e-18)
(0.00814272 -0.00116537 3.86815e-19)
(0.0525286 -0.0112642 -9.37406e-19)
(0.119232 -0.0156055 1.27814e-18)
(0.19844 -0.0153969 -7.96554e-19)
(0.284951 -0.0107591 -2.92181e-19)
(0.375703 -0.0015528 1.7302e-19)
(0.468879 0.0121343 8.95138e-20)
(0.563898 0.0299938 1.21466e-18)
(0.6604 0.0493206 3.49831e-19)
(0.756077 0.0614354 1.49309e-18)
(0.0184513 -0.00616044 -3.44998e-19)
(0.0829252 -0.0210879 1.21136e-18)
(0.169546 -0.0255317 -1.01171e-18)
(0.26782 -0.0231931 -1.18753e-18)
(0.372065 -0.0155555 1.66163e-18)
(0.478779 -0.00341245 -1.26416e-18)
(0.585555 0.0123057 3.33873e-19)
(0.690827 0.03049 -1.97996e-18)
(0.792808 0.0484671 1.48306e-18)
(0.887505 0.0609063 7.41031e-20)
(0.0313876 -0.0106033 -4.49281e-19)
(0.119334 -0.0289552 -4.34446e-19)
(0.22747 -0.0320343 -9.25728e-19)
(0.344895 -0.0262243 1.12216e-18)
(0.465485 -0.0144535 -5.67746e-20)
(0.58527 0.00158136 7.26431e-19)
(0.701305 0.0202792 1.32584e-18)
(0.811342 0.0401442 -4.07419e-19)
(0.913012 0.0590894 -1.44121e-18)
(1.0023 0.0741117 2.86145e-18)
(0.0468814 -0.0138861 -2.32066e-19)
(0.161311 -0.0333645 -2.76924e-19)
(0.291996 -0.033004 4.99167e-19)
(0.428002 -0.021959 -9.28348e-19)
(0.562967 -0.00462575 1.58484e-19)
(0.692674 0.0164456 1.41263e-19)
(0.813995 0.0391063 6.19765e-20)
(0.924577 0.0616526 -9.86244e-21)
(1.02223 0.0825872 -1.51871e-19)
(1.10357 0.1003 -2.42036e-18)
(0.0647735 -0.0154467 9.42141e-19)
(0.208124 -0.0329918 -6.5764e-19)
(0.361686 -0.0267284 8.38466e-21)
(0.514982 -0.00858827 -1.00331e-18)
(0.66176 0.0155968 -3.59461e-19)
(0.797933 0.0425021 3.35927e-19)
(0.92066 0.0695537 2.61288e-19)
(1.02805 0.0949628 -9.31075e-19)
(1.11863 0.117769 7.61529e-19)
(1.19005 0.137164 -9.9905e-19)
(0.0847838 -0.0147738 4.06407e-19)
(0.258704 -0.0267476 -3.61446e-19)
(0.434639 -0.0119889 1.50275e-18)
(0.603176 0.0148988 1.53528e-19)
(0.758658 0.0467636 3.52464e-19)
(0.897616 0.0796539 1.57282e-18)
(1.01802 0.11075 -2.40229e-19)
(1.11895 0.138348 2.19782e-19)
(1.20005 0.162048 9.11838e-20)
(1.26027 0.18152 -1.11627e-19)
(0.106482 -0.0114172 2.83811e-19)
(0.311643 -0.0138189 6.83092e-19)
(0.508541 0.0118996 -7.32597e-19)
(0.689565 0.0487361 -2.48417e-19)
(0.850246 0.0884626 -3.07007e-19)
(0.988298 0.126755 4.75568e-19)
(1.10302 0.160818 -2.4773e-19)
(1.19487 0.189274 6.66745e-19)
(1.2649 0.212376 2.24804e-19)
(1.31346 0.230133 -3.66332e-19)
(0.129271 -0.00501334 -3.05898e-19)
(0.36522 0.00628374 2.72118e-19)
(0.580783 0.0450672 -5.81035e-19)
(0.770981 0.0924372 2.50837e-19)
(0.933206 0.1395 -2.60427e-19)
(1.06692 0.181941 -3.25366e-19)
(1.17321 0.217341 -2.61733e-19)
(1.25421 0.244941 2.92714e-19)
(1.31244 0.265773 -5.52921e-19)
(1.3497 0.280141 3.34167e-19)
(0.1524 0.00467711 -1.0901e-19)
(0.417471 0.0336706 -2.13474e-19)
(0.648612 0.0870741 1.01666e-19)
(0.844343 0.144863 6.22361e-21)
(1.00459 0.198074 8.44921e-20)
(1.13108 0.242891 1.16156e-19)
(1.22699 0.277688 1.07884e-19)
(1.29627 0.30261 -1.43029e-19)
(1.34285 0.319585 1.22138e-19)
(1.36986 0.329215 -1.91309e-19)
(0.174987 0.0177288 -6.31343e-20)
(0.466293 0.0680228 -2.36997e-20)
(0.709314 0.136912 9.44788e-20)
(0.906872 0.204306 -4.34402e-20)
(1.06202 0.261932 1.1617e-19)
(1.17913 0.30705 -1.50078e-19)
(1.26362 0.339233 3.47428e-20)
(1.32119 0.359785 3.72942e-20)
(1.35701 0.371589 -1.57703e-20)
(1.37531 0.375562 5.94963e-20)
(0.196067 0.0340162 -6.81397e-20)
(0.509575 0.108562 -3.08646e-19)
(0.760389 0.193034 -2.15022e-20)
(0.956275 0.268589 6.42152e-21)
(1.10384 0.328537 -4.02929e-19)
(1.21027 0.371794 5.3116e-20)
(1.28318 0.399504 -4.53429e-20)
(1.32983 0.414294 -1.09976e-19)
(1.35632 0.42 2.30386e-19)
(1.36773 0.417843 -4.20629e-19)
(0.214649 0.0531888 -3.29838e-20)
(0.545331 0.15405 6.25607e-19)
(0.799717 0.253415 1.00803e-19)
(0.990876 0.335192 -5.51553e-19)
(1.12914 0.395202 -4.48366e-20)
(1.22447 0.434565 -5.31207e-19)
(1.28644 0.456262 3.90296e-19)
(1.32353 0.464305 -1.42443e-19)
(1.34249 0.463407 2.53034e-19)
(1.34893 0.45507 -1.87085e-19)
(0.229781 0.0746627 -2.07841e-19)
(0.57184 0.202822 1.99485e-19)
(0.825692 0.315646 -1.44013e-19)
(1.00969 0.401374 1.08413e-18)
(1.13777 0.459228 5.364e-19)
(1.22239 0.492961 -1.24867e-19)
(1.27471 0.507532 4.22259e-19)
(1.30402 0.508293 -2.78363e-19)
(1.31739 0.500693 -7.86288e-20)
(1.32073 0.486487 5.15827e-19)
(0.240616 0.0976291 -3.60257e-19)
(0.587764 0.252853 4.60046e-19)
(0.837314 0.377055 -9.05594e-19)
(1.01245 0.464318 1.27806e-19)
(1.13027 0.518012 2.87066e-19)
(1.20527 0.544796 -4.37837e-19)
(1.24968 0.551609 -5.17219e-19)
(1.27321 0.544994 2.28994e-19)
(1.28297 0.530953 -2.77824e-19)
(1.28493 0.511481 3.41444e-19)
(0.246476 0.121081 -9.09609e-20)
(0.592239 0.30186 -4.6823e-19)
(0.834235 0.434844 2.58512e-19)
(0.999558 0.521255 4.38188e-19)
(1.10779 0.569133 -2.6272e-19)
(1.17479 0.588125 -1.97658e-19)
(1.21334 0.587023 -1.16153e-19)
(1.23317 0.573332 -5.73151e-20)
(1.24117 0.553399 9.19325e-21)
(1.24327 0.529482 1.3268e-19)
(0.246905 0.143858 6.81851e-20)
(0.584939 0.34742 -3.97765e-19)
(0.81676 0.48624 6.65077e-19)
(0.972042 0.569597 -3.93267e-19)
(1.07191 0.610431 1.15056e-19)
(1.13292 0.621273 -1.61818e-19)
(1.16782 0.612526 1.74809e-19)
(1.18597 0.592368 4.20636e-20)
(1.19391 0.567262 -5.38119e-20)
(1.19743 0.539818 1.06919e-19)
(0.24172 0.16471 -1.80319e-19)
(0.566111 0.387118 3.53778e-19)
(0.78581 0.528652 -1.48132e-20)
(0.931421 0.607056 -7.90894e-20)
(1.02459 0.640085 -2.04255e-19)
(1.08183 0.642876 2.76244e-20)
(1.11537 0.627124 4.15169e-20)
(1.13383 0.601353 -1.35836e-19)
(1.14333 0.571842 1.56704e-19)
(1.14949 0.541706 1.40161e-19)
(0.231043 0.182385 5.15496e-20)
(0.536561 0.418702 -8.50835e-20)
(0.742838 0.55981 1.56786e-20)
(0.879575 0.631726 3.60541e-20)
(0.967892 0.65661 5.41463e-20)
(1.02367 0.651789 -1.3029e-19)
(1.05819 0.629923 -2.86186e-19)
(1.0792 0.599573 -1.18653e-19)
(1.0924 0.566506 -1.52755e-19)
(1.10279 0.534557 1.26531e-19)
(0.21532 0.195725 9.78285e-20)
(0.497625 0.440264 -1.58722e-19)
(0.689724 0.577939 1.53932e-19)
(0.818546 0.642212 -2.99328e-19)
(0.903708 0.658875 7.1766e-20)
(0.959974 0.646845 4.99049e-19)
(0.997541 0.619333 -1.53442e-19)
(1.02341 0.584637 1.80064e-19)
(1.04294 0.54791 2.65887e-19)
(1.05924 0.514909 9.69168e-19)
(0.195322 0.203793 6.63276e-19)
(0.451127 0.45042 -4.48962e-19)
(0.628725 0.581989 1.09825e-18)
(0.750503 0.638002 -1.8772e-19)
(0.833629 0.646816 9.45824e-19)
(0.891292 0.628069 5.93379e-19)
(0.932534 0.594718 -1.39272e-18)
(0.963781 0.553831 2.11815e-18)
(0.989652 0.507825 -4.4838e-19)
(1.0065 0.460911 8.84175e-19)
(0.172108 0.205935 -3.66748e-19)
(0.399332 0.448367 -2.63517e-19)
(0.562562 0.571643 2.57319e-19)
(0.678121 0.619571 -6.29766e-19)
(0.759861 0.622064 -1.96781e-18)
(0.818896 0.599012 -7.92834e-19)
(0.862882 0.563179 -7.125e-19)
(0.897293 0.521706 3.46746e-19)
(0.925286 0.478103 2.8803e-18)
(0.942762 0.43732 -5.98676e-19)
(0.146939 0.201775 1.94889e-19)
(0.344827 0.433749 -7.90869e-19)
(0.494378 0.546876 1.73515e-19)
(0.604823 0.587214 -1.26412e-18)
(0.686222 0.585069 2.76537e-18)
(0.747456 0.559953 -3.21376e-19)
(0.794743 0.524078 1.50844e-18)
(0.832576 0.484233 -2.15871e-18)
(0.863486 0.443921 6.78104e-19)
(0.884783 0.407422 1.051e-19)
(0.121151 0.191202 1.43866e-19)
(0.29024 0.406636 8.71444e-19)
(0.427227 0.507983 -2.56306e-18)
(0.533714 0.5413 1.24618e-18)
(0.615766 0.536031 -3.31914e-21)
(0.680023 0.51064 -4.20662e-19)
(0.731338 0.476433 5.30482e-19)
(0.773364 0.439609 -5.26064e-19)
(0.808287 0.403322 -1.80696e-18)
(0.834363 0.370824 -4.95815e-19)
(0.0960728 0.174373 4.72278e-19)
(0.238091 0.367546 5.29839e-19)
(0.363939 0.45569 2.18696e-18)
(0.46752 0.482575 -1.21688e-18)
(0.55094 0.475543 2.50792e-18)
(0.618678 0.451375 -5.39971e-19)
(0.674325 0.420145 -5.70245e-19)
(0.720807 0.387291 6.74189e-19)
(0.760035 0.355494 4.39439e-19)
(0.790967 0.327095 1.59249e-18)
(0.0729618 0.151701 -4.80092e-19)
(0.190707 0.317436 1.56996e-19)
(0.307053 0.391173 4.26311e-20)
(0.408615 0.412202 1.24166e-18)
(0.493792 0.404625 -3.09898e-18)
(0.565083 0.382975 5.26795e-19)
(0.624957 0.355828 1.16165e-18)
(0.675709 0.327747 -1.40412e-18)
(0.719021 0.300897 4.94509e-19)
(0.754478 0.276877 -2.29477e-18)
(0.0529583 0.12385 1.02382e-19)
(0.150145 0.257671 5.52027e-19)
(0.258772 0.316022 2.14666e-19)
(0.35901 0.331733 2.91031e-19)
(0.446014 0.324665 5.5722e-19)
(0.520582 0.306627 1.65807e-18)
(0.584233 0.284496 -2.02956e-18)
(0.638733 0.261881 -1.14249e-18)
(0.685598 0.240433 1.89268e-19)
(0.724975 0.221181 1.48889e-18)
(0.0370393 0.0917082 -6.19318e-19)
(0.118133 0.189986 -7.34965e-20)
(0.220914 0.232195 -6.16534e-19)
(0.320341 0.243052 8.78651e-20)
(0.40897 0.237355 -5.27519e-19)
(0.48625 0.223815 -6.02226e-19)
(0.552959 0.20745 -8.97239e-19)
(0.610452 0.190869 2.41669e-18)
(0.660133 0.175229 4.16599e-19)
(0.702626 0.161141 -6.35132e-19)
(0.0259778 0.0563531 3.33886e-19)
(0.0960201 0.116413 4.41143e-19)
(0.19488 0.141949 1.7358e-19)
(0.293857 0.148311 -9.37428e-19)
(0.383694 0.144628 -4.36276e-19)
(0.462903 0.136237 -9.39694e-20)
(0.531755 0.126191 1.83477e-19)
(0.591326 0.116068 1.47335e-19)
(0.642953 0.106551 -1.13819e-18)
(0.687606 0.097955 6.53172e-19)
(0.0203099 0.0190094 -1.7389e-19)
(0.0847284 0.0392139 -1.97738e-19)
(0.181621 0.0477613 1.57537e-19)
(0.280403 0.0498562 1.39836e-19)
(0.37088 0.0485838 1.43297e-19)
(0.451091 0.0457415 2.19054e-19)
(0.521045 0.0423546 -1.15645e-20)
(0.58168 0.0389508 -2.87182e-19)
(0.634299 0.0357555 2.72622e-19)
(0.680059 0.0328655 -4.10113e-19)
(0.0203099 -0.0190074 -1.75022e-19)
(0.0847283 -0.0392095 -1.88419e-19)
(0.181621 -0.0477556 1.73605e-19)
(0.280402 -0.04985 3.39797e-19)
(0.37088 -0.0485776 2.26319e-19)
(0.451091 -0.0457355 -2.98166e-19)
(0.521044 -0.0423491 -1.61908e-19)
(0.581679 -0.0389456 7.06577e-20)
(0.634299 -0.0357508 1.5869e-19)
(0.680059 -0.0328612 -9.44741e-20)
(0.0259776 -0.0563512 4.17606e-19)
(0.0960196 -0.116408 -5.30494e-19)
(0.194879 -0.141944 -4.40538e-20)
(0.293857 -0.148305 2.93823e-19)
(0.383693 -0.144622 -1.3279e-18)
(0.462903 -0.136231 5.67236e-19)
(0.531754 -0.126185 5.85264e-19)
(0.591326 -0.116063 -6.90769e-19)
(0.642952 -0.106546 6.59567e-19)
(0.687606 -0.0979507 -2.89637e-19)
(0.0370389 -0.0917063 -7.22168e-20)
(0.118133 -0.189981 -9.14287e-21)
(0.220913 -0.23219 -1.43201e-18)
(0.32034 -0.243046 -4.55198e-19)
(0.408969 -0.237349 -4.76592e-20)
(0.486249 -0.223809 -7.48706e-19)
(0.552958 -0.207444 1.39471e-18)
(0.610451 -0.190864 -4.91743e-20)
(0.660132 -0.175224 7.96039e-19)
(0.702625 -0.161137 -6.99465e-19)
(0.0529578 -0.123849 1.21902e-19)
(0.150144 -0.257667 -5.63621e-19)
(0.258771 -0.316017 1.73481e-18)
(0.359008 -0.331727 2.45592e-19)
(0.446013 -0.324659 1.20618e-18)
(0.520581 -0.306621 -1.17856e-18)
(0.584232 -0.284491 1.23703e-18)
(0.638732 -0.261876 -8.92013e-19)
(0.685597 -0.240429 -3.91862e-19)
(0.724974 -0.221177 3.32413e-19)
(0.0729612 -0.1517 1.08718e-18)
(0.190706 -0.317432 2.82896e-21)
(0.307052 -0.391168 -1.82641e-18)
(0.408614 -0.412196 -5.29587e-19)
(0.49379 -0.404619 1.75923e-18)
(0.565081 -0.382969 -1.03045e-18)
(0.624956 -0.355823 -1.19275e-18)
(0.675707 -0.327742 1.07321e-18)
(0.71902 -0.300893 -7.30196e-19)
(0.754477 -0.276873 -1.57508e-19)
(0.0960722 -0.174371 -1.62371e-19)
(0.23809 -0.367543 -7.55083e-21)
(0.363937 -0.455685 1.97963e-18)
(0.467518 -0.482569 1.13511e-18)
(0.550938 -0.475537 -1.33821e-18)
(0.618676 -0.45137 1.62063e-18)
(0.674323 -0.42014 -1.7571e-18)
(0.720806 -0.387286 1.75238e-19)
(0.760034 -0.35549 5.23607e-19)
(0.790966 -0.327091 1.2101e-18)
(0.121151 -0.191201 1.85206e-19)
(0.290238 -0.406633 2.9774e-19)
(0.427225 -0.507978 3.23142e-19)
(0.533711 -0.541295 -1.04418e-18)
(0.615764 -0.536025 -1.85852e-18)
(0.680021 -0.510634 3.91527e-19)
(0.731335 -0.476427 1.13424e-18)
(0.773362 -0.439604 -3.24472e-19)
(0.808286 -0.403317 1.95112e-18)
(0.834361 -0.37082 -1.90261e-18)
(0.146938 -0.201773 -1.04754e-18)
(0.344826 -0.433746 4.00517e-19)
(0.494376 -0.546871 -1.08587e-18)
(0.604821 -0.587209 1.7548e-18)
(0.68622 -0.585063 8.77625e-19)
(0.747454 -0.559947 1.23906e-18)
(0.794741 -0.524073 -2.85783e-19)
(0.832574 -0.484228 1.13039e-18)
(0.863484 -0.443916 -2.39216e-18)
(0.884781 -0.407418 -6.23831e-19)
(0.172107 -0.205934 6.30873e-20)
(0.39933 -0.448364 -7.01065e-19)
(0.56256 -0.571639 -1.11742e-18)
(0.678119 -0.619566 -4.75777e-19)
(0.759858 -0.622059 -1.34342e-18)
(0.818894 -0.599007 -1.37662e-19)
(0.86288 -0.563174 1.18428e-19)
(0.897291 -0.521701 -5.2408e-19)
(0.925284 -0.478099 -5.87374e-19)
(0.942761 -0.437316 1.54811e-18)
(0.195321 -0.203792 3.28065e-19)
(0.451125 -0.450418 4.55578e-19)
(0.628723 -0.581985 8.19485e-19)
(0.750501 -0.637997 3.73973e-20)
(0.833627 -0.646811 5.4927e-19)
(0.891289 -0.628064 -7.4964e-19)
(0.932532 -0.594713 2.2923e-18)
(0.963778 -0.553827 -1.0112e-18)
(0.98965 -0.50782 -4.98039e-19)
(1.0065 -0.460907 -1.50311e-18)
(0.21532 -0.195724 -1.28347e-19)
(0.497624 -0.440262 2.19228e-19)
(0.689722 -0.577936 -2.26156e-19)
(0.818543 -0.642208 1.23654e-19)
(0.903706 -0.65887 -1.46583e-19)
(0.959971 -0.64684 -3.77548e-19)
(0.997539 -0.619328 4.96262e-19)
(1.02341 -0.584632 -1.65495e-19)
(1.04294 -0.547905 2.51972e-19)
(1.05924 -0.514904 -5.50702e-19)
(0.231043 -0.182384 -2.49955e-21)
(0.53656 -0.418701 -1.18815e-19)
(0.742837 -0.559807 3.88341e-20)
(0.879573 -0.631722 1.33106e-19)
(0.96789 -0.656605 -6.95608e-20)
(1.02367 -0.651784 2.00654e-20)
(1.05818 -0.629918 -1.58726e-20)
(1.0792 -0.599568 -3.64427e-19)
(1.0924 -0.566502 -1.72335e-19)
(1.10279 -0.534553 -5.34873e-19)
(0.24172 -0.16471 -1.00304e-19)
(0.56611 -0.387116 3.54708e-19)
(0.785809 -0.52865 -2.24526e-19)
(0.931419 -0.607053 -9.29599e-20)
(1.02459 -0.640081 5.78138e-20)
(1.08183 -0.642872 5.26321e-20)
(1.11536 -0.627119 -2.07925e-21)
(1.13383 -0.601348 2.62142e-19)
(1.14333 -0.571837 -2.30031e-19)
(1.14948 -0.541702 -2.25574e-21)
(0.246905 -0.143857 -2.41907e-19)
(0.584939 -0.347419 -1.53754e-19)
(0.816759 -0.486239 -3.80453e-19)
(0.97204 -0.569594 4.33751e-19)
(1.07191 -0.610427 -3.15623e-20)
(1.13292 -0.621269 1.46659e-19)
(1.16782 -0.612521 1.73529e-19)
(1.18597 -0.592364 -6.19855e-20)
(1.19391 -0.567257 2.83597e-20)
(1.19743 -0.539813 -1.10911e-19)
(0.246476 -0.121081 -1.63592e-19)
(0.592239 -0.301859 -2.10048e-19)
(0.834234 -0.434842 3.18169e-19)
(0.999557 -0.521252 -4.80747e-19)
(1.10778 -0.569129 8.42702e-20)
(1.17478 -0.588121 4.35625e-20)
(1.21334 -0.587019 9.29859e-20)
(1.23317 -0.573328 -6.04401e-20)
(1.24117 -0.553395 -7.46432e-20)
(1.24327 -0.529477 -2.7846e-19)
(0.240617 -0.0976292 6.81904e-19)
(0.587765 -0.252853 -5.33e-19)
(0.837314 -0.377053 2.4638e-20)
(1.01245 -0.464315 -6.86353e-19)
(1.13027 -0.518009 -2.00587e-19)
(1.20527 -0.544792 1.60941e-19)
(1.24968 -0.551604 1.18583e-19)
(1.27321 -0.544989 -3.96392e-19)
(1.28297 -0.530949 1.79939e-19)
(1.28493 -0.511476 -3.20534e-19)
(0.229782 -0.0746628 3.37581e-19)
(0.571842 -0.202821 -3.33996e-19)
(0.825693 -0.315645 1.20201e-18)
(1.00969 -0.401372 9.65375e-20)
(1.13777 -0.459225 2.7307e-19)
(1.22239 -0.492957 9.79887e-19)
(1.27471 -0.507528 -2.02223e-19)
(1.30401 -0.508288 5.21331e-20)
(1.31739 -0.500689 -2.66757e-20)
(1.32073 -0.486482 -5.11612e-20)
(0.21465 -0.0531889 2.59844e-19)
(0.545333 -0.15405 5.91501e-19)
(0.799719 -0.253414 -6.04088e-19)
(0.990877 -0.33519 -1.84187e-19)
(1.12914 -0.395199 -1.95702e-19)
(1.22447 -0.434561 3.83469e-19)
(1.28644 -0.456257 -1.81641e-19)
(1.32353 -0.4643 4.29767e-19)
(1.34249 -0.463402 1.04885e-19)
(1.34893 -0.455066 -1.8407e-19)
(0.196068 -0.0340162 -2.80737e-19)
(0.509578 -0.108562 2.60654e-19)
(0.760391 -0.193033 -5.35709e-19)
(0.956277 -0.268588 2.24572e-19)
(1.10384 -0.328534 -2.25329e-19)
(1.21027 -0.37179 -2.68475e-19)
(1.28318 -0.3995 -2.08903e-19)
(1.32982 -0.414289 2.30762e-19)
(1.35632 -0.419996 -4.02874e-19)
(1.36773 -0.417839 2.54943e-19)
(0.174988 -0.0177288 -1.05105e-19)
(0.466296 -0.0680224 -2.06487e-19)
(0.709317 -0.136911 9.71568e-20)
(0.906875 -0.204304 7.11718e-21)
(1.06202 -0.26193 7.7495e-20)
(1.17913 -0.307046 1.11221e-19)
(1.26362 -0.339229 9.50594e-20)
(1.32119 -0.35978 -1.28539e-19)
(1.35701 -0.371584 1.05246e-19)
(1.3753 -0.375557 -1.66424e-19)
(0.152402 -0.00467697 -6.62245e-20)
(0.417475 -0.0336701 -2.66955e-20)
(0.648616 -0.0870729 9.9687e-20)
(0.844347 -0.144861 -4.49279e-20)
(1.00459 -0.198071 1.26062e-19)
(1.13108 -0.242888 -1.59462e-19)
(1.22699 -0.277684 4.08724e-20)
(1.29627 -0.302606 3.51909e-20)
(1.34285 -0.31958 -1.27418e-20)
(1.36986 -0.32921 5.80127e-20)
(0.129273 0.00501362 -7.9417e-20)
(0.365224 -0.00628291 -3.37143e-19)
(0.580787 -0.0450657 -2.72417e-20)
(0.770986 -0.0924349 1.087e-20)
(0.933209 -0.139497 -4.68838e-19)
(1.06693 -0.181937 4.95101e-20)
(1.17321 -0.217337 -5.24518e-20)
(1.25421 -0.244937 -1.43049e-19)
(1.31244 -0.265769 3.17301e-19)
(1.3497 -0.280136 -5.77541e-19)
(0.106484 0.0114176 -4.50468e-20)
(0.311647 0.0138201 7.23253e-19)
(0.508546 -0.0118977 9.66549e-20)
(0.68957 -0.0487335 -6.53962e-19)
(0.850251 -0.0884593 -7.81588e-20)
(0.988301 -0.126751 -7.38845e-19)
(1.10302 -0.160814 5.74941e-19)
(1.19487 -0.189269 -2.33798e-19)
(1.2649 -0.212372 4.43034e-19)
(1.31346 -0.230128 -3.91558e-19)
(0.0847858 0.0147744 -2.54844e-19)
(0.258708 0.0267491 2.97212e-19)
(0.434644 0.0119912 -2.07711e-19)
(0.603182 -0.0148958 1.43581e-18)
(0.758663 -0.04676 7.60739e-19)
(0.89762 -0.0796498 -1.99399e-19)
(1.01802 -0.110745 7.75486e-19)
(1.11895 -0.138343 -5.07534e-19)
(1.20005 -0.162043 -1.63873e-19)
(1.26027 -0.181515 1.18089e-18)
(0.0647756 0.0154475 -4.71345e-19)
(0.208128 0.0329936 7.04287e-19)
(0.361692 0.0267311 -1.33662e-18)
(0.514989 0.00859169 2.31487e-19)
(0.661766 -0.0155927 5.7787e-19)
(0.797937 -0.0424976 -7.25959e-19)
(0.920663 -0.0695488 -1.28719e-18)
(1.02805 -0.0949577 6.9015e-19)
(1.11863 -0.117764 -8.98437e-19)
(1.19004 -0.137159 1.43792e-18)
(0.0468834 0.013887 -1.16485e-19)
(0.161316 0.0333667 -7.09075e-19)
(0.292002 0.0330071 3.49977e-19)
(0.428009 0.0219629 8.76926e-19)
(0.562974 0.00463027 -4.70982e-19)
(0.69268 -0.0164406 -4.65241e-19)
(0.813999 -0.039101 -7.8953e-19)
(0.92458 -0.061647 -3.61988e-19)
(1.02223 -0.0825814 -8.70593e-20)
(1.10356 -0.100294 1.43648e-18)
(0.0313895 0.0106043 1.95887e-19)
(0.119338 0.0289577 -9.63885e-19)
(0.227476 0.0320379 1.64987e-18)
(0.344902 0.0262287 -9.18687e-19)
(0.465492 0.0144586 5.96026e-19)
(0.585277 -0.00157578 -7.41695e-19)
(0.70131 -0.0202732 8.26267e-19)
(0.811346 -0.040138 7.21894e-19)
(0.913013 -0.0590829 1.57719e-18)
(1.0023 -0.074105 -2.60754e-18)
(0.0184531 0.00616152 -6.08633e-19)
(0.0829296 0.0210907 1.22321e-18)
(0.169553 0.0255356 1.65327e-20)
(0.267827 0.0231981 -4.40816e-19)
(0.372073 0.0155612 -2.33838e-19)
(0.478786 0.00341877 1.87433e-19)
(0.585561 -0.012299 -1.33085e-18)
(0.690832 -0.0304829 1.02826e-18)
(0.792811 -0.0484597 -1.32529e-18)
(0.887506 -0.0608985 -6.04564e-19)
(0.0081443 0.00116649 1.0481e-18)
(0.0525327 0.0112671 -3.26959e-19)
(0.119238 0.0156098 -6.1424e-19)
(0.198447 0.0154024 1.66856e-18)
(0.284959 0.0107655 -1.63976e-18)
(0.375712 0.00155997 9.16651e-19)
(0.468886 -0.0121266 9.76739e-19)
(0.563904 -0.0299856 2.67349e-19)
(0.660405 -0.0493119 2.77956e-19)
(0.75608 -0.0614262 -3.93834e-19)
(0.000457125 -0.00375302 -1.00287e-18)
(0.0283478 0.00104387 9.53916e-19)
(0.0772272 0.00455043 -8.44494e-19)
(0.138183 0.00584556 1.06029e-18)
(0.20638 0.00393248 -3.16755e-19)
(0.27885 -0.00211299 -1.10127e-18)
(0.353748 -0.0130287 3.15771e-19)
(0.430661 -0.0297594 -5.20899e-19)
(0.510553 -0.0515784 -6.16824e-19)
(0.595751 -0.0685272 -1.92297e-18)
(-0.00471633 -0.0080352 -1.25406e-18)
(0.010336 -0.00822571 9.97327e-19)
(0.0439974 -0.00567378 -1.95517e-18)
(0.0885333 -0.00284063 3.49771e-19)
(0.139482 -0.00128556 -1.35574e-18)
(0.193736 -0.0019724 -8.13705e-19)
(0.248716 -0.00522653 1.94799e-18)
(0.302479 -0.0112714 -2.66442e-18)
(0.354374 -0.0207091 5.12932e-19)
(0.401662 -0.0294022 -8.47431e-19)
(-0.00764098 -0.0113033 6.17892e-19)
(-0.00189358 -0.0156955 2.61901e-19)
(0.0195471 -0.0140801 -7.82427e-20)
(0.0505174 -0.00995893 7.43447e-19)
(0.0873299 -0.00522136 2.18442e-18)
(0.127406 -0.000830314 7.54461e-19)
(0.168731 0.00302022 7.79985e-19)
(0.2101 0.00637568 -2.6962e-19)
(0.251584 0.00857345 -2.5199e-18)
(0.290612 0.0100301 6.3869e-19)
(-0.00875366 -0.0133872 -1.74686e-19)
(-0.00921127 -0.0209608 5.5619e-19)
(0.00287954 -0.0202867 -1.45758e-19)
(0.0231063 -0.0155107 1.02913e-18)
(0.0486962 -0.00880936 -2.37968e-18)
(0.0776992 -0.00134499 2.02302e-19)
(0.108682 0.00635272 -1.13358e-18)
(0.140862 0.0138735 1.66929e-18)
(0.174057 0.0202488 -4.87703e-19)
(0.205596 0.0247901 -6.97375e-20)
(-0.00856698 -0.0142745 -1.18883e-19)
(-0.0127448 -0.0239 -6.68825e-19)
(-0.00753224 -0.0241228 1.68312e-18)
(0.00437413 -0.0193588 -8.87318e-19)
(0.0210829 -0.0119776 6.2203e-20)
(0.0411801 -0.00335788 2.84849e-19)
(0.0636224 0.00563024 -2.60806e-19)
(0.0877855 0.0141922 3.38659e-19)
(0.113252 0.0212235 1.17457e-18)
(0.137809 0.0259258 3.07649e-19)
(-0.0075702 -0.0140518 -2.66958e-19)
(-0.0136335 -0.0245789 -2.97016e-19)
(-0.0132932 -0.0255452 -1.31829e-18)
(-0.00769291 -0.0212842 7.02169e-19)
(0.00206927 -0.0141933 -1.4486e-18)
(0.015029 -0.00574798 3.29044e-19)
(0.0304239 0.00302063 3.70112e-19)
(0.0477114 0.0112006 -3.91545e-19)
(0.0663709 0.0177792 -2.53461e-19)
(0.084752 0.0220311 -1.13876e-18)
(-0.00617888 -0.0128584 2.08751e-19)
(-0.0128974 -0.0231898 -4.9151e-20)
(-0.0158835 -0.0246411 9.17409e-22)
(-0.014963 -0.0211569 -6.33988e-19)
(-0.0105576 -0.0149787 1.60491e-18)
(-0.00326272 -0.00753061 -2.50364e-19)
(0.00637529 0.000162376 -6.25031e-19)
(0.01788 0.00724436 7.65084e-19)
(0.0307127 0.0128953 -2.68995e-19)
(0.0437079 0.0165152 1.4867e-18)
(-0.00471962 -0.0108566 -3.91998e-20)
(-0.0113758 -0.0200096 -2.29779e-19)
(-0.0165483 -0.0216226 -9.06914e-20)
(-0.0190102 -0.0190045 -1.15879e-19)
(-0.0186373 -0.0140742 -2.49083e-19)
(-0.0157301 -0.00807144 -7.82376e-19)
(-0.0106629 -0.00189289 9.7877e-19)
(-0.00384469 0.00375044 5.71934e-19)
(0.0042092 0.00824668 -1.024e-19)
(0.0127026 0.0111348 -9.11896e-19)
(-0.00343379 -0.00821739 2.22659e-19)
(-0.00971109 -0.015374 3.88627e-20)
(-0.0162535 -0.0168171 2.6323e-19)
(-0.0210515 -0.0150356 -3.01791e-20)
(-0.02357 -0.0114929 2.3969e-19)
(-0.0238856 -0.007142 2.7049e-19)
(-0.0222387 -0.00267035 4.05652e-19)
(-0.0189755 0.00139785 -1.1492e-18)
(-0.0145764 0.00464438 -2.12169e-19)
(-0.00957857 0.00674427 3.80195e-19)
(-0.00248918 -0.00511679 -1.12462e-19)
(-0.00836046 -0.00966345 -1.59802e-19)
(-0.0156914 -0.0106544 -7.68364e-20)
(-0.0219555 -0.00963186 3.75905e-19)
(-0.0263433 -0.00751012 1.82462e-19)
(-0.0287802 -0.00488703 3.74259e-20)
(-0.0294133 -0.00219181 -8.11356e-20)
(-0.02854 0.000256368 -6.29582e-20)
(-0.0266115 0.00221496 5.40486e-19)
(-0.0240021 0.00349071 -3.68063e-19)
(-0.00199142 -0.00173619 5.73377e-20)
(-0.00761475 -0.00329303 7.1318e-20)
(-0.0153034 -0.00364371 -6.08005e-20)
(-0.0222742 -0.00331039 -5.5609e-20)
(-0.0275804 -0.00260381 -5.76596e-20)
(-0.0310707 -0.00172745 -9.20198e-20)
(-0.0328442 -0.000827004 2.94731e-21)
(-0.0331721 -9.44757e-06 1.27695e-19)
(-0.0324889 0.00064586 -1.28242e-19)
(-0.0310914 0.0010748 2.33322e-19)
(-0.00706115 -0.00261213 1.69365e-20)
(0.0646471 -0.00670154 1.04318e-20)
(0.281783 -0.00688967 1.46497e-21)
(0.384615 -0.00457935 -9.85863e-22)
(0.48995 -0.0039018 -7.29028e-23)
(0.571295 -0.00277925 1.85386e-22)
(0.626541 -0.0024979 2.63805e-22)
(0.697999 -0.00187974 -6.15763e-23)
(0.723251 -0.00198422 -2.52236e-24)
(0.799268 -0.00158369 3.66192e-22)
(0.00981844 -0.00820892 2.66423e-20)
(0.0800004 -0.0199334 9.88241e-22)
(0.293367 -0.0203755 -1.87219e-20)
(0.393447 -0.013509 1.5819e-20)
(0.496736 -0.0116086 1.05209e-21)
(0.576542 -0.00842677 -8.76717e-22)
(0.630868 -0.00763285 1.08531e-21)
(0.701271 -0.00579401 1.43365e-22)
(0.726148 -0.00598402 3.41763e-22)
(0.801254 -0.00462138 -3.36353e-22)
(0.0432733 -0.0146894 2.76114e-20)
(0.110206 -0.0326824 -3.7406e-20)
(0.316079 -0.0333981 1.90052e-20)
(0.41078 -0.0221345 -1.32633e-20)
(0.510064 -0.0190811 1.0214e-21)
(0.58686 -0.0139171 -8.13536e-22)
(0.639364 -0.0126411 -4.22295e-22)
(0.707685 -0.00961837 2.1939e-23)
(0.73181 -0.00990508 -2.60727e-22)
(0.805116 -0.00760459 -4.91512e-22)
(0.0926854 -0.0225324 -4.22529e-20)
(0.154323 -0.0446478 -5.14385e-20)
(0.349071 -0.0456703 -2.44209e-20)
(0.435995 -0.0302702 1.34507e-20)
(0.52947 -0.0261751 -1.74948e-20)
(0.601925 -0.019153 5.20129e-21)
(0.651798 -0.0174433 -3.42965e-22)
(0.717106 -0.0132965 2.59098e-22)
(0.740147 -0.0136978 -3.05949e-22)
(0.810837 -0.0104989 1.81852e-22)
(0.157099 -0.0320098 1.17787e-19)
(0.210997 -0.0555404 7.57044e-20)
(0.391126 -0.0569264 2.75178e-20)
(0.468193 -0.0377524 -2.65292e-20)
(0.554273 -0.0327631 1.4337e-20)
(0.621242 -0.0240484 4.23468e-21)
(0.667776 -0.0219685 3.50346e-21)
(0.729254 -0.0167775 4.85701e-22)
(0.750927 -0.0173163 7.28572e-22)
(0.818267 -0.0132722 -9.6655e-22)
(0.235205 -0.0430457 -5.24652e-20)
(0.278522 -0.0650431 3.91844e-20)
(0.44073 -0.0669106 4.93242e-21)
(0.506262 -0.0444357 3.00219e-20)
(0.583637 -0.0387346 -6.99295e-21)
(0.644208 -0.0285296 -5.18492e-21)
(0.686831 -0.0261548 -3.59781e-21)
(0.74381 -0.0200177 -3.85475e-22)
(0.763893 -0.0207196 -3.57942e-22)
(0.827262 -0.0158957 1.02416e-21)
(0.325344 -0.055355 -3.9291e-20)
(0.354896 -0.0728891 -1.0446e-19)
(0.496155 -0.0754175 -1.80964e-20)
(0.548934 -0.0502021 -1.62719e-20)
(0.616612 -0.0440037 8.44992e-21)
(0.670129 -0.032538 -2.47107e-21)
(0.70842 -0.0299524 3.65192e-21)
(0.760393 -0.0229806 8.29154e-22)
(0.778734 -0.0238739 -1.07908e-22)
(0.837634 -0.0183436 3.9517e-22)