1.275 	2.15223e-18 	-2.76991e-20 	-0.0336496 	-0.000453631 	-2.00399e-22
1.825 	2.15223e-18 	-1.39322e-20 	-0.00803025 	-0.00282482 	1.80241e-21
2.375 	2.15223e-18 	-2.66896e-23 	0.119325 	-0.00336421 	-7.5199e-22
