1.45 	0 	0 	-0.292331
2.35 	0 	0 	-0.127621
