1.45 	0 	0 	-0.00814332 	-0.0025689 	3.78231e-21
2.35 	0 	0 	0.061336 	-0.00662934 	2.28438e-21
