/*--------------------------------*- C++ -*----------------------------------*\
  =========                 |
  \\      /  F ield         | OpenFOAM: The Open Source CFD Toolbox
   \\    /   O peration     | Website:  https://openfoam.org
    \\  /    A nd           | Version:  6.0
     \\/     M anipulation  |
\*---------------------------------------------------------------------------*/
FoamFile
{
    version     2.0;
    format      ascii;
    class       volScalarField;
    location    "5";
    object      p;
}
// * * * * * * * * * * * * * * * * * * * * * * * * * * * * * * * * * * * * * //

dimensions      [0 2 -2 0 0 0 0];

internalField   nonuniform List<scalar> 
62000
(
0.121921
0.122261
0.122733
0.123275
0.123905
0.124608
0.125366
0.126169
0.126999
0.127843
0.128681
0.1295
0.130279
0.131001
0.131646
0.132193
0.132618
0.132898
0.133002
0.132901
0.132559
0.131939
0.130997
0.129688
0.127959
0.12576
0.123029
0.119709
0.115731
0.111033
0.105553
0.0992615
0.0921605
0.0842934
0.0757619
0.0667566
0.0575911
0.0487412
0.0408834
0.0349182
0.031979
0.0333754
0.0405047
0.0547943
0.0773878
0.108502
0.146785
0.188935
0.229565
0.262269
0.281045
0.282204
0.266109
0.236716
0.199419
0.159416
0.119365
0.0790932
0.0443884
0.120361
0.109719
0.109882
0.110259
0.110717
0.111315
0.112034
0.112865
0.113802
0.114829
0.115934
0.117096
0.118299
0.119518
0.120732
0.121912
0.123031
0.124053
0.124948
0.125672
0.126189
0.126453
0.126417
0.12603
0.125239
0.123987
0.122217
0.119869
0.116881
0.11319
0.108729
0.103447
0.0973133
0.0903438
0.0825931
0.0741724
0.0652816
0.0562375
0.0475162
0.0397839
0.0339239
0.0310468
0.0324389
0.0394837
0.0536207
0.0760847
0.107305
0.146296
0.190237
0.234207
0.272048
0.297511
0.30608
0.296866
0.272528
0.237434
0.196107
0.150532
0.101311
0.0505521
0.0437358
0.0954417
0.0955613
0.0958337
0.0961194
0.0964841
0.0969206
0.0974279
0.0980149
0.098676
0.0994165
0.100227
0.101109
0.102048
0.103038
0.104055
0.105085
0.106096
0.107061
0.107938
0.108689
0.109264
0.109613
0.109678
0.109403
0.108723
0.107575
0.105898
0.103625
0.100692
0.097031
0.0925815
0.0873209
0.0812612
0.0744579
0.0670182
0.0591299
0.0510894
0.0433392
0.036496
0.0313754
0.0290027
0.0305631
0.0373314
0.0506439
0.0716876
0.100956
0.137698
0.179497
0.221971
0.259461
0.285938
0.296664
0.290057
0.267878
0.233679
0.191413
0.142873
0.0901285
0.0340011
0.023202
0.0839755
0.0840746
0.0842934
0.084483
0.0847131
0.0849705
0.085256
0.0855755
0.085926
0.0863142
0.0867365
0.0871999
0.0876995
0.08824
0.0888109
0.089411
0.0900207
0.090629
0.0912041
0.091722
0.0921394
0.0924168
0.0925006
0.0923385
0.0918689
0.0910312
0.0897634
0.0880011
0.08568
0.0827267
0.0790879
0.0747272
0.0696609
0.0639374
0.0576523
0.0509741
0.0441671
0.0376268
0.0319021
0.0277184
0.0259881
0.0277567
0.0341503
0.0463582
0.0654668
0.091973
0.125296
0.16338
0.202378
0.237226
0.262305
0.272941
0.267157
0.246054
0.212547
0.170152
0.120768
0.0677911
0.0121505
-0.00393075
0.0729788
0.0731855
0.0734909
0.0737441
0.0740075
0.0742674
0.0745189
0.0747678
0.0750073
0.0752442
0.0754729
0.0757022
0.0759275
0.076158
0.0763876
0.0766231
0.0768534
0.0770794
0.0772812
0.0774486
0.0775515
0.0775647
0.0774467
0.0771575
0.0766455
0.0758597
0.0747452
0.0732445
0.0712963
0.0688356
0.0657971
0.0621578
0.0579229
0.0531367
0.0478827
0.0423079
0.0366435
0.031236
0.0265652
0.0232656
0.0221343
0.0240743
0.0300604
0.0411345
0.0582704
0.0819436
0.111698
0.145775
0.180815
0.212316
0.235124
0.244759
0.239034
0.218579
0.185797
0.143885
0.0949204
0.043155
-0.0113326
-0.0305383
0.063113
0.0632804
0.0635468
0.0637593
0.0639852
0.0642058
0.0644172
0.0646195
0.0648039
0.0649713
0.0651134
0.0652337
0.0653251
0.0653941
0.0654334
0.0654508
0.0654372
0.0653984
0.0653205
0.0652025
0.0650242
0.064773
0.0644196
0.0639377
0.0632888
0.0624346
0.0613323
0.0599344
0.0581901
0.0560345
0.0534209
0.0503115
0.0467199
0.0426825
0.0382718
0.0336151
0.0289132
0.024467
0.020693
0.0181412
0.0175033
0.0195482
0.0251133
0.0351048
0.0503868
0.0714005
0.0977803
0.128008
0.159142
0.187189
0.207457
0.215717
0.209688
0.189653
0.15761
0.11648
0.0684991
0.0182516
-0.0355208
-0.0573875
0.0528188
0.053058
0.0533881
0.053658
0.0539292
0.0541856
0.0544196
0.0546342
0.0548185
0.0549753
0.0550936
0.0551774
0.0552169
0.0552174
0.0551693
0.0550789
0.0549362
0.0547478
0.0545014
0.0542
0.0538287
0.0533828
0.0528419
0.052191
0.0514031
0.0504525
0.0493087
0.0479366
0.0462945
0.0443345
0.0419999
0.0392761
0.0361661
0.0327061
0.0289597
0.0250375
0.0211132
0.0174478
0.0144009
0.012449
0.0121895
0.0142726
0.0194149
0.0284061
0.042005
0.0606158
0.0839354
0.110642
0.138143
0.162896
0.180635
0.187402
0.180893
0.161141
0.129804
0.0895683
0.0427332
-0.00618041
-0.0598825
-0.0844064
0.0435596
0.0437265
0.0439854
0.0441864
0.0443972
0.044599
0.0447874
0.0449618
0.0451121
0.0452373
0.0453264
0.0453799
0.0453866
0.0453493
0.0452563
0.0451123
0.044905
0.0446402
0.0443044
0.0439016
0.0434182
0.0428533
0.0421913
0.0414243
0.0405339
0.0395038
0.0383148
0.0369424
0.0353577
0.0335147
0.0313831
0.0289329
0.0261813
0.0231597
0.019925
0.0165738
0.0132575
0.0102025
0.0077203
0.00622292
0.00622787
0.00828036
0.0129964
0.0210637
0.0331466
0.0496062
0.0701871
0.0937193
0.117912
0.13961
0.154934
0.160195
0.15311
0.13352
0.102809
0.0634222
0.0176563
-0.0303083
-0.0844359
-0.111901
0.0335957
0.03382
0.0341295
0.0343763
0.0346226
0.0348521
0.0350578
0.0352431
0.0353969
0.035522
0.0356063
0.035653
0.0356502
0.0356011
0.0354931
0.0353297
0.0350977
0.0348016
0.0344271
0.0339777
0.0334401
0.0328146
0.032088
0.0312563
0.030306
0.0292282
0.028011
0.0266394
0.025092
0.0233412
0.0213449
0.0191014
0.0166177
0.0139283
0.0110855
0.00817459
0.00532807
0.0027429
0.000689138
-0.000475756
-0.000303373
0.00166312
0.00595328
0.0131709
0.0238903
0.0384344
0.0565744
0.0772719
0.0984816
0.11739
0.130457
0.13425
0.126533
0.107011
0.0768218
0.0381957
-0.00665904
-0.0540515
-0.109014
-0.139816
0.024605
0.0247451
0.0249704
0.0251361
0.0253104
0.0254748
0.0256258
0.0257633
0.0258778
0.0259688
0.0260252
0.0260474
0.0260237
0.0259562
0.0258317
0.0256535
0.025407
0.0250967
0.0247065
0.0242397
0.0236818
0.0230333
0.0222815
0.0214238
0.0204498
0.0193541
0.0181305
0.0167701
0.0152609
0.0135738
0.0116951
0.00960414
0.00732506
0.00488887
0.00234409
-0.000232871
-0.00272552
-0.00496091
-0.00670496
-0.00764548
-0.00739371
-0.00556711
-0.00170932
0.00471233
0.01419
0.027007
0.0429529
0.0610953
0.0795961
0.0959458
0.106899
0.109264
0.100868
0.0813106
0.0515243
0.0135186
-0.0306256
-0.0777856
-0.13378
-0.168419
0.0146789
0.014877
0.015155
0.0153698
0.0155831
0.0157791
0.0159507
0.0161027
0.016224
0.0163185
0.0163739
0.0163944
0.016368
0.0162982
0.0161716
0.0159918
0.0157444
0.0154332
0.0150426
0.0145751
0.0140164
0.0133669
0.0126137
0.0117553
0.0107821
0.00969122
0.00847931
0.00714192
0.00567047
0.00405213
0.00225583
0.000291835
-0.0018287
-0.00407019
-0.00638652
-0.00870954
-0.0109356
-0.0129135
-0.0144386
-0.0152391
-0.0149751
-0.0133289
-0.00990452
-0.00423113
0.00410845
0.0153606
0.0293224
0.0451557
0.0611921
0.0751932
0.0841694
0.0851531
0.0760446
0.056368
0.026873
-0.0106327
-0.0542389
-0.101424
-0.158491
-0.197516
0.00575248
0.00586161
0.00604993
0.00617817
0.00631435
0.00644038
0.00655305
0.00665344
0.0067321
0.00678938
0.00681452
0.00680867
0.00676021
0.00667211
0.00653098
0.00634065
0.00608636
0.00577261
0.00538261
0.00491934
0.00436749
0.00372737
0.00298559
0.00214066
0.0011834
0.000111492
-0.0010763
-0.00238218
-0.00380924
-0.00537656
-0.00708611
-0.00895266
-0.0109467
-0.0130369
-0.01518
-0.0173147
-0.0193481
-0.0211477
-0.0225338
-0.0232691
-0.0230554
-0.0216302
-0.0186488
-0.0136951
-0.00641827
0.00338813
0.0155291
0.0292379
0.0430055
0.0548191
0.0619228
0.0615543
0.051693
0.0318058
0.00249028
-0.0346507
-0.0778848
-0.125313
-0.183455
-0.227259
-0.00421723
-0.00405197
-0.00381237
-0.00363632
-0.00346232
-0.0033058
-0.00317354
-0.00305968
-0.00297513
-0.00291503
-0.00289131
-0.00289905
-0.00295003
-0.00303997
-0.00318198
-0.00337225
-0.00362459
-0.00393494
-0.004319
-0.00477415
-0.0053149
-0.00594109
-0.00666596
-0.00749088
-0.00842516
-0.00947043
-0.0106275
-0.0118972
-0.0132822
-0.0147873
-0.0164378
-0.0182159
-0.0201089
-0.022081
-0.0240919
-0.0260857
-0.027981
-0.0296597
-0.0309658
-0.0316903
-0.0315726
-0.0303953
-0.0278605
-0.0235975
-0.01732
-0.00885329
0.00160313
0.0133564
0.0250213
0.0347944
0.0401234
0.0384339
0.0277909
0.00762274
-0.0216081
-0.0584833
-0.101466
-0.149301
-0.208814
-0.257339
-0.0132235
-0.01315
-0.0130034
-0.0129167
-0.0128225
-0.0127381
-0.0126666
-0.0126057
-0.0125649
-0.0125429
-0.0125502
-0.0125852
-0.0126591
-0.0127684
-0.012926
-0.0131277
-0.0133876
-0.0137008
-0.0140836
-0.014533
-0.0150638
-0.0156758
-0.0163826
-0.0171857
-0.0180943
-0.0191105
-0.0202346
-0.0214668
-0.0228068
-0.0242693
-0.0258493
-0.0275608
-0.029371
-0.0312513
-0.0331642
-0.0350599
-0.0368656
-0.0384772
-0.0397578
-0.0405241
-0.040547
-0.039649
-0.037572
-0.0339881
-0.0286664
-0.0214677
-0.0125917
-0.00267422
0.00701302
0.0148549
0.0184768
0.0154798
0.00401749
-0.0165101
-0.0457495
-0.0824654
-0.12531
-0.173699
-0.234875
-0.287895
-0.0234184
-0.0232838
-0.0230798
-0.0229385
-0.0227996
-0.0226777
-0.0225801
-0.0224995
-0.0224472
-0.0224173
-0.0224218
-0.0224549
-0.0225284
-0.0226372
-0.0227942
-0.0229951
-0.023253
-0.0235635
-0.0239414
-0.0243838
-0.0249045
-0.0255032
-0.0261928
-0.0269747
-0.0278584
-0.0288457
-0.0299376
-0.0311339
-0.0324359
-0.0338437
-0.0353827
-0.0370297
-0.0387745
-0.0405845
-0.0424255
-0.0442541
-0.0460049
-0.0475869
-0.04888
-0.0497244
-0.049918
-0.0493179
-0.0477021
-0.0447808
-0.0403752
-0.0343753
-0.0269886
-0.0187925
-0.0109678
-0.00495682
-0.00297565
-0.00726065
-0.0195681
-0.0405118
-0.0698343
-0.106462
-0.149242
-0.198285
-0.261328
-0.318614
-0.032602
-0.0325603
-0.0324507
-0.0324004
-0.0323426
-0.032294
-0.0322579
-0.0322309
-0.0322227
-0.0322312
-0.032267
-0.0323277
-0.0324245
-0.0325533
-0.0327268
-0.0329404
-0.0332074
-0.0335226
-0.0339016
-0.0343407
-0.0348542
-0.0354415
-0.0361157
-0.0368784
-0.0377389
-0.0386998
-0.039762
-0.0409256
-0.0421887
-0.0435661
-0.0450483
-0.0466512
-0.0483441
-0.0501028
-0.0518975
-0.0536892
-0.0554208
-0.0570114
-0.0583574
-0.059318
-0.0597166
-0.0594388
-0.0582974
-0.0560354
-0.0525229
-0.0476776
-0.0417139
-0.035161
-0.0291097
-0.0248606
-0.0244782
-0.0300471
-0.043235
-0.0646605
-0.0941425
-0.130761
-0.17355
-0.223327
-0.288242
-0.349693
-0.0430162
-0.042914
-0.0427475
-0.0426431
-0.0425413
-0.0424558
-0.0423943
-0.0423481
-0.0423289
-0.0423296
-0.0423625
-0.0424212
-0.0425172
-0.0426452
-0.0428179
-0.0430308
-0.0432964
-0.0436098
-0.0439855
-0.0444199
-0.0449262
-0.0455033
-0.0461642
-0.0469099
-0.0477504
-0.048688
-0.049724
-0.0508585
-0.0520926
-0.0534255
-0.0548826
-0.0564425
-0.0580985
-0.0598242
-0.0615924
-0.0633696
-0.065106
-0.066731
-0.0681555
-0.0692569
-0.0698808
-0.0699385
-0.0692739
-0.0676615
-0.0650154
-0.0612777
-0.0566731
-0.0516805
-0.0473204
-0.0447608
-0.0459298
-0.0527706
-0.0668611
-0.0888143
-0.118514
-0.155172
-0.198005
-0.248551
-0.315294
-0.380839
-0.0524421
-0.0524342
-0.0523635
-0.052351
-0.0523311
-0.0523191
-0.0523189
-0.0523259
-0.05235
-0.0523884
-0.0524519
-0.0525375
-0.0526564
-0.0528042
-0.0529936
-0.0532195
-0.0534951
-0.0538143
-0.0541927
-0.0546259
-0.0551277
-0.0556968
-0.0563465
-0.0570779
-0.057901
-0.0588187
-0.0598319
-0.0609415
-0.0621464
-0.0634612
-0.0648779
-0.0664164
-0.0680491
-0.0697586
-0.071521
-0.0733084
-0.0750773
-0.0767668
-0.0783008
-0.0795733
-0.0804494
-0.0808637
-0.0806884
-0.0797286
-0.0779364
-0.07528
-0.0719896
-0.0685049
-0.0657753
-0.0648589
-0.067553
-0.0756671
-0.0906935
-0.11323
-0.143212
-0.179969
-0.222888
-0.27421
-0.342624
-0.412277
-0.063195
-0.0631197
-0.0629842
-0.0629091
-0.0628367
-0.0627796
-0.0627469
-0.0627279
-0.0627355
-0.062761
-0.0628179
-0.062898
-0.0630138
-0.0631587
-0.063346
-0.0635702
-0.0638442
-0.0641619
-0.0645381
-0.0649681
-0.0654651
-0.0660275
-0.0666682
-0.0673879
-0.0681971
-0.0690978
-0.0700926
-0.0711823
-0.0723694
-0.0736538
-0.0750662
-0.0765839
-0.0782081
-0.0799163
-0.0816888
-0.0835027
-0.0853216
-0.0870937
-0.0887553
-0.090216
-0.0913586
-0.0921383
-0.0924543
-0.09214
-0.091183
-0.0895738
-0.0875504
-0.0855133
-0.0843533
-0.0850267
-0.08921
-0.0985897
-0.114571
-0.137729
-0.168039
-0.20493
-0.247941
-0.300004
-0.36991
-0.443708
-0.0727815
-0.0728038
-0.0727702
-0.0727953
-0.0728144
-0.0728414
-0.0728805
-0.072925
-0.0729857
-0.0730575
-0.0731524
-0.0732655
-0.0734093
-0.0735777
-0.0737848
-0.0740241
-0.07431
-0.0746351
-0.0750159
-0.0754468
-0.0759423
-0.0765003
-0.0771345
-0.0778454
-0.0786436
-0.0795323
-0.0805138
-0.0815901
-0.0827617
-0.0840468
-0.0854359
-0.0869553
-0.0885809
-0.0903013
-0.0921009
-0.0939618
-0.0958536
-0.0977328
-0.0995476
-0.101221
-0.102653
-0.103817
-0.104637
-0.104974
-0.104847
-0.104268
-0.103483
-0.102857
-0.103224
-0.105456
-0.111111
-0.121762
-0.138728
-0.162558
-0.193252
-0.230322
-0.273441
-0.326184
-0.397315
-0.475371
-0.0835703
-0.0835636
-0.0835036
-0.0835039
-0.083504
-0.0835157
-0.0835458
-0.0835835
-0.0836407
-0.083709
-0.0838022
-0.0839125
-0.0840532
-0.084218
-0.0844213
-0.0846576
-0.0849406
-0.0852637
-0.0856427
-0.0860722
-0.0865658
-0.0871211
-0.0877516
-0.0884576
-0.0892499
-0.0901321
-0.0911067
-0.0921766
-0.0933458
-0.0946151
-0.0960176
-0.0975353
-0.0991738
-0.100919
-0.102758
-0.104678
-0.106656
-0.108655
-0.110636
-0.112535
-0.114266
-0.11582
-0.117145
-0.118127
-0.118816
-0.119242
-0.119659
-0.120397
-0.122245
-0.125992
-0.133092
-0.145008
-0.162976
-0.187511
-0.218627
-0.255902
-0.299112
-0.352433
-0.424495
-0.506949
-0.0942689
-0.0942688
-0.0942147
-0.0942166
-0.0942154
-0.0942241
-0.0942503
-0.0942849
-0.0943408
-0.0944106
-0.0945071
-0.0946235
-0.0947728
-0.0949469
-0.0951606
-0.0954057
-0.0956973
-0.0960267
-0.096411
-0.0968436
-0.0973395
-0.0978959
-0.0985265
-0.0992322
-0.100023
-0.100905
-0.101878
-0.102947
-0.104114
-0.105397
-0.106791
-0.108327
-0.109988
-0.111769
-0.113663
-0.11566
-0.117742
-0.119883
-0.122052
-0.124197
-0.126247
-0.128208
-0.130051
-0.131686
-0.13319
-0.134612
-0.136213
-0.13829
-0.141591
-0.146832
-0.155365
-0.168557
-0.187555
-0.212842
-0.24443
-0.281947
-0.325246
-0.379014
-0.451629
-0.538695
-0.105121
-0.105131
-0.105089
-0.105102
-0.105113
-0.105132
-0.105169
-0.10521
-0.105273
-0.105345
-0.105443
-0.105558
-0.105704
-0.105875
-0.106085
-0.106328
-0.106618
-0.106948
-0.107334
-0.10777
-0.108269
-0.10883
-0.109464
-0.110174
-0.110968
-0.111852
-0.112829
-0.113903
-0.115078
-0.116359
-0.117783
-0.119334
-0.121028
-0.122855
-0.124812
-0.126895
-0.129092
-0.131383
-0.133749
-0.136149
-0.138526
-0.140897
-0.143259
-0.145542
-0.14785
-0.150248
-0.153005
-0.156384
-0.161104
-0.167806
-0.177752
-0.192215
-0.21226
-0.238327
-0.270422
-0.308199
-0.351555
-0.405604
-0.478352
-0.570276
-0.115835
-0.115869
-0.115852
-0.115889
-0.115922
-0.115962
-0.116019
-0.116081
-0.116163
-0.116256
-0.116375
-0.11651
-0.116678
-0.116869
-0.117099
-0.117358
-0.117664
-0.118007
-0.118405
-0.11885
-0.119358
-0.119926
-0.120568
-0.121284
-0.122085
-0.122976
-0.123961
-0.125045
-0.12623
-0.127541
-0.12897
-0.130557
-0.132291
-0.134174
-0.136206
-0.13839
-0.140719
-0.143179
-0.145761
-0.148435
-0.151156
-0.153955
-0.156848
-0.159788
-0.162903
-0.166272
-0.170174
-0.174841
-0.180961
-0.189111
-0.200466
-0.216211
-0.237332
-0.264223
-0.296872
-0.334944
-0.378342
-0.432476
-0.504856
-0.60195
-0.126803
-0.126851
-0.126853
-0.12691
-0.126966
-0.127028
-0.12711
-0.127194
-0.127297
-0.127406
-0.127541
-0.127688
-0.127866
-0.128064
-0.1283
-0.128567
-0.12888
-0.129231
-0.129637
-0.130091
-0.130609
-0.131187
-0.131839
-0.132565
-0.133377
-0.13428
-0.135278
-0.136377
-0.137585
-0.138904
-0.140377
-0.141994
-0.143776
-0.145724
-0.14784
-0.150132
-0.152599
-0.155235
-0.15804
-0.160995
-0.164065
-0.167293
-0.170718
-0.174311
-0.178224
-0.182549
-0.187574
-0.193499
-0.200992
-0.210563
-0.223311
-0.240338
-0.26255
-0.290292
-0.323529
-0.361912
-0.405312
-0.459305
-0.530757
-0.63337
-0.137772
-0.137843
-0.13787
-0.137951
-0.138029
-0.138114
-0.138217
-0.138324
-0.13845
-0.138584
-0.138743
-0.138917
-0.139121
-0.139345
-0.139607
-0.139896
-0.140231
-0.1406
-0.141023
-0.141493
-0.142025
-0.142615
-0.14328
-0.144019
-0.144845
-0.145763
-0.146778
-0.147897
-0.149125
-0.150486
-0.151976
-0.153642
-0.15548
-0.1575
-0.159712
-0.162125
-0.164746
-0.167575
-0.17062
-0.173873
-0.177309
-0.180984
-0.184953
-0.189209
-0.193925
-0.199207
-0.20535
-0.212526
-0.221383
-0.232369
-0.246512
-0.264834
-0.288168
-0.316804
-0.350675
-0.389403
-0.43279
-0.486394
-0.556255
-0.664804
-0.149122
-0.149203
-0.149242
-0.149336
-0.14943
-0.149531
-0.149652
-0.149774
-0.149916
-0.150063
-0.150234
-0.150416
-0.150628
-0.150858
-0.151126
-0.151423
-0.151766
-0.152145
-0.152579
-0.153061
-0.153606
-0.154211
-0.15489
-0.155645
-0.156488
-0.157424
-0.15846
-0.159603
-0.160862
-0.162242
-0.16379
-0.165499
-0.167401
-0.169502
-0.171815
-0.174356
-0.177135
-0.180162
-0.183452
-0.187007
-0.190814
-0.194936
-0.19945
-0.204366
-0.209878
-0.216105
-0.223349
-0.231754
-0.241954
-0.254337
-0.269863
-0.289482
-0.313953
-0.34351
-0.378047
-0.417139
-0.460479
-0.513429
-0.580956
-0.695923
-0.160476
-0.160574
-0.160634
-0.160748
-0.16086
-0.160979
-0.161116
-0.161257
-0.161417
-0.161585
-0.161777
-0.161982
-0.162218
-0.162472
-0.162764
-0.163083
-0.163447
-0.163845
-0.164297
-0.164794
-0.165355
-0.165975
-0.16667
-0.167441
-0.168302
-0.169259
-0.170319
-0.17149
-0.17278
-0.174214
-0.17579
-0.177564
-0.179534
-0.181723
-0.184147
-0.186827
-0.18978
-0.19302
-0.196572
-0.200446
-0.204639
-0.209225
-0.214297
-0.219885
-0.226202
-0.233377
-0.241723
-0.251356
-0.262896
-0.276676
-0.293592
-0.314525
-0.340163
-0.370685
-0.405937
-0.445431
-0.488717
-0.540753
-0.605074
-0.72707
-0.172196
-0.172303
-0.172373
-0.172499
-0.172626
-0.17276
-0.172914
-0.173068
-0.173242
-0.17342
-0.173621
-0.173833
-0.174073
-0.174331
-0.174627
-0.174951
-0.175321
-0.175727
-0.176189
-0.176698
-0.177272
-0.177907
-0.178619
-0.179408
-0.18029
-0.181271
-0.182359
-0.183563
-0.184893
-0.186357
-0.188002
-0.189829
-0.191876
-0.19416
-0.1967
-0.199524
-0.202654
-0.206111
-0.209928
-0.214125
-0.218707
-0.223758
-0.229389
-0.235646
-0.242762
-0.250877
-0.260313
-0.271155
-0.28402
-0.299182
-0.31748
-0.339732
-0.366554
-0.398068
-0.434068
-0.473989
-0.517204
-0.568076
-0.628204
-0.757987
-0.183957
-0.184079
-0.184167
-0.184309
-0.18445
-0.184597
-0.184764
-0.184932
-0.18512
-0.185314
-0.185532
-0.185762
-0.186023
-0.186301
-0.186617
-0.186959
-0.187347
-0.187769
-0.188246
-0.18877
-0.189359
-0.19001
-0.190739
-0.191548
-0.192453
-0.19346
-0.194578
-0.195817
-0.197185
-0.198708
-0.200391
-0.202292
-0.204419
-0.206805
-0.209471
-0.212451
-0.215772
-0.21946
-0.223558
-0.228094
-0.233081
-0.238614
-0.244818
-0.251757
-0.259683
-0.268746
-0.279276
-0.291332
-0.305526
-0.322076
-0.341768
-0.365357
-0.393395
-0.425947
-0.462746
-0.503141
-0.546303
-0.595835
-0.650684
-0.789202
-0.196122
-0.196247
-0.196339
-0.196487
-0.196635
-0.19679
-0.196965
-0.19714
-0.197335
-0.197532
-0.197753
-0.197983
-0.198242
-0.198519
-0.198833
-0.199177
-0.199567
-0.199994
-0.200479
-0.201014
-0.201616
-0.202282
-0.20303
-0.20386
-0.204788
-0.205822
-0.206972
-0.208247
-0.209661
-0.211221
-0.212981
-0.214946
-0.217162
-0.219655
-0.222451
-0.225591
-0.229105
-0.233027
-0.237409
-0.242287
-0.247682
-0.253697
-0.260476
-0.268095
-0.276828
-0.286833
-0.298447
-0.311707
-0.327217
-0.345147
-0.366228
-0.391162
-0.420434
-0.45405
-0.491685
-0.532589
-0.575714
-0.623808
-0.672882
-0.820778
-0.208269
-0.208407
-0.208514
-0.208675
-0.208835
-0.209001
-0.209186
-0.209371
-0.209577
-0.209788
-0.210023
-0.210268
-0.210545
-0.210838
-0.211171
-0.21153
-0.211936
-0.212377
-0.212876
-0.213424
-0.214041
-0.214723
-0.215488
-0.216339
-0.21729
-0.218352
-0.219534
-0.220848
-0.222305
-0.223934
-0.22574
-0.227789
-0.230097
-0.232702
-0.235638
-0.238947
-0.242667
-0.246839
-0.251521
-0.256756
-0.262576
-0.26909
-0.276459
-0.284774
-0.294326
-0.305283
-0.317992
-0.332462
-0.349299
-0.36862
-0.391105
-0.417406
-0.447945
-0.482673
-0.521198
-0.562668
-0.605812
-0.65254
-0.696288
-0.853565
-0.220767
-0.220908
-0.221021
-0.221188
-0.221356
-0.221531
-0.221726
-0.22192
-0.222133
-0.222347
-0.222585
-0.22283
-0.223105
-0.223395
-0.223725
-0.224084
-0.224491
-0.224937
-0.225442
-0.226001
-0.226629
-0.227326
-0.228109
-0.22898
-0.229956
-0.231048
-0.232264
-0.23362
-0.235129
-0.2368
-0.238692
-0.240813
-0.243218
-0.245941
-0.24902
-0.252503
-0.256432
-0.260855
-0.265838
-0.271433
-0.27768
-0.284695
-0.292655
-0.301665
-0.312035
-0.323941
-0.337739
-0.353412
-0.371567
-0.392271
-0.41616
-0.443836
-0.475662
-0.511531
-0.550987
-0.593068
-0.636284
-0.681784
-0.72126
-0.887505
-0.233271
-0.233423
-0.233548
-0.233727
-0.233905
-0.234088
-0.234291
-0.234493
-0.234715
-0.23494
-0.235189
-0.235448
-0.235738
-0.236044
-0.23639
-0.236763
-0.237185
-0.237643
-0.238161
-0.238732
-0.239375
-0.240087
-0.240888
-0.241781
-0.242782
-0.243904
-0.245157
-0.246555
-0.248111
-0.249856
-0.251798
-0.254011
-0.256517
-0.259365
-0.262596
-0.266262
-0.270413
-0.275101
-0.280402
-0.286374
-0.293064
-0.300598
-0.309166
-0.318888
-0.330091
-0.342959
-0.357859
-0.374746
-0.394233
-0.416336
-0.441648
-0.470724
-0.503874
-0.540932
-0.581378
-0.624139
-0.66752
-0.712035
-0.748076
-0.923064
-0.246151
-0.246302
-0.246428
-0.246608
-0.246789
-0.246975
-0.247182
-0.247387
-0.24761
-0.247833
-0.248081
-0.248335
-0.248619
-0.24892
-0.24926
-0.24963
-0.250052
-0.250513
-0.251037
-0.251618
-0.252272
-0.253
-0.253819
-0.254734
-0.255761
-0.256914
-0.258204
-0.259646
-0.261258
-0.26305
-0.265085
-0.267378
-0.269992
-0.272969
-0.276354
-0.280207
-0.284581
-0.289536
-0.295156
-0.301507
-0.308644
-0.316698
-0.325876
-0.336311
-0.348347
-0.362177
-0.378175
-0.396273
-0.417088
-0.440588
-0.467325
-0.497812
-0.532305
-0.570582
-0.612063
-0.655561
-0.699193
-0.74296
-0.776392
-0.959946
-0.258976
-0.259136
-0.259273
-0.259462
-0.25965
-0.259843
-0.260056
-0.260267
-0.260498
-0.260731
-0.260989
-0.261256
-0.261554
-0.261868
-0.262224
-0.262608
-0.263043
-0.263516
-0.264054
-0.264646
-0.265315
-0.266058
-0.266896
-0.267832
-0.268886
-0.27007
-0.271398
-0.272886
-0.27455
-0.276423
-0.278516
-0.280909
-0.283633
-0.286743
-0.290291
-0.29434
-0.298951
-0.304188
-0.310143
-0.31689
-0.324491
-0.333084
-0.342891
-0.354056
-0.366944
-0.381751
-0.398863
-0.41819
-0.440349
-0.465264
-0.493449
-0.525374
-0.561248
-0.600796
-0.643374
-0.687689
-0.731693
-0.775018
-0.806509
-0.998587
-0.272129
-0.272288
-0.272426
-0.272617
-0.272811
-0.273009
-0.273228
-0.273444
-0.273678
-0.273911
-0.274169
-0.274432
-0.274725
-0.275034
-0.275384
-0.275765
-0.276199
-0.276675
-0.277218
-0.277819
-0.2785
-0.279258
-0.280114
-0.281073
-0.282154
-0.283371
-0.284739
-0.286276
-0.288
-0.289925
-0.292117
-0.294597
-0.297435
-0.300683
-0.304396
-0.308644
-0.313492
-0.319013
-0.325305
-0.332451
-0.340518
-0.349653
-0.360091
-0.371989
-0.38573
-0.401516
-0.419744
-0.440295
-0.463797
-0.490128
-0.519764
-0.55314
-0.590416
-0.631266
-0.674989
-0.720189
-0.764676
-0.807822
-0.838063
-1.03864
-0.285264
-0.285429
-0.285576
-0.285775
-0.285974
-0.286177
-0.286401
-0.286622
-0.286862
-0.287104
-0.28737
-0.287645
-0.287951
-0.288273
-0.288638
-0.289032
-0.289479
-0.289966
-0.29052
-0.291133
-0.291826
-0.2926
-0.293474
-0.294456
-0.295564
-0.296815
-0.298223
-0.299808
-0.301586
-0.303594
-0.305847
-0.308432
-0.311387
-0.314778
-0.318665
-0.323123
-0.328222
-0.334041
-0.340687
-0.348248
-0.356801
-0.366497
-0.377585
-0.390237
-0.404851
-0.421635
-0.440997
-0.462792
-0.487658
-0.515428
-0.54654
-0.581397
-0.620114
-0.662318
-0.707254
-0.753429
-0.798539
-0.841826
-0.871375
-1.08052
-0.298765
-0.298926
-0.29907
-0.299267
-0.299466
-0.299669
-0.299895
-0.300115
-0.300356
-0.300594
-0.300856
-0.301124
-0.301422
-0.301736
-0.302093
-0.302482
-0.302925
-0.303413
-0.303971
-0.304591
-0.305295
-0.306082
-0.306974
-0.307976
-0.309112
-0.310394
-0.311842
-0.313475
-0.315313
-0.317375
-0.319732
-0.322408
-0.325486
-0.329023
-0.333086
-0.337756
-0.343107
-0.349226
-0.356228
-0.364208
-0.373249
-0.383511
-0.395253
-0.408661
-0.424154
-0.441938
-0.462436
-0.485479
-0.511709
-0.54092
-0.573515
-0.609867
-0.650046
-0.693638
-0.739836
-0.787062
-0.832922
-0.876609
-0.906067
-1.12384
-0.312226
-0.312391
-0.312542
-0.312746
-0.312949
-0.313157
-0.313386
-0.313611
-0.313856
-0.314101
-0.314371
-0.314648
-0.314956
-0.315282
-0.315649
-0.316048
-0.3165
-0.316996
-0.317561
-0.318189
-0.318902
-0.319701
-0.320608
-0.32163
-0.322789
-0.324102
-0.325588
-0.327268
-0.329162
-0.33131
-0.333731
-0.336519
-0.33972
-0.343409
-0.347656
-0.352548
-0.358165
-0.3646
-0.371975
-0.380392
-0.389942
-0.400788
-0.413205
-0.427392
-0.443785
-0.462593
-0.484249
-0.508561
-0.53618
-0.566857
-0.600963
-0.638841
-0.680523
-0.725555
-0.773087
-0.821461
-0.868227
-0.912623
-0.942479
-1.16904
-0.326043
-0.326207
-0.326358
-0.326563
-0.326769
-0.326979
-0.327211
-0.327437
-0.327681
-0.327921
-0.328183
-0.32845
-0.328747
-0.329059
-0.329414
-0.329802
-0.330246
-0.330736
-0.3313
-0.331929
-0.332647
-0.333453
-0.334372
-0.335411
-0.336592
-0.337934
-0.339458
-0.341185
-0.343141
-0.345344
-0.347871
-0.350755
-0.354084
-0.357928
-0.362362
-0.367478
-0.373363
-0.380116
-0.387866
-0.396724
-0.406786
-0.418221
-0.431317
-0.446288
-0.46359
-0.483425
-0.506245
-0.531828
-0.560839
-0.592986
-0.628611
-0.668029
-0.711236
-0.757741
-0.806658
-0.856265
-0.904074
-0.949422
-0.980224
-1.21568
-0.339968
-0.340135
-0.340289
-0.340493
-0.340695
-0.340899
-0.341122
-0.341338
-0.341572
-0.341805
-0.342061
-0.342325
-0.342619
-0.342931
-0.343287
-0.343674
-0.344119
-0.344608
-0.345171
-0.345801
-0.346521
-0.347333
-0.34826
-0.349312
-0.350513
-0.351883
-0.353443
-0.355215
-0.357225
-0.359514
-0.362107
-0.365106
-0.368566
-0.372571
-0.377201
-0.382552
-0.388719
-0.395805
-0.403949
-0.413267
-0.423862
-0.435907
-0.449704
-0.465483
-0.48372
-0.504607
-0.528614
-0.555495
-0.585925
-0.61957
-0.656744
-0.697735
-0.742508
-0.790538
-0.840914
-0.891857
-0.940874
-0.987467
-1.01965
-1.26421
-0.354447
-0.354583
-0.354702
-0.354869
-0.355037
-0.355206
-0.355397
-0.35558
-0.355786
-0.355988
-0.356218
-0.356453
-0.356723
-0.357011
-0.357345
-0.357714
-0.358143
-0.35862
-0.359174
-0.359798
-0.360516
-0.361329
-0.362263
-0.363326
-0.364544
-0.365939
-0.367531
-0.369349
-0.371418
-0.373763
-0.376467
-0.379566
-0.383162
-0.387331
-0.392158
-0.397748
-0.404198
-0.41162
-0.420162
-0.429944
-0.441077
-0.453739
-0.468239
-0.484837
-0.504016
-0.525964
-0.55116
-0.57935
-0.611201
-0.64635
-0.685082
-0.727662
-0.774022
-0.82361
-0.875496
-0.927864
-0.978237
-1.0263
-1.06037
-1.31418
-0.368218
-0.368378
-0.36853
-0.368735
-0.368939
-0.369145
-0.369368
-0.369583
-0.369813
-0.37004
-0.370289
-0.370543
-0.370828
-0.371126
-0.371468
-0.371839
-0.372268
-0.372741
-0.37329
-0.373908
-0.374622
-0.375434
-0.37637
-0.377441
-0.378674
-0.38009
-0.381715
-0.383576
-0.385699
-0.388133
-0.390905
-0.394127
-0.397859
-0.402197
-0.407231
-0.41307
-0.419819
-0.427595
-0.436552
-0.44682
-0.458513
-0.471813
-0.487044
-0.504485
-0.524635
-0.547666
-0.574083
-0.603607
-0.63691
-0.673593
-0.713915
-0.758119
-0.806106
-0.857303
-0.910772
-0.964672
-1.01657
-1.06638
-1.10276
-1.36603
-0.383401
-0.383505
-0.383593
-0.383725
-0.383856
-0.383987
-0.384138
-0.384282
-0.384447
-0.384612
-0.384805
-0.385006
-0.385243
-0.385499
-0.385803
-0.386142
-0.386543
-0.386994
-0.387524
-0.388129
-0.388833
-0.389638
-0.390574
-0.39165
-0.392895
-0.394333
-0.395989
-0.397894
-0.400077
-0.402568
-0.405452
-0.408777
-0.412651
-0.417162
-0.422405
-0.428497
-0.435546
-0.443679
-0.453056
-0.463815
-0.476074
-0.490021
-0.505989
-0.524286
-0.54541
-0.569542
-0.597175
-0.628051
-0.662808
-0.70103
-0.742953
-0.788795
-0.838431
-0.891267
-0.946368
-1.00189
-1.05548
-1.10724
-1.1464
-1.41929
-0.397547
-0.397679
-0.397802
-0.397972
-0.398137
-0.398301
-0.398478
-0.398645
-0.398825
-0.399001
-0.399201
-0.399405
-0.399641
-0.399892
-0.400189
-0.400517
-0.400905
-0.401341
-0.401856
-0.402447
-0.403138
-0.403936
-0.404868
-0.405947
-0.407202
-0.408659
-0.410345
-0.412291
-0.414526
-0.417103
-0.420057
-0.423507
-0.427524
-0.432214
-0.437677
-0.444034
-0.451399
-0.459907
-0.469724
-0.480996
-0.493843
-0.508465
-0.525195
-0.544381
-0.566502
-0.591766
-0.620639
-0.65291
-0.689146
-0.728939
-0.772496
-0.820012
-0.871334
-0.92586
-0.982664
-1.03992
-1.09538
-1.14935
-1.19169
-1.47439
-0.412921
-0.413002
-0.413066
-0.413172
-0.413272
-0.413368
-0.413481
-0.413583
-0.413704
-0.41382
-0.413963
-0.414113
-0.414297
-0.4145
-0.414751
-0.41504
-0.415392
-0.415797
-0.416287
-0.416856
-0.417531
-0.418317
-0.419243
-0.420321
-0.421585
-0.423058
-0.42477
-0.426756
-0.429048
-0.43168
-0.434749
-0.438306
-0.442473
-0.447345
-0.45303
-0.459655
-0.467341
-0.476227
-0.486489
-0.498279
-0.511725
-0.527029
-0.544537
-0.564619
-0.587745
-0.614153
-0.644268
-0.677952
-0.715674
-0.757045
-0.802248
-0.851453
-0.904481
-0.960723
-1.01928
-1.07837
-1.13586
-1.19224
-1.23822
-1.53088
-0.427247
-0.427356
-0.427455
-0.4276
-0.427736
-0.427867
-0.428009
-0.428136
-0.428274
-0.428404
-0.428555
-0.428708
-0.428891
-0.429086
-0.429327
-0.429601
-0.429936
-0.430321
-0.43079
-0.431339
-0.431997
-0.432769
-0.433686
-0.434762
-0.436029
-0.437516
-0.439254
-0.441276
-0.443618
-0.44634
-0.449479
-0.453167
-0.457484
-0.462545
-0.468462
-0.475368
-0.483391
-0.492674
-0.503404
-0.515735
-0.529805
-0.545817
-0.564132
-0.58514
-0.609299
-0.636883
-0.668274
-0.703402
-0.742647
-0.785631
-0.832516
-0.883444
-0.938215
-0.996217
-1.05658
-1.11761
-1.17733
-1.2364
-1.28641
-1.58917
-0.442814
-0.44287
-0.442908
-0.442985
-0.443052
-0.443112
-0.443187
-0.443246
-0.443321
-0.443389
-0.443481
-0.443576
-0.443704
-0.44385
-0.444044
-0.444275
-0.444572
-0.444924
-0.445363
-0.445888
-0.446524
-0.447279
-0.448185
-0.449255
-0.450525
-0.452024
-0.453784
-0.455844
-0.458243
-0.461019
-0.464276
-0.468076
-0.472548
-0.477803
-0.483956
-0.491148
-0.49951
-0.509196
-0.520397