/*--------------------------------*- C++ -*----------------------------------*\
  =========                 |
  \\      /  F ield         | OpenFOAM: The Open Source CFD Toolbox
   \\    /   O peration     | Website:  https://openfoam.org
    \\  /    A nd           | Version:  6.0
     \\/     M anipulation  |
\*---------------------------------------------------------------------------*/
FoamFile
{
    version     2.0;
    format      ascii;
    class       surfaceScalarField;
    location    "5";
    object      phi;
}
// * * * * * * * * * * * * * * * * * * * * * * * * * * * * * * * * * * * * * //

dimensions      [0 3 -1 0 0 0 0];

internalField   nonuniform List<scalar> 
123526
(
-0.00015936
2.6267e-05
0.000159851
-0.000158741
2.84289e-05
-0.000158095
3.07638e-05
-0.000157355
3.32963e-05
-0.000156583
3.60419e-05
-0.000155708
3.90191e-05
-0.000154797
4.22481e-05
-0.00015378
4.57506e-05
-0.00015272
4.95495e-05
-0.000151546
5.36705e-05
-0.000150322
5.81425e-05
-0.000148978
6.29955e-05
-0.000147572
6.82627e-05
-0.000146036
7.39777e-05
-0.000144417
8.01815e-05
-0.000142658
8.69215e-05
-0.000140799
9.42418e-05
-0.000138779
0.000102187
-0.000136627
0.000110821
-0.000134301
0.00012021
-0.000131812
0.000130406
-0.000129115
0.000141492
-0.000126231
0.000153555
-0.000123102
0.000166654
-0.000119747
0.000180917
-0.00011612
0.000196423
-0.000112218
0.000213284
-0.000108007
0.00023163
-0.000103468
0.00025156
-9.85685e-05
0.000273243
-9.32915e-05
0.00029678
-8.76207e-05
0.000322357
-8.15198e-05
0.0003501
-7.49579e-05
0.000380181
-6.79063e-05
0.000412767
-6.03135e-05
0.000448
-5.216e-05
0.000486087
-4.33988e-05
0.000527173
-3.39763e-05
0.000571435
-2.38562e-05
0.000619067
-1.29781e-05
0.000670228
-1.26503e-06
0.000725063
1.13508e-05
0.000783694
2.49537e-05
0.000846095
3.96591e-05
0.00091196
5.56477e-05
0.000980579
7.31161e-05
0.00105058
9.23276e-05
0.00111968
0.000113397
0.00118451
0.000136361
0.0012406
0.000160968
0.00128281
0.000186599
0.00130589
0.000212555
0.0013049
0.000238046
0.00127503
0.00026246
0.00121074
0.000285004
0.00110555
0.000304869
0.000951899
0.000319026
0.000751391
0.000301386
0.000438248
-0.000445238
0.000231265
-0.000161513
2.57953e-05
0.000161944
-0.000160992
2.79017e-05
-0.000160437
3.01774e-05
-0.000159793
3.26441e-05
-0.000159102
3.53179e-05
-0.000158305
3.82173e-05
-0.00015745
4.13625e-05
-0.000156477
4.47757e-05
-0.000155436
4.8479e-05
-0.000154263
5.24984e-05
-0.000153013
5.68639e-05
-0.000151622
6.1605e-05
-0.000150143
6.67551e-05
-0.000148515
7.23454e-05
-0.000146781
7.84179e-05
-0.000144893
8.50238e-05
-0.000142886
9.22039e-05
-0.000140707
9.99939e-05
-0.000138384
0.000108469
-0.000135883
0.000117692
-0.00013321
0.000127704
-0.000130332
0.000138593
-0.00012726
0.000150455
-0.000123949
0.00016332
-0.000120407
0.000177348
-0.000116604
0.000192593
-0.000112521
0.000209171
-0.000108143
0.000227221
-0.000103434
0.000246822
-9.83858e-05
0.000268165
-9.29626e-05
0.000291331
-8.71652e-05
0.000316523
-8.09596e-05
0.000343852
-7.43212e-05
0.000373499
-6.72334e-05
0.000405636
-5.96543e-05
0.000440379
-5.15792e-05
0.000477972
-4.29723e-05
0.000518529
-3.37924e-05
0.000562222
-2.40071e-05
0.000609253
-1.35525e-05
0.00065975
-2.33787e-06
0.000713827
9.75484e-06
0.000771581
2.28927e-05
0.000832933
3.72752e-05
0.000897537
5.31531e-05
0.000964644
7.07608e-05
0.00103286
9.0338e-05
0.00109995
0.000111904
0.00116266
0.000135356
0.00121677
0.000160297
0.00125743
0.000186015
0.00127961
0.000211797
0.00127847
0.000236906
0.00124911
0.000260859
0.0011859
0.000283031
0.00108215
0.000302554
0.00093041
0.000314777
0.000736286
0.000323236
0.000430098
-0.000433079
0.000311121
-0.00016041
2.53668e-05
0.000160749
-0.000159966
2.74328e-05
-0.0001595
2.96651e-05
-0.000158957
3.20828e-05
-0.000158382
3.47017e-05
-0.000157714
3.75395e-05
-0.000157004
4.0616e-05
-0.000156186
4.39529e-05
-0.000155311
4.75711e-05
-0.00015431
5.1496e-05
-0.000153236
5.57585e-05
-0.00015202
6.03878e-05
-0.000150712
6.5417e-05
-0.000149246
7.08754e-05
-0.000147663
7.6806e-05
-0.000145911
8.32648e-05
-0.000144025
9.02895e-05
-0.000141949
9.79087e-05
-0.000139714
0.000106206
-0.000137282
0.000115248
-0.000134662
0.000125059
-0.000131822
0.000135738
-0.000128775
0.000147385
-0.000125478
0.000160005
-0.000121939
0.000173786
-0.000118132
0.000188762
-0.000114036
0.000205051
-0.00010964
0.000222799
-0.000104908
0.000242065
-9.98282e-05
0.000263069
-9.4374e-05
0.000285852
-8.85371e-05
0.000310659
-8.22879e-05
0.000337568
-7.56022e-05
0.000366777
-6.84634e-05
0.000398462
-6.08314e-05
0.000432714
-5.27024e-05
0.000469813
-4.4043e-05
0.000509844
-3.48133e-05
0.000552972
-2.49818e-05
0.000599406
-1.44846e-05
0.000649243
-3.23097e-06
0.000702567
8.91598e-06
0.000759431
2.21558e-05
0.000819692
3.67053e-05
0.000882982
5.281e-05
0.000948535
7.06788e-05
0.00101496
9.04971e-05
0.00108009
0.000112209
0.00114083
0.000135641
0.00119318
0.000160357
0.00123256
0.000185653
0.00125411
0.000210871
0.00125307
0.000235332
0.00122441
0.00025864
0.00116242
0.000280227
0.00106041
0.000299174
0.000911447
0.000311614
0.000723779
0.000317507
0.000423799
-0.000418208
0.000302338
-0.000158059
2.49717e-05
0.000158434
-0.000157631
2.70046e-05
-0.000157188
2.92007e-05
-0.000156687
3.15778e-05
-0.000156161
3.41515e-05
-0.000155562
3.69387e-05
-0.000154928
3.99588e-05
-0.000154208
4.32327e-05
-0.000153439
4.67799e-05
-0.000152566
5.06248e-05
-0.000151628
5.47987e-05
-0.000150567
5.93292e-05
-0.000149423
6.42493e-05
-0.000148133
6.95851e-05
-0.000146734
7.53809e-05
-0.00014517
8.16964e-05
-0.000143472
8.85664e-05
-0.000141584
9.60128e-05
-0.000139531
0.000104128
-0.000137274
0.00011298
-0.000134819
0.000122582
-0.000132134
0.00013304
-0.00012923
0.000144462
-0.000126065
0.000156824
-0.000122645
0.000170349
-0.000118946
0.000185044
-0.000114947
0.000201032
-0.000110638
0.000218469
-0.000105981
0.00023739
-0.000100972
0.000258041
-9.5571e-05
0.000280439
-8.97797e-05
0.000304845
-8.35628e-05
0.000331322
-7.68958e-05
0.00036008
-6.97603e-05
0.000391295
-6.21145e-05
0.000425038
-5.39525e-05
0.000461621
-4.52386e-05
0.000501101
-3.5932e-05
0.000543637
-2.59994e-05
0.000589446
-1.53778e-05
0.000638596
-3.97855e-06
0.000691143
8.33771e-06
0.00074709
2.17753e-05
0.000806226
3.6545e-05
0.000868175
5.28671e-05
0.000932166
7.09132e-05
0.000996831
9.08201e-05
0.00106008
0.00011248
0.00111896
0.000135691
0.00116969
0.000160009
0.00120792
0.000184771
0.00122894
0.00020937
0.00122801
0.000233181
0.00120002
0.000255856
0.00113911
0.000276844
0.00103854
0.000295102
0.000891694
0.000307188
0.000709358
0.000313083
0.000417811
-0.000407061
0.000301592
-0.000155571
2.45571e-05
0.000155908
-0.000155146
2.65584e-05
-0.000154705
2.87209e-05
-0.000154205
3.10617e-05
-0.000153683
3.35959e-05
-0.000153093
3.63399e-05
-0.000152478
3.93124e-05
-0.000151784
4.25338e-05
-0.000151054
4.60218e-05
-0.000150232
4.98001e-05
-0.00014936
5.38997e-05
-0.00014838
5.83472e-05
-0.000147332
6.31742e-05
-0.000146154
6.84039e-05
-0.000144881
7.40806e-05
-0.000143457
8.02677e-05
-0.000141912
8.69963e-05
-0.000140188
9.42808e-05
-0.000138305
0.000102223
-0.000136225
0.000110891
-0.000133949
0.000120286
-0.000131443
0.000130523
-0.000128715
0.000141717
-0.000125722
0.000153817
-0.000122468
0.000167079
-0.000118927
0.000181487
-0.000115078
0.000197166
-0.000110911
0.000214284
-0.000106389
0.00023285
-0.000101498
0.000253143
-9.6212e-05
0.000275137
-9.0519e-05
0.000299134
-8.43879e-05
0.000325166
-7.77914e-05
0.000353456
-7.07084e-05
0.000384186
-6.30945e-05
0.000417399
-5.49408e-05
0.000453446
-4.62086e-05
0.00049235
-3.6855e-05
0.000534268
-2.6845e-05
0.000579425
-1.61161e-05
0.000627859
-4.58173e-06
0.000679604
7.89228e-06
0.000734616
2.15017e-05
0.000792618
3.64431e-05
0.000853235
5.29076e-05
0.000915708
7.10312e-05
0.000978698
9.09106e-05
0.0010402
0.000112404
0.0010974
0.000135296
0.00114671
0.000159153
0.00118399
0.000183357
0.00120464
0.000207347
0.00120395
0.000230543
0.00117672
0.000252623
0.00111701
0.000273036
0.00101816
0.000290648
0.000874284
0.000302563
0.000697587
0.000308074
0.000412057
-0.000397949
0.000298785
-0.000152904
2.41677e-05
0.000153283
-0.00015248
2.61377e-05
-0.000152041
2.82665e-05
-0.000151551
3.05706e-05
-0.000151039
3.30652e-05
-0.000150465
3.57663e-05
-0.000149863
3.86923e-05
-0.000149191
4.18632e-05
-0.000148482
4.52956e-05
-0.000147691
4.90121e-05
-0.000146852
5.3044e-05
-0.000145918
5.74162e-05
-0.000144923
6.21597e-05
-0.000143812
6.72938e-05
-0.000142616
7.28634e-05
-0.000141286
7.89345e-05
-0.000139846
8.55345e-05
-0.000138241
9.26701e-05
-0.00013649
0.000100451
-0.000134554
0.000108946
-0.000132431
0.000118145
-0.000130086
0.000128168
-0.000127525
0.00013914
-0.000124702
0.000150983
-0.00012162
0.000163982
-0.000118249
0.000178103
-0.000114569
0.000193471
-0.000110567
0.000210265
-0.000106201
0.000228473
-0.000101467
0.000248395
-9.63206e-05
0.000269985
-9.07624e-05
0.000293559
-8.47528e-05
0.000319135
-7.82637e-05
0.000346944
-7.12711e-05
0.00037717
-6.37278e-05
0.000409832
-5.5621e-05
0.000445314
-4.6909e-05
0.000483613
-3.75457e-05
0.000524879
-2.74946e-05
0.000569347
-1.66932e-05
0.000617031
-5.05704e-06
0.00066794
7.53859e-06
0.000721991
2.12729e-05
0.000778851
3.63237e-05
0.000838144
5.28535e-05
0.000899132
7.09662e-05
0.000960509
9.07264e-05
0.00102035
0.000111971
0.00107598
0.000134483
0.00112397
0.000157846
0.00116036
0.000181489
0.00118067
0.000204891
0.00118017
0.000227512
0.00115363
0.00024904
0.00109498
0.00026892
0.000997572
0.00028597
0.000855953
0.00029776
0.000683725
0.000302853
0.000406793
-0.000390793
0.000295239
-0.000150338
2.37607e-05
0.000150674
-0.000149918
2.56992e-05
-0.000149481
2.77948e-05
-0.000148988
3.00634e-05
-0.000148472
3.25198e-05
-0.000147894
3.51802e-05
-0.000147291
3.80623e-05
-0.000146619
4.1186e-05
-0.000145915
4.45665e-05
-0.000145131
4.8226e-05
-0.000144307
5.21956e-05
-0.000143392
5.64994e-05
-0.000142423
6.11671e-05
-0.000141348
6.62152e-05
-0.000140195
7.16883e-05
-0.000138921
7.76552e-05
-0.000137547
8.41392e-05
-0.000136022
9.11392e-05
-0.000134363
9.87719e-05
-0.000132532
0.000107108
-0.000130527
0.000116123
-0.000128312
0.000125944
-0.000125891
0.000136704
-0.000123217
0.000148298
-0.00012029
0.000161043
-0.000117081
0.00017488
-0.000113564
0.000189942
-0.000109726
0.000206413
-0.000105527
0.00022426
-0.00010095
0.000243816
-9.5965e-05
0.000264988
-9.05565e-05
0.000288138
-8.46896e-05
0.000313249
-7.83322e-05
0.000340565
-7.14575e-05
0.000370274
-6.40151e-05
0.00040237
-5.59885e-05
0.00043727
-4.73324e-05
0.000474942
-3.79982e-05
0.000515532
-2.79469e-05
0.000559287
-1.71163e-05
0.000606195
-5.42344e-06
0.000656243
7.24452e-06
0.000709323
2.10461e-05
0.000765051
3.61389e-05
0.000823055
5.26591e-05
0.000882622
7.06835e-05
0.000942485
9.02517e-05
0.0010008
0.000111188
0.001055
0.000133282
0.00110183
0.000156139
0.00113747
0.000179232
0.00115753
0.000202076
0.00115731
0.000224162
0.00113152
0.000245179
0.00107402
0.000264565
0.000978319
0.000281151
0.000839663
0.000292873
0.000672244
0.000297546
0.000402069
-0.000384497
0.000291219
-0.000147665
2.33804e-05
0.000148042
-0.000147248
2.52879e-05
-0.000146815
2.73498e-05
-0.000146333
2.95821e-05
-0.000145827
3.19995e-05
-0.000145263
3.46178e-05
-0.00014467
3.7455e-05
-0.000144012
4.05306e-05
-0.000143317
4.38588e-05
-0.000142548
4.74612e-05
-0.000141735
5.13695e-05
-0.000140838
5.56063e-05
-0.000139887
6.02008e-05
-0.000138836
6.51663e-05
-0.000137713
7.05475e-05
-0.000136475
7.64161e-05
-0.000135146
8.27914e-05
-0.000133676
8.96646e-05
-0.000132081
9.71593e-05
-0.000130326
0.000105347
-0.000128409
0.000114189
-0.000126293
0.000123821
-0.000123983
0.00013438
-0.000121431
0.000145737
-0.000118636
0.000158236
-0.000115567
0.0001718
-0.000112198
0.000186561
-0.000108513
0.000202715
-0.000104467
0.000220208
-0.000100054
0.00023939
-9.52234e-05
0.000260157
-8.99721e-05
0.000282875
-8.42563e-05
0.000307517
-7.80433e-05
0.000334333
-7.13033e-05
0.000363515
-6.39832e-05
0.00039503
-5.60628e-05
0.000429329
-4.74935e-05
0.00046635
-3.82237e-05
0.000506238
-2.82125e-05
0.00054925
-1.73973e-05
0.000595352
-5.69668e-06
0.000644512
6.9898e-06
0.000696603
2.07991e-05
0.000751204
3.58683e-05
0.000807941
5.23115e-05
0.000866129
7.01825e-05
0.000924539
8.95025e-05
0.000981402
0.00011009
0.00103425
0.000131746
0.00107998
0.000154097
0.00111488
0.000176659
0.00113468
0.000198975
0.00113467
0.000220563
0.00110953
0.000241108
0.00105304
0.000260044
0.000958766
0.000276238
0.000822302
0.000287896
0.000658668
0.00029222
0.000397567
-0.000379691
0.000286942
-0.000145131
2.29846e-05
0.000145465
-0.000144721
2.4861e-05
-0.00014429
2.68899e-05
-0.000143806
2.90869e-05
-0.000143299
3.14665e-05
-0.000142732
3.40444e-05
-0.000142139
3.68383e-05
-0.00014148
3.98676e-05
-0.000140788
4.31454e-05
-0.000140022
4.66929e-05
-0.000139215
5.05421e-05
-0.000138326
5.47149e-05
-0.000137385
5.92397e-05
-0.000136348
6.41269e-05
-0.000135242
6.94215e-05
-0.000134027
7.51979e-05
-0.000132726
8.14716e-05
-0.000131292
8.82258e-05
-0.00012974
9.55915e-05
-0.00012804
0.00010364
-0.000126185
0.00011232
-0.000124145
0.000121773
-0.000121919
0.000132142
-0.000119465
0.000143274
-0.000116777
0.000155539
-0.000113826
0.000168839
-0.000110585
0.000183309
-0.000107034
0.000199154
-0.000103135
0.000216297
-9.88629e-05
0.00023512
-9.41879e-05
0.000255473
-8.90873e-05
0.000277766
-8.35233e-05
0.000301938
-7.74595e-05
0.000328253
-7.08633e-05
0.000356902
-6.36792e-05
0.00038783
-5.58835e-05
0.000421519
-4.74249e-05
0.00045788
-3.82493e-05
0.000497054
-2.83135e-05
0.000539307
-1.75548e-05
0.00058459
-5.89316e-06
0.000632849
6.76013e-06
0.000683952
2.05211e-05
0.000737447
3.5508e-05
0.000792961
5.18161e-05
0.000849835
6.94812e-05
0.00090688
8.85105e-05
0.000962396
0.000108722
0.00101402
0.00012993
0.00105875
0.000151785
0.00109302
0.000173837
0.00111262
0.000195654
0.00111287
0.000216777
0.00108842
0.000236883
0.00103305
0.000255403
0.000940444
0.00027127
0.000806784
0.000282925
0.00064731
0.000286909
0.000393752
-0.000375184
0.000282518
-0.000142516
2.26157e-05
0.000142887
-0.000142108
2.44616e-05
-0.000141683
2.64574e-05
-0.000141212
2.86186e-05
-0.000140716
3.09596e-05
-0.000140165
3.34961e-05
-0.000139582
3.62456e-05
-0.000138938
3.92274e-05
-0.000138256
4.24538e-05
-0.000137504
4.59455e-05
-0.000136707
4.97351e-05
-0.00013583
5.38434e-05
-0.000134901
5.82985e-05
-0.000133879
6.31078e-05
-0.000132788
6.83167e-05
-0.000131594
7.40026e-05
-0.000130314
8.01773e-05
-0.000128909
8.68167e-05
-0.00012739
9.40585e-05
-0.00012573
0.000101975
-0.000123923
0.0001105
-0.000121939
0.000119784
-0.00011978
0.000129972
-0.000117402
0.000140888
-0.000114802
0.000152929
-0.000111948
0.000165976
-0.000108814
0.000180167
-0.000105381
0.000195712
-0.000101604
0.000212515
-9.74723e-05
0.000230979
-9.29323e-05
0.000250935
-8.79773e-05
0.000272803
-8.25599e-05
0.000296509
-7.66437e-05
0.000322323
-7.0194e-05
0.000350437
-6.31531e-05
0.000380773
-5.54945e-05
0.000413842
-4.71642e-05
0.00044953
-3.81062e-05
0.000487973
-2.82753e-05
0.000529451
-1.76085e-05
0.000573895
-6.02715e-06
0.000621235
6.54688e-06
0.000671342
2.02105e-05
0.000723742
3.50656e-05
0.000778058
5.11912e-05
0.000833657
6.861e-05
0.000889388
8.73182e-05
0.000943609
0.000107138
0.000994048
0.000127897
0.00103781
0.000149265
0.00107144
0.000170828
0.0010908
0.000192173
0.00109123
0.000212859
0.00106738
0.000232556
0.00101297
0.000250693
0.000921768
0.000266268
0.000790134
0.000277953
0.000633839
0.000281634
0.000389923
-0.00037203
0.000278042
-0.000140052
2.22316e-05
0.000140379
-0.000139652
2.4047e-05
-0.000139232
2.60104e-05
-0.00013876
2.81368e-05
-0.000138264
3.04405e-05
-0.000137711
3.29372e-05
-0.000137129
3.56439e-05
-0.000136486
3.85801e-05
-0.000135808
4.17568e-05
-0.000135058
4.51946e-05
-0.000134268
4.89264e-05
-0.000133398
5.29723e-05
-0.000132477
5.73599e-05
-0.000131466
6.20939e-05
-0.000130386
6.72204e-05
-0.000129205
7.28193e-05
-0.000127942
7.8899e-05
-0.000126557
8.54281e-05
-0.000125063
9.25511e-05
-0.000123433
0.00010034
-0.000121663
0.000108718
-0.000119723
0.000117839
-0.000117616
0.000127856
-0.000115299
0.000138565
-0.000112769
0.000150392
-0.000109996
0.000163196
-0.000106953
0.000177116
-0.00010362
0.000192371
-9.99563e-05
0.000208843
-9.59369e-05
0.000226964
-9.15289e-05
0.00024652
-8.6706e-05
0.000267975
-8.14279e-05
0.00029122
-7.56549e-05
0.000316537
-6.93505e-05
0.00034412
-6.24556e-05
0.000373866
-5.4941e-05
0.000406317
-4.67512e-05
0.000441331
-3.7828e-05
0.000479043
-2.81251e-05
0.000519745
-1.75789e-05
0.000563347
-6.11246e-06
0.00060977
6.34333e-06
0.000658891
1.98687e-05
0.000710224
3.45515e-05
0.000763386
5.04573e-05
0.000817768
6.75995e-05
0.000872258
8.59654e-05
0.000925269
0.000105383
0.00097461
0.000125697
0.0010175
0.000146593
0.00105055
0.000167688
0.00106973
0.000188585
0.00107039
0.000208857
0.00104717
0.000228165
0.000993818
0.000245943
0.000904238
0.00026126
0.000775202
0.000273056
0.00062239
0.0002764
0.000386906
-0.000368946
0.000273545
-0.000137513
2.18743e-05
0.000137877
-0.000137117
2.36599e-05
-0.000136703
2.5591e-05
-0.000136244
2.76823e-05
-0.00013576
2.99483e-05
-0.000135223
3.24042e-05
-0.000134654
3.50674e-05
-0.000134026
3.79569e-05
-0.00013336
4.10831e-05
-0.000132625
4.4466e-05
-0.000131846
4.81393e-05
-0.00013099
5.21221e-05
-0.00013008
5.64415e-05
-0.000129082
6.10998e-05
-0.000128017
6.61435e-05
-0.000126852
7.16555e-05
-0.000125606
7.76407e-05
-0.000124241
8.4061e-05
-0.00012277
9.10676e-05
-0.000121166
9.87331e-05
-0.000119426
0.000106968
-0.000117523
0.000115932
-0.000115459
0.000125783
-0.000113192
0.000136293
-0.00011072
0.000147914
-0.000108014
0.000160483
-0.000105048
0.000174143
-0.000101801
0.000189118
-9.82305e-05
0.000205271
-9.43233e-05
0.000223048
-9.00254e-05
0.000242227
-8.53269e-05
0.000263271
-8.01788e-05
0.000286063
-7.45422e-05
0.000310889
-6.83791e-05
0.000337945
-6.16294e-05
0.000367103
-5.42621e-05
0.000398935
-4.62202e-05
0.000433271
-3.74442e-05
0.000470247
-2.78865e-05
0.000510163
-1.74836e-05
0.000552917
-6.1599e-06
0.000598414
6.14594e-06
0.000646548
1.95005e-05
0.000696827
3.39793e-05
0.000748859
4.96372e-05
0.000802054
6.64815e-05
0.000855341
8.44914e-05
0.000907171
0.000103506
0.000955444
0.000123379
0.000997452
0.000143818
0.00102991
0.000164463
0.00104885
0.000184931
0.00104964
0.000204808
0.00102697
0.000223748
0.000974535
0.000241187
0.000886313
0.000256254
0.000759125
0.000268179
0.00060878
0.000271192
0.000383753
-0.00036723
0.00026908
-0.000135129
2.15029e-05
0.00013545
-0.00013474
2.32589e-05
-0.00013433
2.51582e-05
-0.000133871
2.72157e-05
-0.000133388
2.94453e-05
-0.00013285
3.18622e-05
-0.000132284
3.44835e-05
-0.000131657
3.73282e-05
-0.000130996
4.04056e-05
-0.000130266
4.37355e-05
-0.000129495
4.7352e-05
-0.000128647
5.12734e-05
-0.000127747
5.55267e-05
-0.00012676
6.01115e-05
-0.000125705
6.50748e-05
-0.000124554
7.05024e-05
-0.000123322
7.63961e-05
-0.000121974
8.27106e-05
-0.000120521
8.96041e-05
-0.00011894
9.71494e-05
-0.000117227
0.000105245
-0.000115355
0.000114056
-0.000113327
0.000123747
-0.000111103
0.000134065
-0.000108681
0.000145486
-0.000106032
0.000157829
-0.000103131
0.000171236
-9.99592e-05
0.00018594
-9.64766e-05
0.000201781
-9.26571e-05
0.000219235
-8.84682e-05
0.000238032
-8.38809e-05
0.00025868
-7.88544e-05
0.000281028
-7.33469e-05
0.000305371
-6.73202e-05
0.000331908
-6.07131e-05
0.000360486
-5.34935e-05
0.000391707
-4.56033e-05
0.000425375
-3.69825e-05
0.000461622
-2.75823e-05
0.000500762
-1.73394e-05
0.000542676
-6.17985e-06
0.00058726
5.95145e-06
0.000634426
1.91097e-05
0.00068368
3.33608e-05
0.000734624
4.87506e-05
0.000786685
6.52822e-05
0.000838827
8.29288e-05
0.000889545
0.00010154
0.000936821
0.000120982
0.000978019
0.000140978
0.00100994
0.000161189
0.00102868
0.000181245
0.00102966
0.000200743
0.00100756
0.000219328
0.000956138
0.000236443
0.000869485
0.000251277
0.000744698
0.000263392
0.000597027
0.000265987
0.000381652
-0.000365551
0.000264624
-0.000132675
2.11578e-05
0.000133032
-0.00013229
2.28849e-05
-0.000131886
2.47529e-05
-0.000131441
2.67762e-05
-0.00013097
2.8969e-05
-0.000130449
3.13462e-05
-0.000129895
3.39249e-05
-0.000129286
3.67239e-05
-0.000128637
3.97518e-05
-0.000127923
4.3028e-05
-0.000127163
4.65871e-05
-0.00012633
5.04466e-05
-0.000125442
5.46331e-05
-0.00012447
5.91438e-05
-0.00012343
6.40262e-05
-0.000122295
6.9369e-05
-0.00012108
7.5171e-05
-0.00011975
8.13803e-05
-0.000118317
8.81617e-05
-0.000116759
9.55888e-05
-0.00011507
0.000103548
-0.000113227
0.00011221
-0.000111231
0.000121745
-0.000109045
0.000131875
-0.000106666
0.000143103
-0.000104068
0.000155227
-0.000101226
0.000168389
-9.81204e-05
0.000182829
-9.47095e-05
0.000198369
-9.09815e-05
0.000215499
-8.68819e-05
0.000233937
-8.24002e-05
0.000254193
-7.74864e-05
0.000276105
-7.21006e-05
0.000299976
-6.62041e-05
0.000326001
-5.97357e-05
0.000354006
-5.26623e-05
0.00038462
-4.49254e-05
0.000417622
-3.64643e-05
0.000453142
-2.72299e-05
0.000491505
-1.71591e-05
0.000532578
-6.17961e-06
0.000576248
5.75862e-06
0.000622451
1.8702e-05
0.000670694
3.27081e-05
0.000720569
4.78159e-05
0.00077152
6.40262e-05
0.000822542
8.13069e-05
0.000872167
9.95197e-05
0.000918453
0.00011854
0.000958833
0.000138105
0.000990184
0.000157897
0.00100867
0.000177555
0.00100975
0.000196686
0.000988135
0.000214929
0.000937585
0.000231733
0.000852246
0.000246339
0.000729146
0.000258635
0.000583148
0.000260847
0.000379313
-0.000365243
0.000260195
-0.000130377
2.07985e-05
0.00013069
-0.00013
2.24968e-05
-0.000129602
2.43339e-05
-0.000129157
2.63243e-05
-0.000128687
2.84816e-05
-0.000128165
3.08209e-05
-0.000127614
3.33587e-05
-0.000127006
3.61141e-05
-0.000126363
3.90943e-05
-0.000125654
4.23188e-05
-0.000124903
4.58223e-05
-0.000124079
4.96219e-05
-0.000123202
5.37436e-05
-0.000122241
5.81825e-05
-0.000121213
6.29864e-05
-0.000120092
6.8247e-05
-0.00011889
7.39598e-05
-0.000117577
8.00664e-05
-0.000116162
8.67383e-05
-0.000114625
9.40495e-05
-0.000112959
0.000101875
-0.000111143
0.000110392
-0.000109177
0.000119773
-0.000107026
0.00012972
-0.000104687
0.00014076
-0.000102135
0.00015267
-9.93444e-05
0.000165594
-9.62984e-05
0.000179778
-9.29597e-05
0.000195023
-8.9302e-05
0.000211847
-8.52945e-05
0.000229922
-8.09072e-05
0.0002498
-7.60989e-05
0.000271288
-7.08285e-05
0.000294694
-6.50565e-05
0.000320219
-5.87225e-05
0.000347664
-5.17926e-05
0.000377684
-4.42085e-05
0.000410035
-3.59091e-05
0.000444841
-2.68454e-05
0.000482443
-1.69548e-05
0.000522692
-6.16633e-06
0.000565468
5.56568e-06
0.000610731
1.82809e-05
0.000657995
3.20304e-05
0.00070684
4.68475e-05
0.000756727
6.27321e-05
0.00080668
7.96475e-05
0.00085527
9.74675e-05
0.00090062
0.000116076
0.000940242
0.000135224
0.000971073
0.000154609
0.000989343
0.000173883
0.000990563
0.000192656
0.000969472
0.000210566
0.00091989
0.000227066
0.000836061
0.000241463
0.000715173
0.000253978
0.000571005
0.000255774
0.000378136
-0.000364876
0.000255789
-0.00012801
2.0465e-05
0.000128357
-0.000127636
2.21354e-05
-0.000127245
2.3942e-05
-0.000126814
2.58993e-05
-0.000126356
2.80209e-05
-0.000125851
3.03215e-05
-0.000125313
3.28179e-05
-0.000124722
3.55288e-05
-0.000124091
3.84609e-05
-0.000123399
4.1633e-05
-0.00012266
4.50804e-05
-0.000121851
4.88196e-05
-0.000120987
5.28761e-05
-0.000120043
5.72425e-05
-0.00011903
6.19674e-05
-0.000117926
6.71452e-05
-0.000116742
7.27686e-05
-0.000115448
7.87728e-05
-0.000114053
8.53358e-05
-0.000112537
9.25323e-05
-0.000110895
0.000100226
-0.000109105
0.000108599
-0.000107168
0.000117831
-0.00010505
0.000127599
-0.000102749
0.000138454
-0.000100239
0.000150155
-9.74967e-05
0.000162847
-9.45066e-05
0.000176782
-9.12268e-05
0.000191742
-8.76477e-05
0.000208257
-8.37153e-05
0.000225991
-7.9419e-05
0.000245496
-7.47096e-05
0.000266568
-6.95477e-05
0.000289523
-6.38948e-05
0.000314556
-5.76904e-05
0.00034145
-5.09009e-05
0.000370883
-4.34678e-05
0.000402587
-3.53306e-05
0.000436686
-2.64401e-05
0.000473531
-1.67345e-05
0.000512961
-6.14441e-06
0.000554848
5.37253e-06
0.000599178
1.78509e-05
0.000645475
3.13366e-05
0.000693306
4.58583e-05
0.000742146
6.14165e-05
0.000791047
7.79696e-05
0.000838608
9.54048e-05
0.000883025
0.000113611
0.000921871
0.000132354
0.000952144
0.000151344
0.000970142
0.000170243
0.00097142
0.000188668
0.000950767
0.000206252
0.000902016
0.000222456
0.000819452
0.000236644
0.000700084
0.000249335
0.000556808
0.000250817
0.000376514
-0.000365785
0.000251431
-0.000125795
2.01181e-05
0.000126101
-0.00012543
2.17607e-05
-0.000125043
2.35375e-05
-0.000124612
2.54627e-05
-0.000124156
2.755e-05
-0.000123651
2.98137e-05
-0.000123116
3.22705e-05
-0.000122527
3.49388e-05
-0.000121903
3.78246e-05
-0.000121216
4.09462e-05
-0.000120487
4.43395e-05
-0.000119688
4.80202e-05
-0.000118835
5.20134e-05
-0.000117903
5.63097e-05
-0.000116903
6.0958e-05
-0.000115813
6.60554e-05
-0.000114644
7.15917e-05
-0.000113368
7.74958e-05
-0.000111992
8.39523e-05
-0.000110497
9.10363e-05
-0.000108877
9.86002e-05
-0.000107113
0.000106833
-0.000105205
0.000115917
-0.000103119
0.00012551
-0.000100853
0.000136184
-9.83836e-05
0.000147681
-9.56873e-05
0.000160146
-9.27483e-05
0.000173837
-8.95316e-05
0.000188515
-8.60122e-05
0.00020474
-8.21603e-05
0.000222128
-7.79464e-05
0.000241275
-7.33306e-05
0.000261942
-6.82724e-05
0.000284454
-6.27336e-05
0.000309009
-5.66547e-05
0.000335365
-5.0002e-05
0.000364226
-4.27175e-05
0.000395301
-3.47412e-05
0.000428711
-2.60244e-05
0.000464819
-1.65061e-05
0.00050345
-6.11855e-06
0.000544472
5.17812e-06
0.000587897
1.74145e-05
0.000633258
3.06328e-05
0.000680113
4.48577e-05
0.000727948
6.00906e-05
0.000775843
7.62868e-05
0.000822428
9.33457e-05
0.000865962
0.000111161
0.000904083
0.000129509
0.000933845
0.000148115
0.000951608
0.000166649
0.00095299
0.000184732
0.000932813
0.000201995
0.00088499
0.000217907
0.000803878
0.000231897
0.000686523
0.000244789
0.000544257
0.00024594
0.000376126
-0.000366536
0.000247112
-0.000123515
1.97964e-05
0.000123854
-0.000123154
2.14119e-05
-0.000122774
2.31592e-05
-0.000122356
2.50524e-05
-0.000121912
2.7105e-05
-0.000121424
2.93313e-05
-0.000120902
3.17478e-05
-0.00012033
3.4373e-05
-0.000119719
3.72118e-05
-0.000119048
4.02824e-05
-0.000118331
4.36212e-05
-0.000117547
4.72429e-05
-0.000116709
5.11726e-05
-0.000115792
5.53983e-05
-0.000114808
5.99695e-05
-0.000113737
6.49862e-05
-0.000112586
7.04352e-05
-0.00011133
7.62395e-05
-0.000109974
8.259e-05
-0.000108502
8.95624e-05
-0.000106906
9.69984e-05
-0.000105168
0.000105092
-0.000103287
0.000114032
-0.000101232
0.000123452
-9.90017e-05
0.000133949
-9.65712e-05
0.000145246
-9.3919e-05
0.000157488
-9.10302e-05
0.000170941
-8.78656e-05
0.000185347
-8.44162e-05
0.000201278
-8.063e-05
0.000218343
-7.64974e-05
0.000237134
-7.19703e-05
0.000257406
-6.7011e-05
0.000279486
-6.15817e-05
0.000303572
-5.56241e-05
0.000329398
-4.91044e-05
0.000357696
-4.19657e-05
0.00038815
-3.41485e-05
0.000420878
-2.56047e-05
0.000456255
-1.62742e-05
0.000494095
-6.09098e-06
0.000534259
4.98281e-06
0.000576788
1.69751e-05
0.000621224
2.99249e-05
0.000667115
4.38541e-05
0.000713958
5.87651e-05
0.000760857
7.4611e-05
0.000806471
9.13024e-05
0.000849117
0.000108736
0.000886492
0.000126701
0.000915704
0.000144932
0.000933178
0.000163107
0.000934584
0.000180856
0.000914804
0.000197802
0.000867774
0.000213426
0.000787883
0.000227208
0.000671887
0.000240241
0.0005298
0.000241193
0.000375027
-0.00036844
0.000242852
-0.000121388
1.94607e-05
0.000121684
-0.000121035
2.10491e-05
-0.00012066
2.27674e-05
-0.000120243
2.46296e-05
-0.000119801
2.66488e-05
-0.000119311
2.88393e-05
-0.000118793
3.12174e-05
-0.000118223
3.38013e-05
-0.000117617
3.65952e-05
-0.000116952
3.9617e-05
-0.000116244
4.29032e-05
-0.00011547
4.64682e-05
-0.000114643
5.03364e-05
-0.000113739
5.44939e-05
-0.000112768
5.89907e-05
-0.000111712
6.39291e-05
-0.000110577
6.92934e-05
-0.000109339
7.50003e-05
-0.000108002
8.12471e-05
-0.000106551
8.811e-05
-0.000104978
9.54203e-05
-0.000103266
0.000103378
-0.000101414
0.000112175
-9.93903e-05
0.000121425
-9.71941e-05
0.000131748
-9.48017e-05
0.000142848
-9.21922e-05
0.000154873
-8.93504e-05
0.000168093
-8.62434e-05
0.000182232
-8.28469e-05
0.000197886
-7.91346e-05
0.000214621
-7.50762e-05
0.000233071
-7.06346e-05
0.000252956
-6.57706e-05
0.000274614
-6.04473e-05
0.000298242
-5.46071e-05
0.000323554
-4.8217e-05
0.000351304
-4.12208e-05
0.000381154
-3.35601e-05
0.000413221
-2.51873e-05
0.000447889
-1.60436e-05
0.000484961
-6.06466e-06
0.000524295
4.78594e-06
0.000565956
1.65342e-05
0.000609499
2.92165e-05
0.000654461
4.28527e-05
0.000700353
5.74463e-05
0.000746298
7.29495e-05
0.000790989
8.92826e-05
0.000832793
0.000106345
0.000869468
0.000123936
0.000898172
0.000141801
0.000915396
0.000159626
0.000916873
0.000177044
0.00089753
0.000193678
0.00085139
0.000209015
0.0007729
0.000222594
0.000658736
0.000235784
0.000516918
0.000236531
0.000375175
-0.000370101
0.000238645
-0.00011919
1.91489e-05
0.000119521
-0.000118839
2.07112e-05
-0.00011847
2.24011e-05
-0.000118066
2.42324e-05
-0.000117635
2.62183e-05
-0.000117162
2.83728e-05
-0.000116657
3.07122e-05
-0.000116103
3.32544e-05
-0.000115511
3.6003e-05
-0.000114863
3.89754e-05
-0.000114169
4.22088e-05
-0.000113411
4.57166e-05
-0.000112599
4.9523e-05
-0.000111712
5.36118e-05
-0.000110758
5.80336e-05
-0.00010972
6.28933e-05
-0.000108604
6.81726e-05
-0.000107386
7.37825e-05
-0.000106071
7.99261e-05
-0.000104642
8.66806e-05
-0.000103094
9.38667e-05
-0.000101408
0.000101689
-9.95835e-05
0.000110346
-9.75913e-05
0.00011943
-9.5429e-05
0.000129582
-9.30743e-05
0.00014049
-9.05066e-05
0.000152302
-8.77119e-05
0.000165294
-8.46526e-05
0.000179173
-8.13223e-05
0.000194546
-7.76698e-05
0.000210973
-7.36868e-05
0.000229082
-6.93272e-05
0.00024859
-6.45549e-05
0.000269836
-5.93338e-05
0.000293014
-5.36074e-05
0.000317821
-4.73434e-05
0.000345032
-4.04866e-05
0.000374286
-3.29793e-05
0.000405699
-2.47752e-05
0.000439666
-1.58165e-05
0.000475979
-6.04037e-06
0.00051449
4.58818e-06
0.000555292
1.6094e-05
0.000597952
2.85113e-05
0.000641995
4.18589e-05
0.000686944
5.61407e-05
0.000731942
7.13091e-05
0.000775711
8.7293e-05
0.000816664
0.000103993
0.000852613
0.000121219