/*--------------------------------*- C++ -*----------------------------------*\
  =========                 |
  \\      /  F ield         | OpenFOAM: The Open Source CFD Toolbox
   \\    /   O peration     | Website:  https://openfoam.org
    \\  /    A nd           | Version:  6.0
     \\/     M anipulation  |
\*---------------------------------------------------------------------------*/
FoamFile
{
    version     2.0;
    format      ascii;
    class       volVectorField;
    location    "5";
    object      U;
}
// * * * * * * * * * * * * * * * * * * * * * * * * * * * * * * * * * * * * * //

dimensions      [0 1 -1 0 0 0 0];

internalField   nonuniform List<vector> 
62000
(
(0.998828 0.0130407 -1.6392e-18)
(0.998899 0.012906 -6.5982e-18)
(0.998621 0.012648 8.82757e-19)
(0.998337 0.0122051 -3.91264e-20)
(0.998092 0.0117645 6.93015e-18)
(0.997855 0.0112673 -7.46545e-19)
(0.997633 0.0107268 -4.64435e-18)
(0.997426 0.0101472 4.67405e-18)
(0.997234 0.00953183 -5.76518e-18)
(0.997057 0.0088876 -3.88961e-18)
(0.996896 0.00821783 2.38572e-18)
(0.996752 0.00753041 6.43507e-18)
(0.996626 0.00682877 -4.07001e-18)
(0.996519 0.00611935 4.17428e-18)
(0.996431 0.00540437 -4.39072e-18)
(0.996365 0.00468833 6.52414e-18)
(0.996322 0.00397226 -8.39822e-18)
(0.996301 0.00325871 2.11759e-18)
(0.996305 0.0025476 7.5551e-19)
(0.996334 0.00184083 4.76055e-19)
(0.996389 0.00113792 -5.55784e-18)
(0.996472 0.000440559 2.97463e-18)
(0.996582 -0.000250666 -1.36909e-19)
(0.996719 -0.000933352 8.89084e-19)
(0.996883 -0.0016049 -9.82087e-19)
(0.997074 -0.00226104 -3.87608e-18)
(0.997289 -0.00289688 3.99831e-18)
(0.997526 -0.00350685 3.62378e-19)
(0.997779 -0.0040823 3.66694e-19)
(0.998048 -0.00461205 -3.10976e-18)
(0.998325 -0.00507993 1.85819e-18)
(0.99861 -0.00546337 -4.14374e-18)
(0.998893 -0.00574021 -8.13674e-19)
(0.999165 -0.00588844 2.83647e-19)
(0.999419 -0.0058836 4.67923e-19)
(0.999645 -0.00569756 -1.99125e-18)
(0.999839 -0.00530075 4.42363e-19)
(0.999995 -0.00466416 2.63683e-19)
(1.00011 -0.00376421 2.58056e-19)
(1.00019 -0.0025869 -3.19886e-19)
(1.00024 -0.00113571 -2.1711e-19)
(1.00027 0.000560629 5.94702e-21)
(1.00026 0.00245859 -2.22238e-19)
(1.00019 0.00448514 5.33582e-19)
(0.999975 0.00646301 1.29913e-18)
(0.999473 0.00810259 -2.9873e-18)
(0.998498 0.00902161 7.73665e-18)
(0.996831 0.00876389 1.38627e-17)
(0.994274 0.00688971 -6.86275e-18)
(0.990735 0.00306868 2.55537e-17)
(0.986353 -0.00282015 4.58887e-17)
(0.981528 -0.0105592 7.10103e-17)
(0.976867 -0.0196633 1.41521e-17)
(0.973039 -0.0296417 2.10484e-17)
(0.970652 -0.0401654 3.37325e-17)
(0.970107 -0.0513621 7.201e-17)
(0.971966 -0.063805 9.48241e-18)
(0.980889 -0.0681951 8.71929e-17)
(0.975871 -0.0578331 -2.81387e-17)
(0.671541 -0.926932 3.75235e-17)
(1.00495 0.02941 -3.01309e-19)
(1.0045 0.0294922 2.2023e-18)
(1.00391 0.0297752 -9.50218e-19)
(1.00322 0.0296921 1.09734e-18)
(1.00257 0.0296226 2.63919e-18)
(1.00192 0.0294424 -3.96656e-19)
(1.00128 0.0291679 -2.99045e-18)
(1.00065 0.0287925 -1.44875e-19)
(1.00002 0.0283137 2.46941e-18)
(0.999394 0.0277317 -4.21409e-18)
(0.99878 0.0270469 -1.55532e-18)
(0.998175 0.0262641 5.40403e-18)
(0.99758 0.025387 -3.96194e-18)
(0.996997 0.0244228 2.71528e-18)
(0.996429 0.0233775 -3.74131e-18)
(0.99588 0.0222586 1.99859e-18)
(0.995356 0.0210734 -8.47162e-19)
(0.994859 0.0198283 -6.06594e-19)
(0.994399 0.0185291 6.21221e-19)
(0.993981 0.0171814 -9.64297e-21)
(0.993613 0.0157895 1.41718e-18)
(0.993303 0.0143569 -1.35406e-18)
(0.99306 0.0128876 -1.01633e-18)
(0.99289 0.0113844 1.26568e-18)
(0.992802 0.00985167 -3.19271e-18)
(0.992801 0.00829386 -5.56654e-19)
(0.992893 0.00671718 5.65056e-18)
(0.993081 0.00512994 -2.43686e-18)
(0.993367 0.00354666 4.6041e-18)
(0.993755 0.00199175 -4.44128e-19)
(0.994248 0.000494426 -2.50678e-18)
(0.994836 -0.000910953 8.35864e-19)
(0.995512 -0.00217603 2.27155e-19)
(0.996261 -0.00324862 1.01424e-18)
(0.997064 -0.00406256 -1.77784e-18)
(0.997899 -0.00454273 4.70362e-19)
(0.99874 -0.00460561 4.35208e-19)
(0.99955 -0.00416632 -1.52822e-19)
(1.00029 -0.00315136 9.65155e-20)
(1.00091 -0.0015132 4.67538e-20)
(1.00135 0.000742636 2.58745e-19)
(1.00152 0.0035417 -3.66166e-20)
(1.00134 0.00675806 1.70801e-19)
(1.00066 0.00995973 1.96753e-19)
(0.999282 0.0126094 -2.19503e-18)
(0.996964 0.0140097 2.1524e-18)
(0.993424 0.0133524 -1.05377e-17)
(0.988405 0.0098618 -7.91476e-18)
(0.981766 0.00296944 -3.87372e-18)
(0.973615 -0.00750372 -2.88049e-18)
(0.964422 -0.0212698 -5.08574e-17)
(0.955018 -0.0376496 -6.94431e-17)
(0.946451 -0.0557563 5.64637e-18)
(0.939745 -0.0750784 -1.01414e-17)
(0.935833 -0.0955304 -3.86061e-17)
(0.935364 -0.118063 1.34796e-17)
(0.939713 -0.14411 1.14868e-17)
(0.955898 -0.165384 -1.69921e-17)
(0.943581 -0.222579 4.6183e-17)
(0.957686 -0.219426 -2.71392e-17)
(1.00903 0.0340319 2.72336e-18)
(1.00848 0.0343734 -7.9117e-19)
(1.0079 0.0350474 -4.11021e-19)
(1.00718 0.0353796 -1.83548e-19)
(1.00652 0.0357761 5.77791e-18)
(1.00584 0.036096 -4.77014e-18)
(1.00517 0.0363501 -1.75624e-18)
(1.00451 0.0365229 1.212e-18)
(1.00386 0.0366015 3.11918e-18)
(1.00321 0.036575 1.26541e-18)
(1.00258 0.0364323 -5.28548e-18)
(1.00196 0.036167 -2.49843e-18)
(1.00135 0.0357723 2.39577e-18)
(1.00075 0.0352456 -9.2101e-19)
(1.00015 0.0345848 2.5433e-19)
(0.999568 0.0337915 4.11377e-18)
(0.998992 0.0328686 -4.10547e-18)
(0.998426 0.0318209 4.02485e-18)
(0.997876 0.0306543 -5.22467e-19)
(0.997347 0.0293761 2.71446e-18)
(0.996844 0.0279934 -1.33721e-18)
(0.996377 0.0265135 -2.07806e-18)
(0.995956 0.0249443 7.36114e-19)
(0.995589 0.0232916 2.67447e-18)
(0.995292 0.0215637 -1.71367e-18)
(0.99507 0.0197666 2.51645e-18)
(0.994938 0.0179075 -4.05684e-19)
(0.994901 0.0159957 -1.39739e-18)
(0.994974 0.0140473 -2.69379e-18)
(0.995162 0.0120871 2.52019e-18)
(0.995477 0.0101446 2.93607e-19)
(0.995917 0.00825529 3.42731e-19)
(0.996474 0.00646408 -1.4416e-18)
(0.997141 0.00482927 1.47996e-18)
(0.9979 0.00342351 2.98656e-20)
(0.998733 0.00233 7.81254e-19)
(0.999609 0.00164484 -1.27962e-19)
(1.00049 0.00146595 2.0932e-19)
(1.00131 0.00188044 -2.72902e-19)
(1.00202 0.0029462 5.45544e-20)
(1.00252 0.00465898 -1.94558e-19)
(1.00272 0.00694022 9.78825e-21)
(1.00244 0.00966976 -2.74986e-19)
(1.00151 0.012216 -1.05682e-18)
(0.999765 0.0139145 1.11847e-18)
(0.996968 0.0139969 -2.24159e-19)
(0.99286 0.0116015 1.40456e-18)
(0.987223 0.00597655 -6.63698e-18)
(0.979952 -0.00333983 1.17851e-18)
(0.971201 -0.0163269 -1.29088e-19)
(0.961464 -0.0324592 -5.2936e-17)
(0.951588 -0.0508945 -2.12584e-17)
(0.94264 -0.070685 3.61603e-17)
(0.935731 -0.0913832 3.73581e-17)
(0.931891 -0.113004 3.45034e-17)
(0.932056 -0.13648 -1.33338e-16)
(0.937935 -0.162998 3.29915e-17)
(0.956563 -0.186593 -4.38074e-17)
(0.951176 -0.225252 -3.51366e-17)
(0.944796 -0.340204 5.68388e-18)
(1.01106 0.0352553 1.61405e-18)
(1.01053 0.0356333 -1.11353e-18)
(1.00999 0.0363924 6.9801e-19)
(1.0093 0.0368499 1.0024e-18)
(1.00866 0.0374185 -2.12955e-18)
(1.00799 0.0379568 -2.04924e-18)
(1.00733 0.0384792 1.61084e-18)
(1.00667 0.0389688 2.75552e-19)
(1.00601 0.0394113 5.264e-19)
(1.00538 0.0397913 -2.06125e-18)
(1.00476 0.0400927 -5.67529e-19)
(1.00417 0.0403009 4.71667e-19)
(1.0036 0.0404003 1.29366e-18)
(1.00305 0.040378 1.41094e-19)
(1.00253 0.0402217 1.93828e-18)
(1.00202 0.0399218 -3.63601e-18)
(1.00154 0.0394715 1.43387e-18)
(1.00108 0.0388663 1.56682e-18)
(1.00063 0.0381047 -3.81087e-18)
(1.0002 0.0371881 3.85955e-18)
(0.999792 0.0361196 -5.42209e-19)
(0.999404 0.0349051 -3.61184e-18)
(0.999043 0.0335519 -8.93213e-19)
(0.998714 0.0320666 1.31606e-18)
(0.998428 0.03046 7.47125e-20)
(0.99819 0.0287396 -1.90026e-18)
(0.998012 0.0269145 2.584e-18)
(0.997903 0.024996 -1.2511e-18)
(0.997874 0.0229997 3.4168e-19)
(0.997939 0.0209539 3.37287e-19)
(0.998107 0.0188834 1.88641e-19)
(0.998379 0.0168201 1.99137e-19)
(0.998753 0.0148059 3.24821e-20)
(0.999225 0.0128924 -7.58758e-19)
(0.999784 0.0111473 -7.73712e-20)
(1.00041 0.00964759 1.30579e-19)
(1.00109 0.0084847 -1.11999e-18)
(1.00178 0.00775111 1.26932e-20)
(1.00244 0.00752984 1.43419e-19)
(1.003 0.00787631 -3.49972e-19)
(1.00339 0.00878422 -4.78595e-20)
(1.00352 0.0101848 -2.3224e-20)
(1.00321 0.0119815 4.67246e-19)
(1.00226 0.0134632 1.57285e-19)
(1.00058 0.0139399 1.69922e-18)
(0.997972 0.0126985 -7.16125e-19)
(0.994202 0.00894259 4.58897e-18)
(0.989053 0.00202358 1.12778e-18)
(0.982393 -0.00840372 3.14248e-17)
(0.974327 -0.0221941 -7.22899e-18)
(0.965268 -0.038723 9.32491e-17)
(0.955983 -0.0571215 8.48409e-17)
(0.947482 -0.0764732 -5.20449e-17)
(0.940907 -0.0963808 3.66292e-17)
(0.937336 -0.116885 5.33624e-17)
(0.937901 -0.138755 5.80345e-17)
(0.944414 -0.16289 5.80178e-19)
(0.962881 -0.184515 9.31646e-18)
(0.956172 -0.219835 3.21527e-17)
(0.960644 -0.327012 1.71748e-18)
(1.01225 0.0356879 -1.34145e-18)
(1.01176 0.0360319 -2.49752e-18)
(1.01128 0.0367676 6.81523e-20)
(1.01063 0.037217 4.35229e-19)
(1.01002 0.0378012 -1.86422e-18)
(1.00938 0.0383812 3.30601e-18)
(1.00873 0.0389769 -3.35659e-19)
(1.00807 0.0395768 1.74324e-18)
(1.00741 0.0401701 7.11458e-19)
(1.00676 0.0407443 -4.00898e-18)
(1.00612 0.0412846 1.83874e-18)
(1.0055 0.0417762 -1.33631e-19)
(1.00492 0.0422014 -1.1954e-20)
(1.00436 0.0425431 2.20816e-18)
(1.00384 0.0427831 -2.09531e-18)
(1.00335 0.0429046 4.08346e-19)
(1.0029 0.0428918 -4.69426e-19)
(1.00249 0.0427315 6.31376e-19)
(1.00211 0.0424128 -9.39195e-19)
(1.00175 0.0419279 1.54022e-18)
(1.00143 0.0412718 -1.59642e-18)
(1.00114 0.0404436 1.41046e-18)
(1.00087 0.0394449 2.00361e-18)
(1.00063 0.0382784 -2.07479e-18)
(1.00042 0.036953 -5.24595e-19)
(1.00025 0.0354741 2.55192e-18)
(1.00012 0.0338507 -2.43026e-18)
(1.00003 0.0320935 8.85801e-19)
(0.999993 0.0302194 -1.87936e-18)
(1.00002 0.0282532 2.43092e-18)
(1.00013 0.0262193 -9.02749e-19)
(1.00031 0.0241479 -1.23856e-18)
(1.00057 0.0220711 -2.10303e-18)
(1.0009 0.0200359 5.87603e-19)
(1.00129 0.0181002 2.58828e-19)
(1.00174 0.0163307 -1.73516e-19)
(1.00223 0.0148088 7.91641e-19)
(1.00273 0.0136156 6.07968e-19)
(1.0032 0.0128246 -8.08007e-20)
(1.00359 0.012484 1.9468e-19)
(1.00385 0.0125835 -3.1231e-20)
(1.00391 0.0130678 -3.3162e-20)
(1.00356 0.0138577 -3.93989e-19)
(1.00262 0.0142285 -9.47703e-19)
(1.00106 0.0135018 -8.53297e-19)
(0.998727 0.0110561 -1.50284e-18)
(0.995408 0.00618848 -1.10834e-18)
(0.990891 -0.00163708 4.036e-18)
(0.985009 -0.0126684 6.10945e-19)
(0.977816 -0.0266847 -8.97076e-18)
(0.969629 -0.0430288 -1.0598e-17)
(0.961116 -0.0608648 -3.95233e-17)
(0.953197 -0.0793523 -3.42256e-19)
(0.94701 -0.0981613 -3.91261e-17)
(0.943625 -0.117388 1.39424e-17)
(0.944266 -0.137723 -7.62234e-18)
(0.950716 -0.160045 -1.73389e-17)
(0.967726 -0.180842 -4.54072e-18)
(0.959966 -0.214043 -1.41445e-18)
(0.969637 -0.3282 -1.23429e-18)
(1.01312 0.0359348 -7.09598e-19)
(1.01268 0.0362334 8.63814e-19)
(1.01225 0.0369166 1.39729e-18)
(1.01165 0.0373206 -1.56812e-19)
(1.01108 0.0378677 -8.94962e-19)
(1.01047 0.03842 -9.8721e-19)
(1.00984 0.0390027 -3.41978e-19)
(1.0092 0.0396077 -1.66474e-18)
(1.00854 0.0402297 2.26793e-18)
(1.00788 0.0408602 1.99845e-18)
(1.00722 0.0414894 -2.45031e-18)
(1.00658 0.0421055 1.36419e-18)
(1.00596 0.0426941 -4.5395e-19)
(1.00537 0.043239 1.06298e-18)
(1.00481 0.0437225 -2.15566e-19)
(1.00429 0.0441256 -5.29569e-19)
(1.00381 0.0444292 -2.56713e-18)
(1.00338 0.0446147 3.86193e-18)
(1.003 0.044665 -1.85789e-18)
(1.00266 0.0445649 1.1493e-18)
(1.00236 0.0443009 -1.75342e-18)
(1.0021 0.0438647 1.22157e-18)
(1.00188 0.0432501 -1.07351e-18)
(1.0017 0.0424526 -6.85346e-19)
(1.00155 0.0414757 6.10138e-20)
(1.00144 0.0403197 5.32064e-20)
(1.00135 0.03899 9.08523e-19)
(1.0013 0.0374945 1.69269e-18)
(1.00129 0.0358459 -5.14356e-19)
(1.00132 0.0340704 5.94869e-19)
(1.00141 0.0321857 -4.27086e-19)
(1.00154 0.0302172 5.6149e-20)
(1.00173 0.0281935 2.03004e-18)
(1.00196 0.026151 -1.70389e-19)
(1.00224 0.0241379 1.03152e-18)
(1.00255 0.0222081 -5.26986e-19)
(1.00288 0.0204306 -1.05531e-18)
(1.00321 0.0188725 -4.705e-19)
(1.00352 0.0175942 -5.24044e-21)
(1.00377 0.0166345 1.92924e-20)
(1.0039 0.0159769 5.93167e-20)
(1.00389 0.0155807 5.81168e-22)
(1.0035 0.0153746 -2.58867e-20)
(1.00255 0.0146676 8.17774e-19)
(1.00107 0.0128131 -9.30581e-19)
(0.998964 0.00929168 2.10843e-18)
(0.996039 0.00350074 -4.71148e-19)
(0.992087 -0.00498982 -4.98629e-18)
(0.986921 -0.01635 -1.46478e-17)
(0.980549 -0.0303196 2.12712e-17)
(0.9732 -0.0462497 -2.44033e-17)
(0.965441 -0.0633733 2.24759e-17)
(0.958094 -0.0809528 9.15595e-18)
(0.952259 -0.0987403 -8.36524e-18)
(0.94897 -0.116904 -1.31028e-16)
(0.949479 -0.136125 2.98932e-17)
(0.955497 -0.157352 -2.50365e-17)
(0.970717 -0.178066 1.162e-19)
(0.962336 -0.209536 -6.35764e-18)
(0.976316 -0.329526 8.501e-18)
(1.01374 0.0360556 -3.59335e-18)
(1.01335 0.0363334 2.04805e-18)
(1.01296 0.0369716 8.16643e-19)
(1.01241 0.0373298 6.56737e-19)
(1.01188 0.0378308 -1.59243e-18)
(1.01131 0.0383372 -1.75617e-18)
(1.01072 0.0388776 3.74641e-18)
(1.0101 0.0394475 -5.43588e-19)
(1.00946 0.040045 4.17537e-19)
(1.00881 0.0406659 -3.05221e-18)
(1.00816 0.041304 2.04222e-18)
(1.00751 0.0419529 -1.1126e-18)
(1.00687 0.0426012 -1.44348e-18)
(1.00624 0.0432369 2.95257e-18)
(1.00564 0.0438445 -5.46803e-19)
(1.00508 0.044407 -1.04507e-18)
(1.00456 0.0449056 -1.17846e-18)
(1.00408 0.0453211 3.7865e-18)
(1.00366 0.0456341 -1.77615e-18)
(1.00328 0.0458254 -1.67081e-18)
(1.00296 0.0458768 1.82682e-18)
(1.00269 0.0457738 -1.87917e-19)
(1.00247 0.0455036 -4.53633e-20)
(1.00229 0.0450545 -6.21936e-19)
(1.00216 0.0444237 2.76789e-19)
(1.00206 0.0436048 -1.11355e-18)
(1.002 0.0425971 -9.39989e-19)
(1.00197 0.0414035 3.8102e-19)
(1.00198 0.0400336 9.80928e-19)
(1.00201 0.0385054 6.1348e-19)
(1.00209 0.0368346 4.42169e-19)
(1.00219 0.0350437 -5.15568e-19)
(1.00233 0.0331496 2.73304e-20)
(1.00249 0.0311828 2.46187e-19)
(1.00268 0.0291795 -6.24219e-19)
(1.00288 0.0271805 1.0026e-19)
(1.00308 0.0252412 7.87617e-20)
(1.00328 0.023413 2.51704e-19)
(1.00345 0.0217423 5.54613e-20)
(1.00356 0.0202566 6.13593e-20)
(1.00358 0.0189319 2.18613e-20)
(1.00348 0.0177407 -1.40414e-20)
(1.00303 0.0166121 1.59194e-19)
(1.00205 0.0149191 -9.20421e-20)
(1.00061 0.0120589 1.14899e-18)
(0.998671 0.00761195 5.09614e-20)
(0.996047 0.00107043 6.74361e-18)
(0.992546 -0.00790252 6.29682e-18)
(0.987972 -0.0194194 -5.66376e-19)
(0.982294 -0.0332081 -2.27937e-17)
(0.975671 -0.0486529 3.47605e-18)
(0.968573 -0.0650738 -2.33857e-17)
(0.961731 -0.0818456 2.64937e-17)
(0.956193 -0.0988045 -3.3152e-18)
(0.952936 -0.116195 4.46209e-17)
(0.953206 -0.134709 -1.80664e-17)
(0.958631 -0.155388 -3.96948e-18)
(0.972129 -0.176382 3.41889e-18)
(0.963751 -0.205834 6.26993e-17)
(0.981472 -0.331576 -1.40811e-17)
(1.01424 0.0361189 1.10916e-18)
(1.01387 0.0363705 2.08516e-18)
(1.01352 0.0369669 -1.15636e-18)
(1.013 0.0372871 -1.46241e-18)
(1.01251 0.0377495 -4.20585e-19)
(1.01198 0.038215 1.69278e-18)
(1.01142 0.0387139 6.67112e-19)
(1.01083 0.0392427 5.848e-19)
(1.01022 0.0398014 -8.28094e-19)
(1.0096 0.0403882 5.64494e-19)
(1.00895 0.0410008 -1.01246e-18)
(1.00831 0.0416354 -1.75513e-18)
(1.00766 0.0422854 2.24131e-18)
(1.00702 0.0429424 -8.20643e-19)
(1.00639 0.0435951 -5.89344e-20)
(1.0058 0.0442297 -1.90211e-18)
(1.00523 0.0448302 1.22948e-18)
(1.0047 0.045379 4.79013e-19)
(1.00422 0.0458573 -8.80386e-19)
(1.00379 0.0462456 2.64796e-18)
(1.00342 0.0465233 -1.04642e-18)
(1.0031 0.0466733 -2.02581e-18)
(1.00284 0.0466779 1.93332e-18)
(1.00263 0.0465206 -2.11363e-18)
(1.00247 0.0461929 5.06391e-19)
(1.00236 0.0456818 1.12028e-18)
(1.00228 0.0449806 9.51392e-20)
(1.00225 0.0440866 -6.25865e-19)
(1.00224 0.0430011 3.05736e-19)
(1.00226 0.0417413 -8.55979e-20)
(1.00231 0.0403134 -7.7047e-19)
(1.00239 0.038733 -1.64889e-19)
(1.00248 0.0370142 -3.02413e-19)
(1.00258 0.0351752 -4.00119e-19)
(1.00269 0.0332423 -2.47276e-19)
(1.0028 0.031243 4.458e-19)
(1.0029 0.0292193 9.62113e-20)
(1.00298 0.0272071 -6.05526e-20)
(1.00302 0.025238 1.63682e-19)
(1.00301 0.0233279 -5.92388e-20)
(1.00292 0.021444 1.96451e-20)
(1.00273 0.0195706 -9.80812e-21)
(1.00222 0.0176299 -2.32452e-19)
(1.00118 0.0150769 1.5383e-19)
(0.999734 0.0113576 2.44589e-19)
(0.997881 0.00614204 6.97283e-19)
(0.995457 -0.000993282 -3.4954e-18)
(0.992283 -0.0103081 3.60443e-18)
(0.988157 -0.0218749 -1.54655e-17)
(0.983024 -0.0354296 6.51501e-18)
(0.976986 -0.0504036 8.64757e-18)
(0.970436 -0.0662092 -7.86485e-18)
(0.964016 -0.0823327 -3.3103e-17)
(0.958714 -0.0986907 1.33509e-17)
(0.955451 -0.115595 1.13574e-17)
(0.955441 -0.133756 -1.87051e-17)
(0.960243 -0.15427 -1.46091e-19)
(0.972206 -0.175687 -1.59073e-17)
(0.963966 -0.204383 -6.26292e-17)
(0.985656 -0.334529 1.81863e-17)
(1.01461 0.0361604 -1.76443e-18)
(1.01428 0.0364114 2.07568e-18)
(1.01396 0.0369758 -1.15512e-18)
(1.01347 0.037263 -1.37397e-19)
(1.01301 0.0376892 6.52649e-19)
(1.01251 0.0381146 -3.3823e-19)
(1.01198 0.038571 1.22259e-18)
(1.01142 0.039056 5.71699e-19)
(1.01084 0.0395708 -9.14959e-19)
(1.01024 0.0401151 -1.72283e-18)
(1.00961 0.0406882 1.9393e-18)
(1.00898 0.0412893 1.12836e-19)
(1.00834 0.041914 -1.22012e-19)
(1.00769 0.0425569 -2.37616e-19)
(1.00706 0.0432101 1.09384e-18)
(1.00644 0.0438629 -1.43076e-18)
(1.00584 0.0445029 1.46596e-18)
(1.00527 0.0451154 -2.34889e-18)
(1.00474 0.045684 9.23385e-19)
(1.00425 0.0461907 -4.11317e-19)
(1.00382 0.0466153 2.77588e-20)
(1.00344 0.0469403 -7.79594e-19)
(1.00311 0.0471462 2.00058e-18)
(1.00284 0.047213 -5.27138e-19)
(1.00263 0.0471289 4.46986e-19)
(1.00247 0.0468756 -7.0109e-19)
(1.00236 0.0464409 -6.56846e-19)
(1.00228 0.0458164 7.45791e-19)
(1.00224 0.0449991 -1.81305e-19)
(1.00223 0.0439956 -1.62142e-19)
(1.00224 0.0428093 1.34687e-19)
(1.00227 0.0414523 2.27706e-19)
(1.00231 0.0399259 3.43266e-20)
(1.00235 0.0382433 4.47261e-19)
(1.00239 0.0364191 -2.4888e-19)
(1.00241 0.0344685 8.1689e-20)
(1.00241 0.0324208 6.15459e-20)
(1.00238 0.0302967 8.85227e-20)
(1.00231 0.0281141 2.21214e-21)
(1.00218 0.0258771 -9.18718e-22)
(1.00198 0.023544 -3.47026e-21)
(1.00169 0.0211082 6.15145e-21)
(1.0011 0.0184814 1.29845e-19)
(0.999982 0.0152064 1.7922e-20)
(0.998495 0.0107797 -3.97296e-19)
(0.996666 0.0049475 -8.56714e-20)
(0.994355 -0.00264194 -2.67057e-18)
(0.991391 -0.0121876 -3.37731e-18)
(0.987584 -0.0237352 1.49582e-17)
(0.982855 -0.037044 -3.92714e-19)
(0.97727 -0.0515977 -5.6395e-19)
(0.971154 -0.0668991 -1.40735e-18)
(0.965078 -0.0825379 8.83345e-18)
(0.959967 -0.0985025 -1.92442e-17)
(0.956683 -0.115158 -4.48312e-18)
(0.956397 -0.133226 2.51664e-17)
(0.960613 -0.153821 3.09391e-18)
(0.971266 -0.175703 -2.99975e-17)
(0.963612 -0.203624 1.72679e-17)
(0.989273 -0.337722 -3.76831e-17)
(1.01491 0.0361672 -6.32553e-20)
(1.0146 0.0364036 -1.17124e-18)
(1.0143 0.0369389 5.38247e-19)
(1.01383 0.0372029 -6.51797e-19)
(1.0134 0.037605 6.96666e-19)
(1.01292 0.0380034 -3.28051e-19)
(1.01242 0.0384303 1.29279e-18)
(1.01189 0.0388824 -8.02002e-19)
(1.01134 0.0393615 9.93776e-19)
(1.01076 0.0398679 -4.84475e-19)
(1.01016 0.0404023 -1.3493e-19)
(1.00954 0.040965 3.7676e-19)
(1.00891 0.0415542 -1.19186e-18)
(1.00827 0.0421667 2.03791e-18)
(1.00763 0.0427977 6.33189e-20)
(1.007 0.0434393 -5.7415e-20)
(1.00638 0.0440821 -1.3485e-18)
(1.00578 0.0447145 9.10274e-19)
(1.00521 0.045323 -1.1242e-18)
(1.00467 0.0458918 7.35583e-19)
(1.00418 0.0464024 9.77591e-20)
(1.00374 0.0468387 4.22738e-19)
(1.00335 0.047181 -4.49083e-19)
(1.00301 0.0474084 -6.50265e-19)
(1.00273 0.0475073 4.39128e-19)
(1.0025 0.047456 3.65641e-19)
(1.00232 0.0472386 -4.27271e-19)
(1.00219 0.0468423 1.17193e-19)
(1.00208 0.0462559 1.80186e-19)
(1.00201 0.0454861 -4.36463e-19)
(1.00197 0.0445257 8.05127e-20)
(1.00194 0.0433798 -4.5095e-20)
(1.00192 0.0420478 -5.24723e-21)
(1.00189 0.040531 -6.2096e-20)
(1.00185 0.0388354 -4.47881e-21)
(1.00179 0.0369646 3.17874e-20)
(1.00169 0.0349366 2.05113e-20)
(1.00156 0.0327581 5.63775e-20)
(1.00137 0.030434 -1.06287e-19)
(1.00113 0.0279573 1.71518e-20)
(1.00081 0.0252773 -6.99408e-21)
(1.00042 0.0223945 -1.00528e-20)
(0.999725 0.0192076 -2.75591e-20)
(0.998517 0.0153464 1.17248e-20)
(0.996957 0.0103563 -1.74842e-19)
(0.9951 0.00404539 3.58377e-19)
(0.99283 -0.00387799 -3.89343e-19)
(0.989981 -0.0135678 -3.00024e-18)
(0.986384 -0.0250515 -6.31356e-18)
(0.981938 -0.0381223 1.19022e-17)
(0.97669 -0.0523179 -1.14236e-17)
(0.970912 -0.0672253 7.81374e-18)
(0.96511 -0.0825274 -2.03549e-17)
(0.960151 -0.0982751 2.21985e-18)
(0.956841 -0.114871 -1.80639e-18)
(0.956302 -0.133041 1.12401e-18)
(0.959999 -0.153869 -6.75801e-18)
(0.969503 -0.17617 2.2117e-17)
(0.962372 -0.204916 4.58393e-17)
(0.992525 -0.34137 5.87128e-17)
(1.01516 0.036199 -1.42881e-19)
(1.01488 0.0364467 1.45181e-19)
(1.01459 0.0369591 3.07641e-19)
(1.01414 0.0372001 2.87324e-19)
(1.01372 0.0375766 -5.2718e-19)
(1.01327 0.0379457 -2.21042e-19)
(1.01278 0.0383406 5.39116e-19)
(1.01228 0.0387591 3.31616e-19)
(1.01174 0.0392027 -6.91814e-19)
(1.01118 0.0396722 8.09314e-19)
(1.0106 0.0401684 -4.8405e-19)
(1.01 0.040693 -7.16182e-19)
(1.00939 0.0412444 5.34944e-19)
(1.00876 0.0418213 4.48745e-20)
(1.00812 0.04242 -8.46733e-19)
(1.00748 0.0430351 5.70925e-19)
(1.00685 0.0436597 1.92461e-19)
(1.00623 0.0442848 -7.72872e-20)
(1.00563 0.0448999 9.21235e-20)
(1.00505 0.0454919 3.354e-19)
(1.00451 0.0460446 -7.6081e-19)
(1.00401 0.0465438 3.76237e-19)
(1.00356 0.0469712 -8.76734e-20)
(1.00315 0.047306 6.64364e-19)
(1.0028 0.0475345 -5.37688e-19)
(1.00249 0.0476333 1.49932e-19)
(1.00224 0.0475838 -2.6725e-19)
(1.00203 0.0473699 2.07747e-19)
(1.00185 0.0469781 -9.50813e-20)
(1.00171 0.0464048 1.53708e-19)
(1.00159 0.0456419 -4.39741e-20)
(1.00149 0.0446917 2.76782e-21)
(1.00139 0.0435411 4.72458e-20)
(1.00128 0.0421878 1.2814e-20)
(1.00115 0.040628 6.76046e-20)
(1.001 0.038855 -8.48544e-20)
(1.00081 0.0368765 -9.32739e-21)
(1.00057 0.034687 -3.9044e-20)
(1.00027 0.0322795 1.75004e-19)
(0.999908 0.0296371 -8.42722e-20)
(0.999469 0.0267004 3.30003e-20)
(0.998959 0.0234745 5.74485e-21)
(0.998154 0.0198456 5.2104e-20)
(0.996842 0.0155235 -3.38288e-20)
(0.995187 0.0101001 1.7951e-19)
(0.993264 0.00343164 -5.15496e-19)
(0.990979 -0.00472411 7.2983e-20)
(0.988171 -0.0144889 3.32221e-18)
(0.984695 -0.0258808 6.75716e-18)
(0.980438 -0.0387286 -4.38416e-18)
(0.975433 -0.0526271 7.1426e-18)
(0.969911 -0.0672375 5.66717e-18)
(0.964329 -0.082325 1.24335e-17)
(0.959495 -0.0979921 1.93171e-17)
(0.956163 -0.114666 8.13127e-18)
(0.955409 -0.133058 1.66436e-18)
(0.958668 -0.154203 4.16066e-17)
(0.96712 -0.176883 1.84703e-17)
(0.961089 -0.20571 1.34631e-17)
(0.995621 -0.344601 -5.36578e-17)
(1.01536 0.0361946 1.72544e-19)
(1.01509 0.0364329 -1.79343e-19)
(1.01481 0.036924 -6.88875e-20)
(1.01437 0.0371511 3.98837e-19)
(1.01397 0.0375138 -3.06703e-19)
(1.01353 0.0378671 -1.56287e-19)
(1.01307 0.0382442 3.22261e-19)
(1.01258 0.0386416 -3.48478e-19)
(1.01206 0.039061 3.32714e-19)
(1.01152 0.0395029 1.14557e-19)
(1.01096 0.0399689 -1.40991e-19)
(1.01038 0.0404606 -2.12692e-19)
(1.00978 0.040978 1.55978e-19)
(1.00916 0.0415204 -1.02755e-19)
(1.00853 0.0420858 3.16176e-20)
(1.00789 0.0426704 -6.92128e-20)
(1.00725 0.0432689 1.30781e-19)
(1.00662 0.0438745 1.40304e-19)
(1.006 0.0444789 -4.00245e-19)
(1.00539 0.0450713 2.41331e-19)
(1.00481 0.045638 -1.6048e-19)
(1.00426 0.0461671 -6.33093e-20)
(1.00375 0.046642 1.22739e-19)
(1.00328 0.0470432 -3.52896e-20)
(1.00285 0.0473581 -2.51523e-20)
(1.00247 0.0475627 -1.13921e-20)
(1.00213 0.0476374 -3.77916e-20)
(1.00184 0.0475645 -2.49401e-20)
(1.00158 0.0473243 5.66386e-20)
(1.00135 0.046916 -1.54573e-19)
(1.00115 0.0463218 1.19185e-19)
(1.00096 0.0455385 -2.19418e-19)
(1.00077 0.044553 -1.44577e-19)
(1.00058 0.0433523 -6.96735e-20)
(1.00036 0.0419257 -1.57682e-20)
(1.0001 0.0402576 -9.64531e-20)
(0.999807 0.038347 2.75628e-19)
(0.999456 0.0361777 3.3284e-19)
(0.999044 0.033732 -6.67832e-20)
(0.998559 0.0309842 -1.25716e-19)
(0.997992 0.027867 -5.79802e-20)
(0.997351 0.0243883 8.67452e-22)
(0.996426 0.0204222 4.15314e-19)
(0.995 0.0157497 7.91059e-20)
(0.993235 0.0100054 1.04666e-19)
(0.991219 0.00308148 -1.41045e-19)
(0.988879 -0.00522384 1.1464e-18)
(0.986053 -0.0150111 -3.5005e-20)
(0.98263 -0.0262945 3.13355e-19)
(0.978488 -0.0389389 6.07689e-18)
(0.973651 -0.0525957 -1.07174e-18)
(0.968319 -0.0669922 -2.9373e-18)
(0.962908 -0.0819649 5.31094e-18)
(0.958175 -0.0976589 -3.35742e-18)
(0.954826 -0.114515 -1.97976e-18)
(0.95389 -0.133221 -1.38202e-17)
(0.956784 -0.154735 -3.57825e-17)
(0.964245 -0.177659 -8.67189e-18)
(0.959346 -0.207097 -7.70572e-17)
(0.9985 -0.347792 -1.51318e-17)
(1.01554 0.0362401 1.75102e-19)
(1.0153 0.0364956 -1.29455e-19)
(1.01502 0.036969 -1.29575e-19)
(1.01459 0.037179 5.00494e-20)
(1.0142 0.0375225 1.37359e-19)
(1.01377 0.0378539 -2.58414e-19)
(1.01332 0.0382074 3.09806e-19)
(1.01284 0.0385803 -1.06e-19)
(1.01234 0.0389739 -5.73291e-20)
(1.01181 0.0393888 -1.03981e-19)
(1.01126 0.039826 1.32194e-19)
(1.01069 0.0402881 -1.04794e-22)
(1.0101 0.0407742 2.72549e-20)
(1.00949 0.0412845 -2.1429e-19)
(1.00887 0.0418172 1.19481e-19)
(1.00823 0.0423696 -7.27499e-20)
(1.00759 0.0429376 1.07428e-19)
(1.00695 0.0435163 -2.85198e-20)
(1.00631 0.0440992 -1.41281e-19)
(1.00568 0.0446777 8.92153e-20)
(1.00507 0.0452401 4.23463e-20)
(1.00448 0.0457767 6.66935e-20)
(1.00392 0.0462731 -1.49967e-19)
(1.00338 0.046711 6.55153e-20)
(1.00289 0.0470795 -8.10858e-20)
(1.00244 0.047355 1.18925e-19)
(1.00202 0.0475176 -2.1591e-19)
(1.00164 0.0475484 1.9246e-19)
(1.00129 0.0474282 5.99944e-20)
(1.00098 0.0471477 1.95351e-19)
(1.00068 0.0466905 -5.50512e-20)
(1.0004 0.0460526 -1.07165e-19)
(1.00012 0.0452096 -1.12858e-20)
(0.999822 0.0441467 -6.84545e-20)
(0.999501 0.0428457 3.75319e-20)
(0.999141 0.041283 -3.6853e-19)
(0.998734 0.0394505 2.63895e-19)
(0.998267 0.0373226 2.77365e-21)
(0.997733 0.0348725 -1.01635e-19)
(0.99712 0.0320671 9.35986e-20)
(0.996419 0.0288319 -4.25507e-20)
(0.995637 0.0251756 8.15735e-21)
(0.994582 0.0209626 -5.02408e-19)
(0.993038 0.016034 -3.14527e-19)
(0.991152 0.0100637 -2.87064e-20)
(0.989025 0.00296871 -5.02443e-19)
(0.986599 -0.00541896 -2.92832e-20)
(0.983715 -0.0151886 -6.49802e-20)
(0.980296 -0.0263538 -1.87625e-18)
(0.976211 -0.0388145 -3.64584e-18)
(0.971482 -0.052277 -1.14386e-18)
(0.966288 -0.0665261 -2.36677e-18)
(0.961012 -0.0814604 2.38596e-18)
(0.956363 -0.0972579 -4.07673e-18)
(0.953005 -0.114363 9.45141e-19)
(0.951925 -0.13343 1.53481e-17)
(0.954531 -0.155328 3.16436e-17)
(0.961145 -0.178339 7.42436e-17)
(0.957775 -0.20707 2.21495e-17)
(1.00117 -0.350419 -1.56658e-17)
(1.01568 0.0362469 -6.70349e-19)
(1.01544 0.0364958 -6.40006e-19)
(1.01517 0.036953 8.80213e-19)
(1.01475 0.0371551 -2.58028e-19)
(1.01437 0.0374916 -8.54654e-20)
(1.01395 0.0378147 -5.38551e-19)
(1.01351 0.0381584 -3.55538e-20)
(1.01305 0.0385188 7.3784e-19)
(1.01255 0.0388972 -2.80065e-19)
(1.01204 0.0392939 -2.34913e-19)
(1.0115 0.0397105 2.18808e-20)
(1.01094 0.0401489 -2.16742e-19)
(1.01036 0.0406095 -7.59642e-20)
(1.00976 0.0410925 6.07832e-19)
(1.00914 0.0415972 -1.54262e-19)
(1.00851 0.042121 -2.83428e-19)
(1.00787 0.0426611 1.02877e-19)
(1.00722 0.0432133 6.6646e-19)
(1.00657 0.0437725 -7.02904e-19)
(1.00593 0.0443318 1.31301e-19)
(1.00529 0.0448808 2.8201e-19)
(1.00466 0.0454123 -1.06457e-19)
(1.00405 0.0459135 7.72951e-20)
(1.00347 0.0463679 -7.51555e-20)
(1.00292 0.0467665 4.36143e-19)
(1.00239 0.0470865 -1.02787e-19)
(1.0019 0.0473086 4.18669e-19)
(1.00144 0.0474144 -3.10744e-19)
(1.001 0.0473803 -3.73933e-19)
(1.00059 0.0472026 -2.20283e-20)
(1.0002 0.0468567 4.76181e-19)
(0.999822 0.0463349 3.15184e-19)
(0.999439 0.0456151 -3.60153e-19)
(0.999039 0.0446729 -6.45842e-19)
(0.99861 0.0434859 7.06231e-19)
(0.998139 0.0420237 -3.37759e-19)
(0.997616 0.0402729 -3.84519e-19)
(0.997028 0.0381998 -2.96367e-19)
(0.996366 0.0357699 -1.96685e-19)
(0.99562 0.0329438 -2.19222e-19)
(0.994776 0.0296404 -1.24033e-19)
(0.993846 0.0258678 3.68403e-20)
(0.992654 0.0214832 -1.91392e-19)
(0.990988 0.016377 4.46483e-19)
(0.988975 0.0102579 2.16287e-19)
(0.986723 0.00305954 9.70427e-19)
(0.98419 -0.00535849 -9.12827e-19)
(0.981217 -0.0150821 1.81642e-19)
(0.977765 -0.0261257 -3.58373e-19)
(0.973693 -0.0384221 -1.61748e-18)
(0.969025 -0.0517309 -8.02138e-19)
(0.963927 -0.0658873 2.42102e-18)
(0.958753 -0.0808435 -4.4161e-18)
(0.95417 -0.0968042 -9.75306e-19)
(0.950808 -0.114211 -4.3267e-18)
(0.949609 -0.133678 1.87164e-17)
(0.951984 -0.155979 -5.17079e-18)
(0.957884 -0.179014 -5.80454e-18)
(0.956066 -0.207076 -7.66229e-17)
(1.00366 -0.353048 1.1928e-16)
(1.01583 0.0363231 1.30538e-18)
(1.01561 0.0365942 -1.91627e-18)
(1.01534 0.0370375 2.67266e-19)
(1.01492 0.0372262 1.09037e-18)
(1.01455 0.0375475 -1.63734e-18)
(1.01413 0.0378531 1.30151e-18)
(1.01369 0.0381782 -5.67371e-19)
(1.01323 0.0385199 3.48594e-19)
(1.01274 0.0388789 3.02984e-19)
(1.01223 0.0392555 -9.99733e-19)
(1.0117 0.0396508 -4.8688e-19)
(1.01115 0.0400675 1.29403e-18)
(1.01057 0.0405047 -6.78019e-20)
(1.00998 0.0409632 4.12862e-19)
(1.00936 0.0414416 -4.43988e-19)
(1.00874 0.0419384 -2.31264e-19)
(1.0081 0.042451 -3.46816e-19)
(1.00744 0.0429762 6.65422e-19)
(1.00678 0.04351 -5.86045e-19)
(1.00612 0.0440465 3.87547e-19)
(1.00546 0.0445772 -4.18078e-20)
(1.0048 0.0450959 -8.09265e-19)
(1.00416 0.0455919 7.09098e-19)
(1.00353 0.0460496 -9.42465e-19)
(1.00292 0.0464624 3.93188e-19)
(1.00234 0.046808 -5.69174e-19)
(1.00177 0.0470682 -2.6008e-19)
(1.00123 0.0472251 1.60486e-19)
(1.00071 0.0472573 1.34054e-19)
(1.00021 0.0471535 4.5615e-19)
(0.999722 0.0468935 -9.99922e-19)
(0.999241 0.046471 2.87739e-19)
(0.998753 0.0458521 -3.1207e-19)
(0.998246 0.0450141 4.8975e-19)
(0.997705 0.0439288 3.62631e-19)
(0.997119 0.0425605 5.81089e-19)
(0.996475 0.0408912 -2.54226e-19)
(0.995761 0.0388807 -3.45846e-19)
(0.994967 0.0364879 -2.68429e-19)
(0.994082 0.0336684 7.39109e-20)
(0.99309 0.0303356 5.30223e-20)
(0.992005 0.0264957 5.98556e-20)
(0.990672 0.022001 5.89732e-20)
(0.98888 0.0167808 -7.16228e-19)
(0.986737 0.0105752 -1.16315e-18)
(0.984353 0.00332694 1.28323e-18)
(0.981698 -0.00508103 1.02773e-18)
(0.978616 -0.0147382 2.41122e-18)
(0.975101 -0.025662 -2.09128e-19)
(0.971011 -0.0378111 1.45525e-18)
(0.966369 -0.0509994 9.83149e-20)