1.45 	0 	0 	-0.306198
2.35 	0 	0 	-0.132528
