1.45 	0 	0 	-0.00227065 	-0.0030524 	3.97097e-21
2.35 	0 	0 	0.0824078 	-0.00735163 	2.33929e-21
