1.45 	0 	0 	-0.00628805 	-0.00269292 	3.91465e-21
2.35 	0 	0 	0.0667448 	-0.00678907 	2.4387e-21
