1.45 	0 	0 	-0.292464
2.35 	0 	0 	-0.127737
