1.45 	0 	0 	-0.231744
2.35 	0 	0 	-0.00292433
