/*--------------------------------*- C++ -*----------------------------------*\
  =========                 |
  \\      /  F ield         | OpenFOAM: The Open Source CFD Toolbox
   \\    /   O peration     | Website:  https://openfoam.org
    \\  /    A nd           | Version:  6.0
     \\/     M anipulation  |
\*---------------------------------------------------------------------------*/
FoamFile
{
    version     2.0;
    format      ascii;
    class       volScalarField;
    location    "4.9";
    object      p;
}
// * * * * * * * * * * * * * * * * * * * * * * * * * * * * * * * * * * * * * //

dimensions      [0 2 -2 0 0 0 0];

internalField   nonuniform List<scalar> 
24000
(
1.00648
1.00649
1.0063
1.00584
1.00506
1.00411
1.00309
1.00214
1.00132
1.00071
1.00021
0.999856
1.00648
1.00654
1.00646
1.00612
1.00546
1.00461
1.00361
1.00263
1.0017
1.00097
1.0003
0.99983
1.00648
1.00652
1.00639
1.00601
1.00533
1.00448
1.0035
1.00255
1.00165
1.00096
1.00031
0.999887
1.00648
1.00649
1.00632
1.00589
1.00518
1.00432
1.00336
1.00244
1.00158
1.00092
1.0003
0.999894
1.00649
1.00649
1.00632
1.00588
1.00516
1.00429
1.00333
1.00242
1.00157
1.0009
1.00028
0.999856
1.00649
1.0065
1.00633
1.00589
1.00518
1.00431
1.00335
1.00243
1.00157
1.00089
1.00025
0.999818
1.0065
1.00651
1.00634
1.0059
1.00519
1.00432
1.00336
1.00243
1.00157
1.00088
1.00023
0.999795
1.0065
1.00652
1.00635
1.00591
1.00521
1.00434
1.00338
1.00245
1.00158
1.00089
1.00023
0.99978
1.00651
1.00653
1.00636
1.00593
1.00523
1.00437
1.00341
1.00248
1.00161
1.00091
1.00023
0.999763
1.00652
1.00654
1.00637
1.00593
1.00524
1.00438
1.00343
1.00251
1.00163
1.00092
1.00023
0.999739
1.00653
1.00655
1.00637
1.00594
1.00524
1.00439
1.00344
1.00251
1.00163
1.00091
1.00021
0.999713
1.00654
1.00656
1.00638
1.00594
1.00524
1.00439
1.00344
1.00251
1.00162
1.0009
1.00019
0.99969
1.00655
1.00658
1.00639
1.00594
1.00524
1.00439
1.00344
1.00251
1.00162
1.0009
1.00018
0.999671
1.00656
1.00659
1.00641
1.00596
1.00525
1.0044
1.00345
1.00252
1.00163
1.0009
1.00018
0.999655
1.00658
1.00661
1.00643
1.00597
1.00526
1.00442
1.00347
1.00254
1.00165
1.00091
1.00018
0.99964
1.00659
1.00663
1.00645
1.00599
1.00528
1.00444
1.00349
1.00256
1.00166
1.00092
1.00018
0.999624
1.00661
1.00665
1.00647
1.00601
1.0053
1.00446
1.00351
1.00258
1.00167
1.00092
1.00017
0.999608
1.00662
1.00667
1.00649
1.00604
1.00533
1.00448
1.00353
1.0026
1.00169
1.00093
1.00017
0.999593
1.00664
1.00669
1.00651
1.00606
1.00535
1.0045
1.00355
1.00261
1.0017
1.00093
1.00017
0.999577
1.00665
1.0067
1.00652
1.00608
1.00537
1.00453
1.00357
1.00263
1.00171
1.00094
1.00016
0.99956
1.00667
1.00672
1.00654
1.0061
1.00539
1.00455
1.00359
1.00265
1.00172
1.00094
1.00016
0.999544
1.00668
1.00673
1.00655
1.00611
1.00541
1.00457
1.00361
1.00266
1.00173
1.00094
1.00015
0.999527
1.0067
1.00675
1.00656
1.00613
1.00543
1.00458
1.00362
1.00267
1.00174
1.00094
1.00014
0.99951
1.00672
1.00677
1.00657
1.00614
1.00544
1.0046
1.00363
1.00268
1.00174
1.00093
1.00013
0.999493
1.00674
1.00678
1.00659
1.00615
1.00545
1.00461
1.00365
1.00269
1.00174
1.00093
1.00013
0.999476
1.00676
1.0068
1.0066
1.00616
1.00546
1.00462
1.00366
1.0027
1.00175
1.00093
1.00012
0.999459
1.00678
1.00682
1.00662
1.00618
1.00547
1.00463
1.00367
1.00271
1.00175
1.00093
1.00011
0.999442
1.0068
1.00684
1.00664
1.00619
1.00549
1.00465
1.00368
1.00272
1.00176
1.00093
1.0001
0.999425
1.00683
1.00687
1.00666
1.00621
1.00551
1.00466
1.00369
1.00273
1.00176
1.00092
1.0001
0.999407
1.00685
1.00689
1.00669
1.00623
1.00552
1.00468
1.00371
1.00274
1.00177
1.00092
1.00009
0.99939
1.00688
1.00692
1.00671
1.00626
1.00554
1.0047
1.00372
1.00275
1.00177
1.00092
1.00008
0.999372
1.0069
1.00695
1.00674
1.00628
1.00557
1.00471
1.00374
1.00276
1.00177
1.00091
1.00007
0.999354
1.00693
1.00698
1.00677
1.00631
1.00559
1.00473
1.00375
1.00277
1.00178
1.00091
1.00006
0.999337
1.00696
1.00701
1.00679
1.00633
1.00561
1.00475
1.00377
1.00278
1.00178
1.0009
1.00005
0.999319
1.00699
1.00704
1.00683
1.00636
1.00563
1.00477
1.00379
1.00279
1.00179
1.0009
1.00004
0.999301
1.00702
1.00707
1.00686
1.00639
1.00566
1.0048
1.0038
1.0028
1.00179
1.0009
1.00003
0.999283
1.00705
1.0071
1.00689
1.00642
1.00569
1.00482
1.00382
1.00282
1.0018
1.0009
1.00002
0.999265
1.00708
1.00714
1.00693
1.00645
1.00572
1.00485
1.00384
1.00283
1.00181
1.00089
1.00001
0.999246
1.00711
1.00717
1.00696
1.00649
1.00575
1.00487
1.00386
1.00285
1.00181
1.00089
1
0.999226
1.00714
1.00721
1.007
1.00652
1.00578
1.0049
1.00389
1.00286
1.00182
1.00088
0.999988
0.999205
1.00718
1.00724
1.00703
1.00655
1.00581
1.00493
1.00391
1.00287
1.00182
1.00088
0.999976
0.999184
1.00721
1.00728
1.00707
1.00659
1.00584
1.00495
1.00393
1.00289
1.00183
1.00087
0.999962
0.999162
1.00725
1.00731
1.0071
1.00662
1.00587
1.00498
1.00395
1.0029
1.00183
1.00087
0.999948
0.999139
1.00729
1.00735
1.00713
1.00665
1.0059
1.005
1.00396
1.00291
1.00183
1.00086
0.999932
0.999115
1.00732
1.00739
1.00717
1.00669
1.00593
1.00503
1.00398
1.00292
1.00183
1.00085
0.999916
0.999091
1.00736
1.00742
1.00721
1.00672
1.00596
1.00505
1.004
1.00292
1.00183
1.00084
0.999899
0.999066
1.00741
1.00746
1.00724
1.00675
1.00599
1.00507
1.00401
1.00293
1.00183
1.00083
0.999882
0.99904
1.00745
1.00751
1.00728
1.00679
1.00602
1.0051
1.00403
1.00294
1.00183
1.00082
0.999864
0.999014
1.00749
1.00755
1.00732
1.00682
1.00605
1.00512
1.00405
1.00295
1.00183
1.00081
0.999845
0.998987
1.00754
1.00759
1.00737
1.00686
1.00608
1.00515
1.00407
1.00296
1.00183
1.0008
0.999826
0.998959
1.00758
1.00764
1.00741
1.0069
1.00612
1.00518
1.00409
1.00297
1.00183
1.00078
0.999806
0.998931
1.00763
1.00769
1.00746
1.00695
1.00615
1.0052
1.00411
1.00298
1.00183
1.00077
0.999785
0.998902
1.00768
1.00774
1.00751
1.00699
1.00619
1.00524
1.00413
1.00299
1.00183
1.00076
0.999765
0.998873
1.00773
1.00779
1.00756
1.00704
1.00623
1.00527
1.00415
1.003
1.00183
1.00075
0.999743
0.998844
1.00778
1.00784
1.00761
1.00709
1.00627
1.0053
1.00417
1.00301
1.00183
1.00074
0.999721
0.998813
1.00784
1.00789
1.00766
1.00713
1.00631
1.00533
1.00419
1.00302
1.00183
1.00072
0.999698
0.998782
1.00789
1.00795
1.00772
1.00718
1.00635
1.00537
1.00422
1.00303
1.00182
1.00071
0.999675
0.998751
1.00795
1.00801
1.00777
1.00724
1.0064
1.0054
1.00424
1.00304
1.00182
1.00069
0.999652
0.998718
1.008
1.00806
1.00783
1.00729
1.00644
1.00544
1.00426
1.00306
1.00182
1.00068
0.999627
0.998684
1.00806
1.00812
1.00789
1.00734
1.00649
1.00547
1.00429
1.00307
1.00182
1.00066
0.999602
0.998649
1.00812
1.00818
1.00794
1.0074
1.00654
1.00551
1.00431
1.00308
1.00182
1.00065
0.999575
0.998613
1.00818
1.00824
1.008
1.00745
1.00658
1.00555
1.00434
1.00309
1.00181
1.00063
0.999548
0.998576
1.00825
1.0083
1.00806
1.00751
1.00663
1.00558
1.00436
1.0031
1.00181
1.00061
0.999519
0.998538
1.00831
1.00836
1.00812
1.00756
1.00668
1.00562
1.00439
1.00311
1.00181
1.00059
0.99949
0.998498
1.00837
1.00843
1.00819
1.00762
1.00673
1.00566
1.00441
1.00312
1.0018
1.00058
0.999459
0.998457
1.00844
1.00849
1.00825
1.00768
1.00677
1.0057
1.00443
1.00313
1.00179
1.00056
0.999427
0.998415
1.00851
1.00856
1.00831
1.00774
1.00682
1.00573
1.00446
1.00313
1.00179
1.00053
0.999395
0.998372
1.00858
1.00863
1.00838
1.0078
1.00688
1.00577
1.00448
1.00314
1.00178
1.00051
0.999361
0.998327
1.00865
1.0087
1.00845
1.00786
1.00693
1.00581
1.00451
1.00315
1.00178
1.00049
0.999326
0.998282
1.00872
1.00877
1.00852
1.00792
1.00698
1.00585
1.00453
1.00316
1.00177
1.00047
0.99929
0.998235
1.0088
1.00885
1.00859
1.00799
1.00704
1.00589
1.00456
1.00317
1.00176
1.00045
0.999254
0.998188
1.00887
1.00892
1.00866
1.00806
1.00709
1.00594
1.00458
1.00318
1.00176
1.00042
0.999217
0.998139
1.00895
1.009
1.00874
1.00812
1.00715
1.00598
1.00461
1.00319
1.00175
1.0004
0.999179
0.998089
1.00903
1.00908
1.00881
1.0082
1.00721
1.00603
1.00464
1.0032
1.00174
1.00038
0.999139
0.998037
1.00911
1.00916
1.00889
1.00827
1.00727
1.00608
1.00467
1.00321
1.00174
1.00035
0.999099
0.997984
1.00919
1.00925
1.00898
1.00834
1.00734
1.00612
1.0047
1.00323
1.00173
1.00033
0.999057
0.997929
1.00928
1.00933
1.00906
1.00842
1.0074
1.00617
1.00473
1.00324
1.00172
1.0003
0.999015
0.997873
1.00936
1.00942
1.00914
1.0085
1.00747
1.00622
1.00477
1.00325
1.00172
1.00027
0.99897
0.997815
1.00945
1.00951
1.00923
1.00858
1.00753
1.00628
1.0048
1.00326
1.00171
1.00024
0.998924
0.997754
1.00954
1.0096
1.00932
1.00866
1.0076
1.00633
1.00483
1.00328
1.0017
1.00021
0.998877
0.997692
1.00963
1.00969
1.00941
1.00874
1.00767
1.00638
1.00487
1.00329
1.00169
1.00018
0.998828
0.997628
1.00972
1.00978
1.0095
1.00883
1.00774
1.00644
1.0049
1.0033
1.00168
1.00015
0.998776
0.997561
1.00982
1.00988
1.00959
1.00891
1.00782
1.00649
1.00494
1.00332
1.00167
1.00012
0.998724
0.997492
1.00991
1.00998
1.00968
1.009
1.00789
1.00655
1.00497
1.00333
1.00166
1.00008
0.998669
0.997421
1.01001
1.01008
1.00978
1.00909
1.00797
1.00661
1.00501
1.00334
1.00165
1.00005
0.998612
0.997347
1.01012
1.01018
1.00988
1.00918
1.00804
1.00667
1.00505
1.00335
1.00163
1.00001
0.998553
0.997271
1.01022
1.01028
1.00998
1.00927
1.00812
1.00673
1.00508
1.00337
1.00162
0.99997
0.998492
0.997194
1.01032
1.01039
1.01008
1.00937
1.0082
1.00679
1.00512
1.00338
1.00161
0.999929
0.998429
0.997113
1.01043
1.01049
1.01019
1.00946
1.00829
1.00685
1.00516
1.00339
1.00159
0.999887
0.998365
0.99703
1.01054
1.0106
1.0103
1.00956
1.00837
1.00692
1.0052
1.0034
1.00157
0.999843
0.998298
0.996944
1.01065
1.01072
1.01041
1.00966
1.00846
1.00698
1.00524
1.00341
1.00156
0.999799
0.998229
0.996857
1.01077
1.01083
1.01052
1.00977
1.00855
1.00705
1.00528
1.00343
1.00154
0.999752
0.998157
0.996766
1.01088
1.01095
1.01063
1.00987
1.00864
1.00712
1.00532
1.00344
1.00152
0.999704
0.998084
0.996673
1.011
1.01107
1.01075
1.00998
1.00873
1.00719
1.00537
1.00345
1.0015
0.999654
0.998008
0.996577
1.01112
1.01119
1.01087
1.01009
1.00883
1.00726
1.00541
1.00346
1.00148
0.999603
0.99793
0.996478
1.01125
1.01131
1.011
1.01021
1.00892
1.00733
1.00546
1.00347
1.00146
0.999549
0.99785
0.996376
1.01137
1.01144
1.01112
1.01032
1.00902
1.0074
1.0055
1.00348
1.00144
0.999494
0.997767
0.996272
1.0115
1.01157
1.01125
1.01044
1.00912
1.00748
1.00555
1.00349
1.00142
0.999437
0.997681
0.996164
1.01163
1.0117
1.01138
1.01056
1.00923
1.00756
1.00559
1.0035
1.00139
0.999378
0.997593
0.996054
1.01177
1.01184
1.01152
1.01068
1.00933
1.00763
1.00564
1.00351
1.00137
0.999316
0.997502
0.99594
1.0119
1.01198
1.01165
1.0108
1.00944
1.00771
1.00569
1.00352
1.00134
0.999253
0.997409
0.995824
1.01204
1.01212
1.01179
1.01093
1.00955
1.00779
1.00573
1.00353
1.00131
0.999187
0.997312
0.995703
1.01218
1.01226
1.01193
1.01106
1.00966
1.00787
1.00578
1.00354
1.00128
0.99912
0.997213
0.995581
1.01232
1.01241
1.01208
1.01119
1.00977
1.00795
1.00583
1.00355
1.00125
0.999049
0.997111
0.995454
1.01247
1.01256
1.01222
1.01132
1.00988
1.00803
1.00588
1.00355
1.00122
0.998977
0.997006
0.995324
1.01262
1.01271
1.01237
1.01146
1.01
1.00812
1.00593
1.00356
1.00118
0.998902
0.996898
0.99519
1.01277
1.01286
1.01252
1.0116
1.01012
1.0082
1.00598
1.00357
1.00115
0.998825
0.996787
0.995054
1.01292
1.01302
1.01268
1.01174
1.01024
1.00829
1.00603
1.00357
1.00111
0.998746
0.996672
0.994913
1.01308
1.01318
1.01284
1.01188
1.01036
1.00838
1.00608
1.00358
1.00107
0.998664
0.996555
0.99477
1.01324
1.01335
1.013
1.01203
1.01049
1.00847
1.00613
1.00358
1.00103
0.99858
0.996435
0.994622
1.0134
1.01352
1.01316
1.01218
1.01061
1.00856
1.00618
1.00358
1.00099
0.998493
0.996311
0.99447
1.01357
1.01369
1.01333
1.01233
1.01074
1.00865
1.00623
1.00359
1.00094
0.998403
0.996184
0.994315
1.01374
1.01386
1.0135
1.01248
1.01087
1.00875
1.00628
1.00359
1.0009
0.998312
0.996054
0.994156
1.01391
1.01404
1.01368
1.01264
1.01101
1.00884
1.00633
1.00359
1.00085
0.998216
0.99592
0.993992
1.01409
1.01422
1.01385
1.0128
1.01114
1.00894
1.00639
1.00359
1.0008
0.998119
0.995783
0.993826
1.01427
1.0144
1.01403
1.01297
1.01128
1.00904
1.00644
1.00359
1.00075
0.998019
0.995641
0.993654
1.01445
1.01459
1.01422
1.01314
1.01142
1.00914
1.0065
1.00359
1.0007
0.997916
0.995497
0.993478
1.01464
1.01479
1.01441
1.01331
1.01157
1.00924
1.00655
1.00359
1.00064
0.997809
0.995348
0.993298
1.01483
1.01498
1.0146
1.01348
1.01171
1.00934
1.0066
1.00359
1.00058
0.9977
0.995196
0.993114
1.01502
1.01518
1.01479
1.01366
1.01186
1.00945
1.00666
1.00359
1.00052
0.997587
0.995039
0.992924
1.01522
1.01539
1.01499
1.01384
1.01201
1.00956
1.00672
1.00358
1.00046
0.997472
0.99488
0.992731
1.01542
1.01559
1.0152
1.01403
1.01217
1.00967
1.00677
1.00358
1.0004
0.997353
0.994715
0.992532
1.01563
1.0158
1.0154
1.01421
1.01232
1.00978
1.00683
1.00357
1.00033
0.997231
0.994546
0.992329
1.01584
1.01602
1.01561
1.01441
1.01248
1.00989
1.00688
1.00357
1.00026
0.997104
0.994373
0.992121
1.01606
1.01624
1.01583
1.0146
1.01265
1.01
1.00694
1.00356
1.00019
0.996975
0.994195
0.991908
1.01627
1.01647
1.01605
1.0148
1.01281
1.01012
1.007
1.00355
1.00012
0.996842
0.994013
0.991689
1.0165
1.0167
1.01627
1.015
1.01298
1.01024
1.00706
1.00354
1.00004
0.996705
0.993827
0.991466
1.01672
1.01693
1.0165
1.01521
1.01315
1.01036
1.00711
1.00353
0.999964
0.996564
0.993635
0.991236
1.01696
1.01717
1.01673
1.01542
1.01333
1.01048
1.00717
1.00352
0.999883
0.99642
0.993439
0.991002
1.01719
1.01741
1.01697
1.01564
1.0135
1.0106
1.00723
1.0035
0.999798
0.996271
0.993237
0.990761
1.01743
1.01766
1.01721
1.01586
1.01369
1.01073
1.00729
1.00349
0.999712
0.996119
0.993031
0.990515
1.01768
1.01791
1.01746
1.01608
1.01387
1.01086
1.00735
1.00347
0.999622
0.995962
0.992819
0.990263
1.01793
1.01817
1.01771
1.01631
1.01406
1.01099
1.00741
1.00346
0.999529
0.995801
0.992602
0.990005
1.01819
1.01843
1.01797
1.01655
1.01425
1.01112
1.00747
1.00344
0.999433
0.995635
0.992379
0.98974
1.01845
1.0187
1.01823
1.01679
1.01445
1.01125
1.00753
1.00342
0.999334
0.995465
0.992152
0.98947
1.01872
1.01898
1.0185
1.01703
1.01465
1.01139
1.00759
1.00339
0.999232
0.99529
0.991917
0.989192
1.01899
1.01926
1.01877
1.01728
1.01485
1.01153
1.00765
1.00337
0.999126
0.99511
0.991678
0.988908
1.01927
1.01955
1.01905
1.01753
1.01506
1.01167
1.00771
1.00335
0.999017
0.994925
0.991431
0.988617
1.01955
1.01984
1.01934
1.01779
1.01527
1.01181
1.00778
1.00332
0.998904
0.994736
0.991179
0.988319
1.01984
1.02014
1.01963
1.01806
1.01549
1.01196
1.00784
1.00329
0.998787
0.99454
0.99092
0.988013
1.02013
1.02044
1.01993
1.01833
1.01571
1.01211
1.0079
1.00326
0.998667
0.99434
0.990655
0.987701
1.02043
1.02075
1.02023
1.01861
1.01593
1.01226
1.00796
1.00323
0.998541
0.994133
0.990383
0.98738
1.02074
1.02107
1.02054
1.01889
1.01616
1.01241
1.00802
1.00319
0.998413
0.993921
0.990104
0.987053
1.02105
1.0214
1.02086
1.01918
1.01639
1.01257
1.00809
1.00315
0.998278
0.993703
0.989817
0.986717
1.02137
1.02173
1.02118
1.01947
1.01663
1.01273
1.00815
1.00311
0.998141
0.993479
0.989524
0.986373
1.0217
1.02207
1.02151
1.01977
1.01688
1.01289
1.00821
1.00307
0.997998
0.993248
0.989222
0.98602
1.02203
1.02242
1.02185
1.02008
1.01712
1.01305
1.00827
1.00302
0.997851
0.993011
0.988914
0.98566
1.02237
1.02277
1.0222
1.02039
1.01738
1.01322
1.00834
1.00298
0.997697
0.992767
0.988597
0.98529
1.02272
1.02313
1.02255
1.02071
1.01763
1.01339
1.0084
1.00292
0.99754
0.992517
0.988273
0.984912
1.02308
1.0235
1.02291
1.02104
1.0179
1.01356
1.00846
1.00287
0.997376
0.992258
0.987939
0.984523
1.02344
1.02388
1.02328
1.02138
1.01817
1.01373
1.00852
1.00281
0.997208
0.991994
0.987597
0.984127
1.02381
1.02427
1.02366
1.02172
1.01844
1.01391
1.00858
1.00275
0.997033
0.991721
0.987246
0.983719
1.02419
1.02467
1.02405
1.02207
1.01872
1.01409
1.00864
1.00269
0.996853
0.991441
0.986887
0.983304
1.02458
1.02507
1.02444
1.02243
1.01901
1.01427
1.0087
1.00262
0.996666
0.991152
0.986517
0.982876
1.02497
1.02548
1.02485
1.0228
1.0193
1.01446
1.00876
1.00255
0.996473
0.990855
0.98614
0.98244
1.02538
1.02591
1.02526
1.02318
1.0196
1.01464
1.00882
1.00247
0.996272
0.990549
0.98575
0.981991
1.02579
1.02634
1.02569
1.02356
1.0199
1.01484
1.00888
1.00239
0.996066
0.990235
0.985353
0.981534
1.02622
1.02679
1.02612
1.02395
1.02021
1.01503
1.00893
1.0023
0.99585
0.989911
0.984943
0.981063
1.02665
1.02724
1.02657
1.02436
1.02053
1.01523
1.00899
1.00221
0.995629
0.989579
0.984524
0.980583
1.0271
1.02771
1.02702
1.02477
1.02086
1.01542
1.00904
1.00212
0.995398
0.989235
0.984093
0.980089
1.02755
1.02819
1.02749
1.02519
1.02119
1.01563
1.00909
1.00202
0.99516
0.988883
0.983651
0.979585
1.02802
1.02867
1.02797
1.02562
1.02153
1.01583
1.00914
1.00191
0.994912
0.988519
0.983197
0.979068
1.02849
1.02917
1.02846
1.02607
1.02187
1.01604
1.00919
1.0018
0.994656
0.988145
0.982732
0.978539
1.02898
1.02969
1.02896
1.02652
1.02222
1.01625
1.00923
1.00168
0.99439
0.987759
0.982254
0.977996
1.02948
1.03021
1.02948
1.02699
1.02258
1.01646
1.00928
1.00155
0.994115
0.987362
0.981764
0.977441
1.02999
1.03075
1.03
1.02746
1.02295
1.01668
1.00932
1.00142
0.993829
0.986952
0.98126
0.976871
1.03051
1.0313
1.03055
1.02795
1.02333
1.01689
1.00935
1.00128
0.993533
0.986531
0.980744
0.976288
1.03105
1.03187
1.0311
1.02845
1.02371
1.01711
1.00939
1.00113
0.993225
0.986096
0.980212
0.97569
1.0316
1.03245
1.03167
1.02896
1.0241
1.01734
1.00941
1.00097
0.992906
0.985649
0.979668
0.97508
1.03216
1.03304
1.03226
1.02949
1.0245
1.01756
1.00944
1.0008
0.992574
0.985187
0.979108
0.974452
1.03274
1.03366
1.03286
1.03003
1.02491
1.01778
1.00946
1.00063
0.992231
0.984711
0.978535
0.973811
1.03333
1.03428
1.03347
1.03058
1.02533
1.01801
1.00947
1.00044
0.991872
0.98422
0.977944
0.973153
1.03394
1.03493
1.03411
1.03114
1.02575
1.01824
1.00948
1.00024
0.991502
0.983715
0.977339
0.97248
1.03456
1.03559
1.03476
1.03172
1.02618
1.01847
1.00948
1.00003
0.991115
0.983192
0.976716
0.971789
1.0352
1.03627
1.03543
1.03232
1.02663
1.0187
1.00948
0.999813
0.990715
0.982655
0.976078
0.971083
1.03586
1.03696
1.03611
1.03293
1.02708
1.01893
1.00947
0.999579
0.990298
0.982098
0.975421
0.970358
1.03653
1.03768
1.03682
1.03356
1.02754
1.01916
1.00945
0.999332
0.989865
0.981526
0.974748
0.969617
1.03722
1.03841
1.03754
1.0342
1.02801
1.01938
1.00942
0.999069
0.989414
0.980934
0.974055
0.968857
1.03793
1.03917
1.03829
1.03486
1.02849
1.01961
1.00938
0.998792
0.988946
0.980324
0.973345
0.96808
1.03866
1.03995
1.03906
1.03554
1.02897
1.01984
1.00933
0.998498
0.988457
0.979694
0.972613
0.967282
1.0394
1.04075
1.03985
1.03624
1.02947
1.02006
1.00927
0.998187
0.98795
0.979044
0.971863
0.966466
1.04017
1.04157
1.04066
1.03695
1.02997
1.02028
1.0092
0.997857
0.987421
0.978372
0.971091
0.965629
1.04096
1.04242
1.0415
1.03769
1.03048
1.0205
1.00911
0.997509
0.986871
0.977679
0.9703
0.964773
1.04178
1.04329
1.04236
1.03844
1.03101
1.02072
1.00901
0.997139
0.986298
0.976962
0.969485
0.963894
1.04261
1.04419
1.04325
1.03921
1.03154
1.02092
1.0089
0.996749
0.985702
0.976223
0.968649
0.962996
1.04347
1.04512
1.04417
1.04001
1.03207
1.02113
1.00876
0.996334
0.985079
0.975458
0.967788
0.962075
1.04436
1.04607
1.04511
1.04082
1.03262
1.02132
1.00861
0.995895
0.984432
0.974669
0.966906
0.961133
1.04527
1.04706
1.04608
1.04166
1.03317
1.02151
1.00843
0.99543
0.983756
0.973853
0.965997
0.960166
1.0462
1.04807
1.04709
1.04252
1.03373
1.02168
1.00824
0.994938
0.983053
0.973011
0.965065
0.959178
1.04717
1.04912
1.04812
1.0434
1.0343
1.02184
1.00802
0.994415
0.982319
0.97214
0.964106
0.958165
1.04817
1.0502
1.04919
1.04431
1.03487
1.02199
1.00777
0.993863
0.981555
0.97124
0.963121
0.957128
1.04919
1.05131
1.0503
1.04524
1.03544
1.02213
1.0075
0.993276
0.980757
0.97031
0.962108
0.956065
1.05025
1.05247
1.05144
1.0462
1.03602
1.02225
1.00719
0.992656
0.979927
0.969349
0.961069
0.954978
1.05134
1.05366
1.05262
1.04718
1.0366
1.02234
1.00686
0.991997
0.979059
0.968355
0.959999
0.953864
1.05247
1.05489
1.05384
1.04818
1.03718
1.02242
1.00648
0.991301
0.978155
0.967329
0.958901
0.952725
1.05363
1.05616
1.05509
1.04921
1.03776
1.02247
1.00607
0.990562
0.977212
0.966267
0.957771
0.951557
1.05483
1.05748
1.0564
1.05027
1.03834
1.02249
1.00562
0.989781
0.976229
0.96517
0.956612
0.950362
1.05607
1.05885
1.05775
1.05135
1.03891
1.02248
1.00512
0.988952
0.975202
0.964036
0.95542
0.949139
1.05735
1.06026
1.05914
1.05246
1.03948
1.02244
1.00458
0.988075
0.974133
0.962864
0.954196
0.947887
1.05868
1.06173
1.06059
1.0536
1.04004
1.02235
1.00398
0.987146
0.973016
0.961653
0.952938
0.946605
1.06005
1.06325
1.06208
1.05475
1.04058
1.02223
1.00333
0.986163
0.971853
0.960402
0.951647
0.945295
1.06147
1.06483
1.06363
1.05594
1.0411
1.02205
1.00261
0.985122
0.970639
0.959108
0.950319
0.943953
1.06294
1.06647
1.06524
1.05714
1.04161
1.02182
1.00184
0.984021
0.969374
0.957772
0.948957
0.942581
1.06447
1.06818
1.0669
1.05837
1.04208
1.02153
1.00099
0.982856
0.968055
0.956391
0.947557
0.941176
1.06605
1.06995
1.06863
1.05962
1.04253
1.02118
1.00007
0.981624
0.966681
0.954966
0.946121
0.939741
1.06769
1.0718
1.07041
1.06089
1.04294
1.02075
0.99907
0.980322
0.965249
0.953493
0.944646
0.938272
1.06939
1.07372
1.07227
1.06217
1.0433
1.02024
0.997986
0.978947
0.963757
0.951973
0.943133
0.936771
1.07116
1.07573
1.07419
1.06347
1.04361
1.01965
0.996811
0.977493
0.962203
0.950403
0.94158
0.935235
1.073
1.07782
1.07618
1.06477
1.04386
1.01896
0.99554
0.97596
0.960587
0.948784
0.939988
0.933666
1.07492
1.08
1.07824
1.06608
1.04404
1.01816
0.994165
0.974343
0.958904
0.947113
0.938353
0.932061
1.07691
1.08229
1.08038
1.06738
1.04414
1.01724
0.992682
0.972638
0.957154
0.945391
0.936679
0.930422
1.07898
1.08468
1.08259
1.06867
1.04415
1.0162
0.991082
0.970842
0.955334
0.943614
0.934962
0.928747
1.08115
1.08718
1.08488
1.06994
1.04404
1.01502
0.98936
0.968951
0.953444
0.941784
0.933203
0.927036
1.08341
1.0898
1.08725
1.07118
1.04381
1.01369
0.987508
0.966963
0.951481
0.939898
0.9314
0.925289
1.08577
1.09255
1.08969
1.07238
1.04344
1.0122
0.98552
0.964874
0.949444
0.937958
0.929554
0.923506
1.08823
1.09544
1.09221
1.07351
1.04292
1.01053
0.983389
0.962681
0.947332
0.935959
0.927664
0.921686
1.09082
1.09847
1.0948
1.07458
1.04221
1.00866
0.981108
0.960383
0.945143
0.933905
0.925731
0.91983
1.09353
1.10166
1.09746
1.07555
1.0413
1.0066
0.978671
0.957975
0.942876
0.931793
0.923752
0.917938
1.09638
1.10501
1.10017
1.0764
1.04016
1.00431
0.976073
0.955458
0.940532
0.929624
0.92173
0.916011
1.09937
1.10854
1.10294
1.0771
1.03877
1.00178
0.973307
0.952828
0.938109
0.927396
0.919662
0.914047
1.10252
1.11226
1.10575
1.07763
1.0371
0.999006
0.97037
0.950086
0.935607
0.925112
0.917551
0.912048
1.10584
1.11618
1.10858
1.07795
1.03511
0.995963
0.967256
0.94723
0.933026
0.92277
0.915396
0.910013
1.10936
1.1203
1.11142
1.07801
1.03278
0.992641
0.963965
0.944261
0.930368
0.920372
0.913198
0.907944
1.11308
1.12465
1.11423
1.07777
1.03006
0.989024
0.960494
0.94118
0.927632
0.917917
0.910956
0.905839
1.11702
1.12922
1.11699
1.07719
1.02692
0.985103
0.956843
0.93799
0.92482
0.915408
0.908673
0.903702
1.12122
1.13403
1.11966
1.07619
1.02332
0.980867
0.953015
0.934691
0.921934
0.912845
0.906348
0.90153
1.12569
1.13908
1.12218
1.07472
1.01923
0.97631
0.949014
0.931287
0.918975
0.910231
0.903983
0.899326
1.13047
1.14436
1.12449
1.0727
1.01461
0.971428
0.944844
0.927783
0.915947
0.907566
0.901578
0.897089
1.13559
1.14989
1.12653
1.07006
1.00943
0.966222
0.940516
0.924184
0.912851
0.904855
0.899137
0.894821
1.14108
1.15563
1.12821
1.0667
1.00364
0.960698
0.936038
0.920494
0.909692
0.902098
0.896659
0.892522
1.147
1.16157
1.12943
1.06255
0.997226
0.954867
0.931424
0.916721
0.906474
0.8993
0.894147
0.890194
1.15338
1.16767
1.13006
1.05749
0.990168
0.948749
0.92669
0.91287
0.9032
0.896463
0.891603
0.887836
1.16029
1.17388
1.12997
1.05144
0.982452
0.942369
0.921852
0.90895
0.899876
0.893594
0.889029
0.88545
1.16778
1.18013
1.129
1.04429
0.974083
0.93576
0.91693
0.904969
0.896508
0.890694
0.886428
0.883035
1.17592
1.18632
1.12697
1.03595
0.965078
0.928964
0.911942
0.900933
0.893101
0.887771
0.883802
0.880594
1.18477
1.19232
1.12367
1.02633
0.955476
0.922031
0.906911
0.896852
0.889664
0.88483
0.881154
0.878123
1.19442
1.19795
1.11886
1.01536
0.945335
0.915017
0.901855
0.892733
0.886204
0.881879
0.878488
0.875624
1.20493
1.203
1.11231
1.003
0.934742
0.907982
0.896794
0.888586
0.882732
0.878925
0.875804
0.873094
1.21637
1.20719
1.10374
0.989235
0.92381
0.90099
0.891744
0.88442
0.879259
0.875977
0.873109
0.870531
1.22879
1.21018
1.09288
0.974098
0.912681
0.894106
0.88672
0.880245
0.875799
0.873046
0.870403
0.867926
1.24225
1.21152
1.07945
0.957691
0.901519
0.887386
0.881731
0.876074
0.872368
0.870145
0.867692
0.865275
1.25673
1.21069
1.06318
0.940195
0.890512
0.88088
0.876786
0.871921
0.868985
0.867281
0.864966
0.862557
1.27218
1.20704
1.04386
0.921881
0.879847
0.874613
0.871883
0.867808
0.865687
0.864501
0.862258
0.859788
1.28843
1.19978
1.02134
0.903139
0.86973
0.86862
0.867026
0.863725
0.86243
0.861706
0.859447
0.856881
1.30519
1.18797
0.995653
0.884412
0.860249
0.862858
0.862293
0.859899
0.859556
0.859282
0.85686
0.854063
1.32197
1.1705
0.967145
0.866466
0.851663
0.857121
0.857157
0.855567
0.856131
0.856316
0.853705
0.850809
1.33781
1.146
0.93623
0.849469
0.844442
0.852774
0.853611
0.852956
0.854192
0.854318
0.850955
0.847659
1.3516
1.11364
0.905778
0.833315
0.83529
0.845291
0.847211
0.848316
0.851087
0.851564
0.847575
0.843923
1.35979
1.06935
0.880377
0.827069
0.8346
0.843837
0.844911
0.846418
0.849892
0.850267
0.845601
0.841741
1.36349
0.999535
0.832126
0.803706
0.823947
0.838313
0.841888
0.845111
0.849589
0.850165
0.845467
0.841703
0.997858
0.9987
0.999446
0.999445
0.999057
0.998736
0.998623
0.998618
0.998574
0.998437
0.998253
0.998109
0.998327
0.998843
0.999383
0.999376
0.999046
0.998755
0.998635
0.998609
0.998558
0.998431
0.998264
0.998134
0.998608
0.998803
0.999174
0.999225
0.999004
0.998762
0.998628
0.998573
0.998515
0.99841
0.998274
0.998165
0.99867
0.998722
0.99903
0.999154
0.999021
0.998804
0.998641
0.998553
0.998493
0.998414
0.998308
0.998219
0.998696
0.998707
0.998976
0.999121
0.999021
0.998806
0.998622
0.99852
0.998468
0.998416
0.998338
0.998262
0.998761
0.998745
0.998955
0.999077
0.998985
0.998782
0.998603
0.998508
0.99847
0.998436
0.998374
0.998304
0.99884
0.998787
0.998929
0.999017
0.998937
0.998761
0.998605
0.99852
0.998485
0.998455
0.998398
0.99833
0.998898
0.998809
0.998894
0.99896
0.998899
0.998757
0.998621
0.998539
0.998499
0.998464
0.998408
0.998342
0.998928
0.998815
0.998865
0.998921
0.998879
0.998761
0.998638
0.998553
0.998504
0.998464
0.998411
0.99835
0.998941
0.998821
0.998852
0.998901
0.998868
0.998764
0.998648
0.99856
0.998505
0.998462
0.998412
0.998356
0.998956
0.998835
0.998852
0.99889
0.998858
0.998762
0.998651
0.998563
0.998504
0.99846
0.99841
0.998357
0.998976
0.998856
0.998857
0.998881
0.998847
0.998756
0.99865
0.998563
0.998502
0.998455
0.998406
0.998356
0.998999
0.998876
0.998862
0.998871
0.998834
0.998748
0.998647
0.998561
0.998498
0.998449
0.998401
0.998353
0.999018
0.998891
0.998864
0.998862
0.998821
0.998738
0.998641
0.998556
0.998491
0.998441
0.998394
0.998349
0.999031
0.998902
0.998864
0.998852
0.998808
0.998727
0.998633
0.998549
0.998483
0.998433
0.998387
0.998344
0.999039
0.998909
0.998863
0.998842
0.998795
0.998714
0.998622
0.998539
0.998474
0.998424
0.998378
0.998337
0.999043
0.998913
0.99886
0.998832
0.998781
0.998701
0.99861
0.998529
0.998465
0.998414
0.998369
0.998329
0.999044
0.998914
0.998855
0.99882
0.998766
0.998686
0.998598
0.998518
0.998454
0.998403
0.998358
0.998319
0.999043
0.998913
0.998848
0.998808
0.998752
0.998672
0.998585
0.998506
0.998442
0.998391
0.998347
0.998309
0.999038
0.998908
0.99884
0.998796
0.998738
0.998658
0.998572
0.998493
0.998429
0.998378
0.998334
0.998298
0.999031
0.998903
0.998832
0.998785
0.998724
0.998644
0.998557
0.998479
0.998415
0.998364
0.998322
0.998288
0.999023
0.998896
0.998823
0.998773
0.99871
0.998629
0.998542
0.998464
0.9984
0.998351
0.998309
0.998278
0.999014
0.998888
0.998814
0.99876
0.998695
0.998613
0.998526
0.998448
0.998385
0.998337
0.998297
0.998267
0.999004
0.998879
0.998803
0.998747
0.998679
0.998597
0.99851
0.998433
0.998371
0.998323
0.998285
0.998257
0.998994
0.998869
0.998792
0.998733
0.998664
0.99858
0.998494
0.998418
0.998357
0.99831
0.998273
0.998246
0.998983
0.998858
0.998779
0.998718
0.998647
0.998564
0.998478
0.998403
0.998342
0.998297
0.99826
0.998234
0.998971
0.998846
0.998765
0.998702
0.998631
0.998547
0.998462
0.998388
0.998328
0.998283
0.998246
0.998221
0.998957
0.998833
0.998751
0.998686
0.998614
0.998531
0.998447
0.998373
0.998313
0.998268
0.998232
0.998206
0.998943
0.998819
0.998735
0.99867
0.998597
0.998515
0.998431
0.998357
0.998298
0.998252
0.998216
0.998191
0.998929
0.998804
0.99872
0.998653
0.99858
0.998498
0.998415
0.99834
0.998281
0.998235
0.998199
0.998174
0.998914
0.998789
0.998703
0.998635
0.998563
0.99848
0.998397
0.998323
0.998263
0.998217
0.998181
0.998157
0.998899
0.998773
0.998687
0.998617
0.998544
0.998462
0.998378
0.998304
0.998243
0.998197
0.998162
0.998139
0.998883
0.998757
0.998669
0.998598
0.998525
0.998442
0.998358
0.998283
0.998222
0.998177
0.998142
0.998121
0.998867
0.99874
0.99865
0.998578
0.998504
0.998421
0.998337
0.998261
0.9982
0.998155
0.998122
0.998102
0.998851
0.998723
0.998631
0.998557
0.998482
0.998398
0.998314
0.998238
0.998177
0.998133
0.998101
0.998083
0.998833
0.998704
0.998609
0.998534
0.998458
0.998374
0.998289
0.998213
0.998153
0.99811
0.998079
0.998063
0.998814
0.998683
0.998587
0.998511
0.998434
0.998349
0.998264
0.998188
0.998128
0.998086
0.998057
0.998043
0.998794
0.998662
0.998564
0.998486
0.998408
0.998324
0.998238
0.998161
0.998102
0.998061
0.998034
0.998022
0.998773
0.998639
0.998539
0.99846
0.998382
0.998297
0.998211
0.998134
0.998075
0.998036
0.99801
0.998001
0.99875
0.998615
0.998514
0.998434
0.998355
0.99827
0.998183
0.998106
0.998048
0.99801
0.997986
0.997979
0.998727
0.99859
0.998488
0.998408
0.998328
0.998242
0.998154
0.998077
0.998019
0.997983
0.997961
0.997956
0.998702
0.998565
0.998462
0.998381
0.998301
0.998213
0.998125
0.998047
0.99799
0.997955
0.997935
0.997933
0.998677
0.998539
0.998436
0.998354
0.998273
0.998184
0.998095
0.998017
0.99796
0.997926
0.997908
0.997909
0.998652
0.998513
0.998409
0.998327
0.998244
0.998155
0.998064
0.997986
0.997929
0.997897
0.997881