/*--------------------------------*- C++ -*----------------------------------*\
  =========                 |
  \\      /  F ield         | OpenFOAM: The Open Source CFD Toolbox
   \\    /   O peration     | Website:  https://openfoam.org
    \\  /    A nd           | Version:  6.0
     \\/     M anipulation  |
\*---------------------------------------------------------------------------*/
FoamFile
{
    version     2.0;
    format      ascii;
    class       surfaceScalarField;
    location    "4.9";
    object      phi;
}
// * * * * * * * * * * * * * * * * * * * * * * * * * * * * * * * * * * * * * //

dimensions      [0 3 -1 0 0 0 0];

internalField   nonuniform List<scalar> 
47678
(
2.98119e-05
0.00388594
1.68707e-09
5.98452e-05
0.00381846
8.9111e-05
0.00368585
0.000116959
0.00349007
0.000142851
0.00323445
0.000166312
0.00292348
0.000186916
0.00256265
0.000204298
0.00215819
0.000218148
0.00171716
0.000228224
0.00124693
0.000234338
0.000755979
0.000254966
0.000236719
2.9619e-05
0.00385632
5.35195e-09
5.94621e-05
0.00378862
8.85431e-05
0.00365677
0.000116215
0.0034624
0.000141943
0.00320873
0.000165254
0.00290017
0.000185726
0.00254217
0.000202997
0.00214091
0.00021676
0.00170339
0.000226768
0.00123692
0.000232913
0.000749828
0.000252485
0.000235386
2.94273e-05
0.00382688
9.03217e-09
5.90816e-05
0.00375896
8.79794e-05
0.00362787
0.000115477
0.0034349
0.000141043
0.00318316
0.000164206
0.00287701
0.000184548
0.00252183
0.000201708
0.00212375
0.000215384
0.00168972
0.000225321
0.00122699
0.000231437
0.000743713
0.000250034
0.000233895
2.9237e-05
0.00379763
1.25786e-08
5.8704e-05
0.0037295
8.74198e-05
0.00359916
0.000114745
0.00340758
0.000140149
0.00315776
0.000163165
0.00285399
0.000183377
0.00250162
0.000200427
0.0021067
0.000214016
0.00167613
0.000223885
0.00121711
0.000229949
0.000737645
0.000247617
0.00023236
2.90484e-05
0.00376857
1.59501e-08
5.83294e-05
0.00370022
8.68641e-05
0.00357063
0.000114017
0.00338043
0.000139261
0.00313251
0.00016213
0.00283112
0.000182213
0.00248154
0.000199154
0.00208976
0.000212657
0.00166262
0.000222461
0.00120731
0.000228472
0.000731636
0.000245267
0.000230828
2.88614e-05
0.00373969
1.90963e-08
5.79577e-05
0.00367112
8.63122e-05
0.00354227
0.000113293
0.00335345
0.000138378
0.00310743
0.000161102
0.0028084
0.000181056
0.00246158
0.000197888
0.00207293
0.000211306
0.0016492
0.000221049
0.00119757
0.00022701
0.000725671
0.000242961
0.000229311
2.86759e-05
0.00371099
2.19794e-08
5.75887e-05
0.00364221
8.5764e-05
0.0035141
0.000112574
0.00332664
0.0001375
0.00308251
0.000160079
0.00278582
0.000179907
0.00244175
0.000196631
0.0020562
0.000209964
0.00163587
0.000219647
0.00118788
0.000225564
0.000719757
0.000240718
0.000227812
2.84919e-05
0.00368248
2.45683e-08
5.72222e-05
0.00361348
8.52194e-05
0.0034861
0.00011186
0.0033
0.000136627
0.00305774
0.000159063
0.00276339
0.000178764
0.00242205
0.000195381
0.00203959
0.00020863
0.00162262
0.000218255
0.00117826
0.000224131
0.000713878
0.000238508
0.000226335
2.83093e-05
0.00365414
2.68236e-08
5.68583e-05
0.00358493
8.46784e-05
0.00345828
0.000111151
0.00327352
0.00013576
0.00303313
0.000158053
0.00274109
0.000177628
0.00240248
0.000194139
0.00202308
0.000207304
0.00160946
0.000216872
0.00116869
0.00022271
0.000708043
0.000236343
0.000224879
2.81281e-05
0.00362599
2.87166e-08
5.64968e-05
0.00355656
8.41409e-05
0.00343064
0.000110445
0.00324722
0.000134899
0.00300868
0.00015705
0.00271894
0.0001765
0.00238303
0.000192905
0.00200667
0.000205986
0.00159638
0.000215497
0.00115918
0.0002213
0.000702238
0.000234196
0.000223441
2.79483e-05
0.00359801
3.02249e-08
5.61376e-05
0.00352837
8.36067e-05
0.00340317
0.000109744
0.00322108
0.000134043
0.00298438
0.000156052
0.00269693
0.000175378
0.0023637
0.000191678
0.00199037
0.000204676
0.00158338
0.000214131
0.00114972
0.000219899
0.000696473
0.000232085
0.000222016
2.77698e-05
0.00357021
3.13562e-08
5.57809e-05
0.00350036
8.3076e-05
0.00337588
0.000109048
0.00319511
0.000133192
0.00296023
0.000155061
0.00267506
0.000174264
0.0023445
0.00019046
0.00197417
0.000203375
0.00157046
0.000212774
0.00114032
0.000218508
0.000690735
0.000229988
0.0002206
2.75925e-05
0.00354258
3.21338e-08
5.54264e-05
0.00347253
8.25485e-05
0.00334876
0.000108356
0.0031693
0.000132346
0.00293624
0.000154076
0.00265333
0.000173156
0.00232542
0.000189249
0.00195808
0.000202082
0.00155763
0.000211424
0.00113098
0.000217126
0.000685036
0.000227924
0.000219194
2.74165e-05
0.00351513
3.26006e-08
5.50742e-05
0.00344487
8.20243e-05
0.00332181
0.000107668
0.00314366
0.000131505
0.00291241
0.000153097
0.00263174
0.000172056
0.00230646
0.000188046
0.00194209
0.000200797
0.00154488
0.000210083
0.0011217
0.000215751
0.000679366
0.000225873
0.000217798
2.72418e-05
0.00348786
3.28124e-08
5.47242e-05
0.00341739
8.15034e-05
0.00329503
0.000106984
0.00311818
0.00013067
0.00288872
0.000152124
0.00261029
0.000170962
0.00228762
0.00018685
0.0019262
0.00019952
0.00153221
0.000208749
0.00111247
0.000214385
0.000673733
0.000223853
0.000216411
2.70682e-05
0.00346076
3.28279e-08
5.43765e-05
0.00339008
8.09858e-05
0.00326842
0.000106305
0.00309286
0.00012984
0.00286519
0.000151157
0.00258897
0.000169875
0.00226891
0.000185662
0.00191042
0.000198252
0.00151962
0.000207424
0.0011033
0.000213026
0.000668129
0.000221842
0.000215034
2.68958e-05
0.00343383
3.27008e-08
5.4031e-05
0.00336295
8.04713e-05
0.00324198
0.000105629
0.0030677
0.000129014
0.0028418
0.000150196
0.00256779
0.000168794
0.00225031
0.000184482
0.00189473
0.000196991
0.00150711
0.000206107
0.00109418
0.000211676
0.000662563
0.00021986
0.000213666
2.67246e-05
0.00340708
3.2476e-08
5.36876e-05
0.00333599
7.99601e-05
0.00321571
0.000104958
0.00304271
0.000128194
0.00281857
0.000149241
0.00254674
0.000167721
0.00223183
0.000183309
0.00187914
0.000195739
0.00149468
0.000204799
0.00108512
0.000210334
0.000657026
0.000217885
0.000212307
2.65545e-05
0.00338049
3.21826e-08
5.33465e-05
0.00330919
7.9452e-05
0.0031896
0.000104291
0.00301787
0.000127379
0.00279548
0.000148292
0.00252583
0.000166654
0.00221347
0.000182143
0.00186365
0.000194494
0.00148233
0.000203498
0.00107612
0.000209
0.000651527
0.000215937
0.000210957
2.63856e-05
0.00335407
3.18367e-08
5.30075e-05
0.00328257
7.8947e-05
0.00316366
0.000103628
0.00299319
0.000126569
0.00277254
0.000147348
0.00250505
0.000165594
0.00219522
0.000180985
0.00184826
0.000193258
0.00147005
0.000202206
0.00106717
0.000207675
0.000646056
0.000213994
0.000209616
2.62178e-05
0.00332782
3.14446e-08
5.26705e-05
0.00325612
7.84452e-05
0.00313789
0.000102969
0.00296866
0.000125764
0.00274974
0.000146411
0.0024844
0.000164541
0.00217709
0.000179834
0.00183297
0.000192029
0.00145786
0.000200922
0.00105828
0.000206357
0.000640623
0.000212077
0.000208284
2.6051e-05
0.00330174
3.1011e-08
5.23357e-05
0.00322984
7.79465e-05
0.00311228
0.000102314
0.0029443
0.000124964
0.00272709
0.000145479
0.00246389
0.000163494
0.00215908
0.00017869
0.00181777
0.000190809
0.00144574
0.000199646
0.00104944
0.000205048
0.000635219
0.000210164
0.00020696
2.58853e-05
0.00327583
3.05465e-08
5.20029e-05
0.00320372
7.74508e-05
0.00308683
0.000101663
0.00292008
0.000124169
0.00270458
0.000144554
0.0024435
0.000162454
0.00214118
0.000177554
0.00180267
0.000189596
0.0014337
0.000198378
0.00104066
0.000203748
0.000629852
0.000208275
0.000205646
2.57206e-05
0.00325008
3.00771e-08
5.16722e-05
0.00317777
7.69581e-05
0.00306155
0.000101016
0.00289603
0.000123379
0.00268222
0.000143634
0.00242325
0.00016142
0.00212339
0.000176425
0.00178767
0.000188391
0.00142173
0.000197119
0.00103193
0.000202455
0.000624514
0.000206389
0.00020434
2.55569e-05
0.00322449
2.96457e-08
5.13435e-05
0.00315198
7.64685e-05
0.00303642
0.000100373
0.00287212
0.000122593
0.00266
0.00014272
0.00240312
0.000160393
0.00210572
0.000175304
0.00177276
0.000187194
0.00140984
0.000195867
0.00102326
0.000201171
0.000619212
0.000204526
0.000203042
2.53943e-05
0.00319907
2.93128e-08
5.10168e-05
0.00312636
7.59819e-05
0.00301146
9.97345e-05
0.00284837
0.000121813
0.00263793
0.000141811
0.00238312
0.000159373
0.00208816
0.000174189
0.00175794
0.000186005
0.00139803
0.000194624
0.00101464
0.000199895
0.000613939
0.000202666
0.000201753
2.52326e-05
0.0031738
2.91475e-08
5.0692e-05
0.0031009
7.54982e-05
0.00298665
9.90996e-05
0.00282477
0.000121037
0.00261599
0.000140909
0.00236325
0.000158359
0.00207071
0.000173082
0.00174322
0.000184823
0.00138629
0.000193388
0.00100608
0.000198627
0.000608703
0.000200829
0.000200472
2.50719e-05
0.0031487
2.92189e-08
5.03692e-05
0.0030756
7.50175e-05
0.002962
9.84685e-05
0.00280132
0.000120267
0.00259419
0.000140012
0.00234351
0.000157352
0.00205337
0.000171982
0.00172859
0.000183649
0.00137462
0.000192161
0.000997566
0.000197367
0.000603495
0.000198994
0.000199199
2.49121e-05
0.00312376
2.95818e-08
5.00484e-05
0.00305046
7.45397e-05
0.00293751
9.78413e-05
0.00277801
0.000119501
0.00257253
0.000139121
0.00232389
0.000156351
0.00203614
0.000170888
0.00171405
0.000182483
0.00136302
0.000190941
0.000989109
0.000196116
0.000598323
0.000197181
0.000197935
2.47533e-05
0.00309898
3.02688e-08
4.97296e-05
0.00302549
7.40648e-05
0.00291318
9.72181e-05
0.00275486
0.00011874
0.00255101
0.000138235
0.00230439
0.000155356
0.00201902
0.000169802
0.00169961
0.000181324
0.0013515
0.000189729
0.000980703
0.000194872
0.000593179
0.00019537
0.000196679
2.45953e-05
0.00307435
3.12834e-08
4.94126e-05
0.00300067
7.35928e-05
0.002889
9.65987e-05
0.00273185
0.000117984
0.00252962
0.000137355
0.00228502
0.000154368
0.002002
0.000168723
0.00168525
0.000180172
0.00134005
0.000188525
0.000972352
0.000193636
0.000588071
0.000193581
0.000195431
2.44383e-05
0.00304988
3.26014e-08
4.90976e-05
0.00297601
7.31238e-05
0.00286497
9.59832e-05
0.002709
0.000117232
0.00250837
0.000136481
0.00226577
0.000153386
0.0019851
0.000167651
0.00167099
0.000179028
0.00132868
0.000187329
0.00096405
0.000192408
0.00058299
0.000191795
0.000194191
2.42822e-05
0.00302557
3.41761e-08
4.87844e-05
0.00295151
7.26576e-05
0.0028411
9.53715e-05
0.00268628
0.000116485
0.00248726
0.000135612
0.00224664
0.00015241
0.0019683
0.000166585
0.00165681
0.000177891
0.00131737
0.00018614
0.000955803
0.000191188
0.000577945
0.00019003
0.000192959
2.41269e-05
0.0030014
3.59486e-08
4.84731e-05
0.00292716
7.21943e-05
0.00281738
9.47636e-05
0.00266371
0.000115743
0.00246628
0.000134749
0.00222764
0.000151441
0.00195161
0.000165527
0.00164273
0.000176762
0.00130614
0.000184959
0.000947605
0.000189976
0.000572927
0.000188268
0.000191735
2.39725e-05
0.00297739
3.78579e-08
4.81637e-05
0.00290297
7.17339e-05
0.00279381
9.41596e-05
0.00264129
0.000115006
0.00244543
0.000133891
0.00220875
0.000150478
0.00193502
0.000164475
0.00162873
0.00017564
0.00129497
0.000183786
0.00093946
0.000188772
0.000567944
0.000186526
0.000190518
2.3819e-05
0.00295354
3.9851e-08
4.78562e-05
0.00287894
7.12763e-05
0.00277039
9.35593e-05
0.002619
0.000114273
0.00242472
0.000133039
0.00218999
0.000149521
0.00191854
0.00016343
0.00161482
0.000174525
0.00128388
0.00018262
0.000931364
0.000187575
0.000562989
0.000184789
0.00018931
2.36663e-05
0.00292983
4.18882e-08
4.75505e-05
0.00285505
7.08215e-05
0.00274711
9.29628e-05
0.00259686
0.000113545
0.00240414
0.000132192
0.00217134
0.00014857
0.00190216
0.000162392
0.001601
0.000173417
0.00127285
0.000181462
0.000923321
0.000186386
0.000558068
0.000183072
0.000188109
2.35145e-05
0.00290627
4.39454e-08
4.72467e-05
0.00283132
7.03695e-05
0.00272399
9.23701e-05
0.00257486
0.000112822
0.00238369
0.000131351
0.00215281
0.000147625
0.00188589
0.00016136
0.00158727
0.000172316
0.0012619
0.000180311
0.000915326
0.000185204
0.000553174
0.000181358
0.000186916
2.33636e-05
0.00288286
4.60119e-08
4.69448e-05
0.00280774
6.99204e-05
0.00270102
9.17811e-05
0.002553
0.000112103
0.00236336
0.000130515
0.0021344
0.000146687
0.00186972
0.000160335
0.00157362
0.000171223
0.00125101
0.000179167
0.000907383
0.00018403
0.000548314
0.000179664
0.000185731
2.32135e-05
0.0028596
4.80859e-08
4.66446e-05
0.00278431
6.9474e-05
0.00267819
9.11958e-05
0.00253128
0.000111389
0.00234317
0.000129684
0.00211611
0.000145754
0.00185365
0.000159317
0.00156006
0.000170136
0.00124019
0.000178031
0.000899488
0.000182864
0.000543481
0.000177973
0.000184554
2.30643e-05
0.00283648
5.01685e-08
4.63463e-05
0.00276102
6.90304e-05
0.0026555
9.06142e-05
0.00250969
0.000110679
0.0023231
0.000128859
0.00209793
0.000144827
0.00183768
0.000158305
0.00154658
0.000169057
0.00122944
0.000176902
0.000891644
0.000181705
0.000538682
0.000176302
0.000183384
2.29159e-05
0.00281352
5.22583e-08
4.60498e-05
0.00273789
6.85896e-05
0.00263296
9.00362e-05
0.00248825
0.000109974
0.00230317
0.000128039
0.00207986
0.000143907
0.00182181
0.0001573
0.00153319
0.000167984
0.00121875
0.000175781
0.000883847
0.000180553
0.000533908
0.000174633
0.000182222
2.27683e-05
0.00279069
5.43481e-08
4.57551e-05
0.0027149
6.81516e-05
0.00261057
8.9462e-05
0.00246694
0.000109274
0.00228335
0.000127224
0.00206191
0.000142992
0.00180605
0.000156301
0.00151988
0.000166918
0.00120814
0.000174666
0.000876101
0.000179409
0.000529169
0.000172984
0.000181067
2.26217e-05
0.00276802
5.6423e-08
4.54622e-05
0.00269206
6.77162e-05
0.00258831
8.88913e-05
0.00244576
0.000108578
0.00226367
0.000126414
0.00204408
0.000142083
0.00179038
0.000155308
0.00150665
0.000165859
0.00119759
0.000173559
0.000868401
0.000178272
0.000524455
0.000171337
0.000179919
2.24758e-05
0.00274548
5.84615e-08
4.51711e-05
0.00266937
6.72836e-05
0.0025662
8.83243e-05
0.00242472
0.000107886
0.0022441
0.00012561
0.00202635
0.00014118
0.00177481
0.000154322
0.00149351
0.000164807
0.0011871
0.000172458
0.000860752
0.000177142
0.000519775
0.000169708
0.000178779
2.23309e-05
0.00272309
6.04374e-08
4.48818e-05
0.00264682
6.68537e-05
0.00254423
8.77608e-05
0.00240381
0.000107198
0.00222467
0.000124811
0.00200874
0.000140282
0.00175934
0.000153342
0.00148045
0.000163762
0.00117668
0.000171365
0.000853148
0.00017602
0.00051512
0.000168082
0.000177646
2.21867e-05
0.00270084
6.23243e-08
4.45942e-05
0.00262441
6.64266e-05
0.0025224
8.72009e-05
0.00238304
0.000106516
0.00220535
0.000124017
0.00199124
0.000139391
0.00174396
0.000152369
0.00146747
0.000162723
0.00116633
0.000170279
0.000845594
0.000174904
0.000510498
0.000166474
0.000176521
2.20435e-05
0.00267873
6.40984e-08
4.43085e-05
0.00260215
6.60021e-05
0.0025007
8.66446e-05
0.00236239
0.000105837
0.00218616
0.000123228
0.00197385
0.000138505
0.00172869
0.000151401
0.00145458
0.000161691
0.00115604
0.000169199
0.000838085
0.000173796
0.000505902
0.000164868
0.000175402
2.19011e-05
0.00265677
6.57421e-08
4.40245e-05
0.00258002
6.55803e-05
0.00247915
8.60919e-05
0.00234188
0.000105163
0.00216709
0.000122444
0.00195657
0.000137625
0.0017135
0.00015044
0.00144176
0.000160665
0.00114581
0.000168127
0.000830625
0.000172695
0.000501338
0.00016328
0.000174291
2.17596e-05
0.00263494
6.72456e-08
4.37424e-05
0.00255804
6.51611e-05
0.00245773
8.55426e-05
0.0023215
0.000104493
0.00214814
0.000121665
0.00193939
0.00013675
0.00169842
0.000149485
0.00142903
0.000159646
0.00113565
0.000167062
0.00082321
0.000171601
0.000496799
0.000161694
0.000173186
2.1619e-05
0.00261325
6.86072e-08
4.34619e-05
0.00253619
6.47446e-05
0.00243644
8.49969e-05
0.00230125
0.000103827
0.00212931
0.000120891
0.00192233
0.000135881
0.00168343
0.000148537
0.00141637
0.000158634
0.00112556
0.000166003
0.000815843
0.000170513
0.000492292
0.000160126
0.000172089
2.14793e-05
0.0025917
6.9832e-08
4.31833e-05
0.00251449
6.43308e-05
0.0024153
8.44546e-05
0.00228112
0.000103166
0.0021106
0.000120122
0.00190537
0.000135018
0.00166853
0.000147594
0.0014038
0.000157628
0.00111552
0.000164951
0.00080852
0.000169433
0.000487809
0.000158561
0.000170999
2.13405e-05
0.00257029
7.093e-08
4.29064e-05
0.00249292
6.39196e-05
0.00239428
8.39159e-05
0.00226113
0.000102509
0.002092
0.000119358
0.00188852
0.00013416
0.00165373
0.000146657
0.0013913
0.000156629
0.00110555
0.000163906
0.000801245
0.00016836
0.000483358
0.000157012
0.000169915
2.12025e-05
0.00254902
7.19125e-08
4.26313e-05
0.0024715
6.35111e-05
0.0023734
8.33806e-05
0.00224126
0.000101856
0.00207353
0.000118598
0.00187178
0.000133308
0.00163902
0.000145727
0.00137888
0.000155636
0.00109564
0.000162867
0.000794013
0.000167293
0.000478932
0.000155467
0.000168838
2.10654e-05
0.00252788
7.27906e-08
4.2358e-05
0.0024502
6.31051e-05
0.00235266
8.28487e-05
0.00222151
0.000101207
0.00205517
0.000117844
0.00185514
0.000132461
0.0016244
0.000144802
0.00136654
0.000154649
0.0010858
0.000161835
0.000786829
0.000166234
0.000474536
0.000153937
0.000167769
2.09293e-05
0.00250688
7.35732e-08
4.20864e-05
0.00242905
6.27018e-05
0.00233204
8.23202e-05
0.00220189
0.000100563
0.00203693
0.000117095
0.00183861
0.00013162
0.00160988
0.000143883
0.00135428
0.000153668
0.00107601
0.00016081
0.000779688
0.000165181
0.000470165
0.000152412
0.000166706
2.0794e-05
0.00248601
7.42669e-08
4.18166e-05
0.00240802
6.23011e-05
0.00231156
8.17952e-05
0.0021824
9.99223e-05
0.0020188
0.00011635
0.00182218
0.000130784
0.00159544
0.00014297
0.0013421
0.000152694
0.00106629
0.000159791
0.000772593
0.000164135
0.000465824
0.000150904
0.00016565
2.06597e-05
0.00246527
7.4877e-08
4.15485e-05
0.00238713
6.1903e-05
0.0022912
8.12736e-05
0.00216303
9.9286e-05
0.00200079
0.00011561
0.00180586
0.000129953
0.0015811
0.000142063
0.00132999
0.000151726
0.00105662
0.000158778
0.000765541
0.000163095
0.000461508
0.000149399
0.0001646
2.05262e-05
0.00244467
7.54099e-08
4.12821e-05
0.00236638
6.15074e-05
0.00227098
8.07553e-05
0.00214378
9.86539e-05
0.00198289
0.000114875
0.00178964
0.000129128
0.00156685
0.000141162
0.00131795
0.000150765
0.00104702
0.000157773
0.000758534
0.000162062
0.000457221
0.00014791
0.000163558
2.03936e-05
0.0024242
7.58753e-08
4.10175e-05
0.00234575
6.11144e-05
0.00225088
8.02403e-05
0.00212465
9.80258e-05
0.0019651
0.000114145
0.00177352
0.000128308
0.00155269
0.000140266
0.00130599
0.000149809
0.00103748
0.000156773
0.00075157
0.000161036
0.000452958
0.000146425
0.000162522
2.0262e-05
0.00240386
7.6289e-08
4.07546e-05
0.00232526
6.0724e-05
0.00223091
7.97287e-05
0.00210565
9.74018e-05
0.00194743
0.000113419
0.0017575
0.000127493
0.00153861
0.000139377
0.00129411
0.00014886
0.00102799
0.00015578
0.000744651
0.000160016
0.000448725
0.000144956
0.000161493
2.01312e-05
0.00238366
7.66729e-08
4.04935e-05
0.0023049
6.03361e-05
0.00221107
7.92205e-05
0.00208676
9.67818e-05
0.00192986
0.000112698
0.00174158
0.000126684
0.00152463
0.000138493
0.0012823
0.000147916
0.00101857
0.000154793
0.000737774
0.000159003
0.000444516
0.000143491
0.00016047
2.00013e-05
0.00236358
7.70555e-08
4.02341e-05
0.00228466
5.99507e-05
0.00219135
7.87155e-05
0.002068
9.61658e-05
0.00191241
0.000111982
0.00172577
0.00012588
0.00151073
0.000137614
0.00127057
0.000146979
0.00100921
0.000153813
0.000730942
0.000157996
0.000440335
0.00014204
0.000159454
1.98723e-05
0.00234363
7.74693e-08
3.99763e-05
0.00226456
5.95678e-05
0.00217176
7.82137e-05
0.00204935
9.55538e-05
0.00189507
0.00011127
0.00171005
0.00012508
0.00149692
0.000136741
0.00125891
0.000146047
0.0009999
0.000152839
0.00072415
0.000156996
0.000436179
0.000140594
0.000158445
1.97442e-05
0.0023238
7.79478e-08
3.97203e-05
0.00224458
5.91874e-05
0.00215229
7.77153e-05
0.00203082
9.49458e-05
0.00187784
0.000110563
0.00169443
0.000124286
0.00148319
0.000135874
0.00124732
0.000145122
0.000990652
0.000151871
0.000717403
0.000156002
0.000432051
0.000139163
0.000157442
1.9617e-05
0.00230411
7.85213e-08
3.94659e-05
0.00222473
5.88095e-05
0.00213295
7.722e-05
0.00201241
9.43416e-05
0.00186072
0.000109861
0.00167891
0.000123498
0.00146956
0.000135012
0.00123581
0.000144203
0.000981462
0.000150909
0.000710696
0.000155014
0.000427947
0.000137737
0.000156445
1.94906e-05
0.00228454
7.92139e-08
3.92133e-05
0.00220501
5.84341e-05
0.00211372
7.6728e-05
0.00199411
9.37414e-05
0.0018437
0.000109162
0.00166349
0.000122714
0.001456
0.000134156
0.00122436
0.000143289
0.000972329
0.000149954
0.000704033
0.000154033
0.00042387
0.000136324
0.000155455
1.93651e-05
0.0022651
8.00394e-08
3.89623e-05
0.00218541
5.80611e-05
0.00209463
7.62391e-05
0.00197594
9.3145e-05
0.0018268
0.000108469
0.00164817
0.000121935
0.00144254
0.000133306
0.00121299
0.000142381
0.000963254
0.000149004
0.00069741
0.000153058
0.000419817
0.000134916
0.000154471
1.92404e-05
0.00224577
8.10019e-08
3.87129e-05
0.00216594
5.76905e-05
0.00207565
7.57534e-05
0.00195787
9.25525e-05
0.00181
0.00010778
0.00163294
0.000121161
0.00142916
0.000132461
0.00120169
0.000141479
0.000954235
0.000148061
0.00069083
0.00015209
0.000415792
0.000133522
0.000153493
1.91166e-05
0.00222658
8.20943e-08
3.84652e-05
0.00214659
5.73224e-05
0.00205679
7.52708e-05
0.00193992
9.19638e-05
0.00179331
0.000107095
0.00161781
0.000120392
0.00141586
0.000131621
0.00119046
0.000140583
0.000945273
0.000147124
0.000684289
0.000151127
0.00041179
0.000132134
0.000152521
1.89936e-05
0.0022075
8.33017e-08
3.82192e-05
0.00212736
5.69566e-05
0.00203805
7.47914e-05
0.00192209
9.13788e-05
0.00177672
0.000106415
0.00160277
0.000119628
0.00140264
0.000130786
0.0011793
0.000139693
0.000936367
0.000146193
0.000677791
0.000150171
0.000407815
0.000130758
0.000151556
1.88714e-05
0.00218854
8.46032e-08
3.79747e-05
0.00210826
5.65932e-05
0.00201943
7.43151e-05
0.00190436
9.07977e-05
0.00176023
0.000105739
0.00158783
0.000118869
0.00138951
0.000129957
0.00116822
0.000138808
0.000927516
0.000145267
0.000671332
0.000149221
0.000403863
0.000129388
0.000150597
1.87501e-05
0.00216971
8.59761e-08
3.77319e-05
0.00208928
5.62322e-05
0.00200093
7.38418e-05
0.00188675
9.02202e-05
0.00174385
0.000105067
0.00157298
0.000118115
0.00137646
0.000129134
0.0011572
0.000137929
0.000918721
0.000144348
0.000664915
0.000148277
0.000399938
0.000128031
0.000149644
1.86296e-05
0.00215099
8.73979e-08
3.74907e-05
0.00207041
5.58736e-05
0.00198255
7.33716e-05
0.00186925
8.96465e-05
0.00172758
0.0001044
0.00155823
0.000117366
0.0013635
0.000128315
0.00114625
0.000137056
0.000909981
0.000143435
0.000658536
0.000147339
0.000396035
0.000126679
0.000148697
1.85099e-05
0.00213239
8.88497e-08
3.72511e-05
0.00205167
5.55172e-05
0.00196428
7.29044e-05
0.00185187
8.90765e-05
0.0017114
0.000103737
0.00154356
0.000116621
0.00135061
0.000127502
0.00113536
0.000136188
0.000901295
0.000142527
0.000652199
0.000146407
0.000392159
0.000125339
0.000147756
1.83909e-05
0.00211391
9.0316e-08
3.7013e-05
0.00203305
5.51632e-05
0.00194613
7.24403e-05
0.00183459
8.85102e-05
0.00169533
0.000103078
0.001529
0.000115881
0.00133781
0.000126694
0.00112455
0.000135326
0.000892664
0.000141625
0.0006459
0.000145481
0.000388305
0.000124005
0.000146822
1.82728e-05
0.00209555
9.17862e-08
3.67764e-05
0.00201454
5.48114e-05
0.00192809
7.19791e-05
0.00181742
8.79475e-05
0.00167936
0.000102424
0.00151452
0.000115146
0.00132508
0.000125892
0.0011138
0.000134469
0.000884087
0.00014073
0.000639641
0.000144562
0.000384477
0.000122683
0.000145893
1.81554e-05
0.0020773
9.3252e-08
3.65415e-05
0.00199616
5.4462e-05
0.00191017
7.15209e-05
0.00180036
8.73884e-05
0.0016635
0.000101773
0.00150013
0.000114416
0.00131244
0.000125094
0.00110313
0.000133618
0.000875563
0.00013984
0.000633421
0.000143648
0.000380671
0.000121366
0.000144971
1.80388e-05
0.00205916
9.47083e-08
3.6308e-05
0.00197789
5.41148e-05
0.00189236
7.10656e-05
0.00178341
8.68329e-05
0.00164773
0.000101127
0.00148584
0.000113691
0.00129987
0.000124302
0.00109251
0.000132772
0.000867093
0.000138955
0.00062724
0.00014274
0.00037689
0.000120061
0.000144055
1.79229e-05
0.00204115
9.61486e-08
3.6076e-05
0.00195973
5.37698e-05
0.00187467
7.06132e-05
0.00176656
8.62809e-05
0.00163206
0.000100485
0.00147163
0.00011297
0.00128739
0.000123514
0.00108197
0.000131932
0.000858675
0.000138077
0.000621097
0.000141838
0.000373132
0.000118761
0.000143145
1.78078e-05
0.00202324
9.75678e-08
3.58456e-05
0.00194169
5.3427e-05
0.00185709
7.01638e-05
0.00174982
8.57325e-05
0.00161649
9.98473e-05
0.00145751
0.000112254
0.00127498
0.000122732
0.00107149
0.000131098
0.00085031
0.000137204
0.000614993
0.000140942
0.000369398
0.000117472
0.00014224
1.76934e-05
0.00200545
9.89571e-08
3.56166e-05
0.00192377
5.30865e-05
0.00183962
6.97172e-05
0.00173319
8.51877e-05
0.00160101
9.92136e-05
0.00144349
0.000111542
0.00126265
0.000121955
0.00106108
0.000130268
0.000841997
0.000136336
0.000608926
0.000140051
0.000365687
0.000116189
0.000141342
1.75798e-05
0.00198777
1.00309e-07
3.53891e-05
0.00190596
5.27481e-05
0.00182226
6.92735e-05
0.00171666
8.46463e-05
0.00158564
9.85839e-05
0.00142955
0.000110835
0.0012504
0.000121183
0.00105073
0.000129444
0.000833736
0.000135475
0.000602898
0.000139167
0.000361999
0.000114916
0.000140449
1.74668e-05
0.0019702
1.01612e-07
3.51631e-05
0.00188826
5.24119e-05
0.00180501
6.88327e-05
0.00170024
8.41084e-05
0.00157036
9.79583e-05
0.0014157
0.000110133
0.00123822
0.000120416
0.00104044
0.000128626
0.000825527
0.000134619
0.000596907
0.000138288
0.000358334
0.00011365
0.000139563
1.73546e-05
0.00195274
1.02857e-07
3.49384e-05
0.00187068
5.20778e-05
0.00178787
6.83947e-05
0.00168392
8.3574e-05
0.00155518
9.73367e-05
0.00140193
0.000109435
0.00122612
0.000119653
0.00103023
0.000127812
0.000817368
0.000133768
0.000590953
0.000137415
0.000354691
0.000112392
0.000138682
1.72431e-05
0.0019354
1.04036e-07
3.47153e-05
0.00185321
5.17459e-05
0.00177083
6.79595e-05
0.00166771
8.3043e-05
0.0015401
9.67191e-05
0.00138825
0.000108741
0.0012141
0.000118896
0.00102007
0.000127004
0.000809261
0.000132923
0.000585036
0.000136547
0.000351071
0.000111141
0.000137807
1.71322e-05
0.00191816
1.05144e-07
3.44935e-05
0.00183584
5.14161e-05
0.00175391
6.7527e-05
0.00165159
8.25154e-05
0.0015251
9.61055e-05
0.00137466
0.000108052
0.00120215
0.000118144
0.00100998
0.000126202
0.000801203
0.000132084
0.000579156
0.000135686
0.000347474
0.0001099
0.000136937
1.70221e-05
0.00190103
1.06175e-07
3.42731e-05
0.00181859
5.10884e-05
0.00173709
6.70974e-05
0.00163558
8.19913e-05
0.00151021
9.54959e-05
0.00136115
0.000107368
0.00119028
0.000117396
0.000999949
0.000125404
0.000793196
0.00013125
0.000573312
0.000134829
0.000343898
0.000108664
0.000136074
1.69126e-05
0.00188401
1.07129e-07
3.40541e-05
0.00180145
5.07628e-05
0.00172038
6.66705e-05
0.00161967
8.14705e-05
0.00149541
9.48902e-05
0.00134773
0.000106688
0.00117848
0.000116654
0.000989983
0.000124612
0.000785239
0.000130421
0.000567505
0.000133979
0.000340345
0.000107437
0.000135216
1.68039e-05
0.0018671
1.08007e-07
3.38365e-05
0.00178441
5.04393e-05
0.00170378
6.62463e-05
0.00160386
8.0953e-05
0.0014807
9.42885e-05
0.0013344
0.000106012
0.00116675
0.000115916
0.000980079
0.000123825
0.000777331
0.000129598
0.000561734
0.000133134
0.000336813
0.000106217
0.000134363
1.66958e-05
0.0018503
1.08813e-07
3.36203e-05
0.00176749
5.01178e-05
0.00168728
6.58249e-05
0.00158815
8.04389e-05
0.00146608
9.36906e-05
0.00132114
0.000105341
0.0011551
0.000115183
0.000970236
0.000123043
0.000769473
0.00012878
0.000555998
0.000132295
0.000333303
0.000105004
0.000133516
1.65883e-05
0.0018336
1.09549e-07
3.34054e-05
0.00175067
4.97984e-05
0.00167088
6.54061e-05
0.00157254
7.99282e-05
0.00145156
9.30966e-05
0.00130797
0.000104674
0.00114352
0.000114455
0.000960455
0.000122266
0.000761663
0.000127968
0.000550298
0.000131461
0.000329815
0.000103799
0.000132675
1.64815e-05
0.00181701
1.10221e-07
3.31919e-05
0.00173396
4.9481e-05
0.00165459
6.49901e-05
0.00155703
7.94207e-05
0.00143712
9.25065e-05
0.00129488
0.000104012
0.00113202
0.000113732
0.000950735
0.000121494
0.000753902
0.000127161
0.000544633
0.000130632
0.000326348
0.0001026
0.000131839
1.63754e-05
0.00180052
1.10832e-07
3.29797e-05
0.00171735
4.91657e-05
0.0016384
6.45767e-05
0.00154162
7.89165e-05
0.00142278
9.19201e-05
0.00128188
0.000103354
0.00112058
0.000113013
0.000941076
0.000120727
0.000746188
0.000126359
0.000539003
0.000129809
0.000322903
0.000101409
0.000131009
1.627e-05
0.00178414
1.1139e-07
3.27689e-05
0.00170085
4.88523e-05
0.00162232
6.4166e-05
0.0015263
7.84156e-05
0.00140853
9.13377e-05
0.00126895
0.0001027
0.00110922
0.000112299
0.000931476
0.000119965
0.000738523
0.000125563
0.000533408
0.000128992
0.000319478
0.000100225
0.000130184
1.61652e-05
0.00176786
1.11898e-07
3.25594e-05
0.00168446
4.8541e-05
0.00160634
6.37579e-05
0.00151108
7.79179e-05
0.00139437
9.07589e-05
0.00125611
0.00010205
0.00109793
0.00011159
0.000921937
0.000119209
0.000730905
0.000124771
0.000527847
0.000128179
0.000316074
9.9048e-05
0.000129365
1.6061e-05
0.00175169
1.12368e-07
3.23512e-05
0.00166816
4.82316e-05
0.00159045
6.33525e-05
0.00149596
7.74235e-05
0.00138029
9.0184e-05
0.00124335
0.000101405
0.0010867
0.000110885
0.000912456
0.000118457
0.000723334
0.000123985
0.000522321
0.000127372
0.000312691
9.78773e-05
0.000128551
1.59575e-05
0.00173562
1.12807e-07
3.21443e-05
0.00165198
4.79242e-05
0.00157467
6.29497e-05
0.00148093
7.69323e-05
0.00136631
8.96128e-05
0.00123067
0.000100764
0.00107555
0.000110185
0.000903035
0.00011771
0.00071581
0.000123204
0.000516828
0.000126571
0.000309329
9.67139e-05
0.000127743
1.58546e-05
0.00171965
1.13231e-07
3.19387e-05
0.00163589
4.76188e-05
0.00155899
6.25495e-05
0.001466
7.64442e-05
0.00135241
8.90454e-05
0.00121806
0.000100127
0.00106447
0.00010949
0.000893672
0.000116968
0.000708333
0.000122429
0.000511369
0.000125775
0.000305987
9.55564e-05
0.00012694
1.57523e-05
0.00170379
1.13655e-07
3.17344e-05
0.0016199
4.73153e-05
0.00154341
6.21518e-05
0.00145116
7.59594e-05
0.0013386
8.84817e-05
0.00120554
9.94943e-05
0.00105346
0.000108799
0.000884367
0.000116231
0.000700901
0.000121658
0.000505944
0.000124984
0.000302666
9.44064e-05
0.000126142
1.56507e-05
0.00168802
1.14099e-07
3.15314e-05
0.00160402
4.70138e-05
0.00152792
6.17568e-05
0.00143641
7.54777e-05
0.00132488
8.79216e-05
0.00119309
9.88657e-05
0.00104251
0.000108112
0.00087512
0.000115499
0.000693516
0.000120893
0.000500552
0.000124198
0.000299364
9.3262e-05
0.000125349
1.55498e-05
0.00167236
1.1458e-07
3.13297e-05
0.00158824
4.67142e-05
0.00151253
6.13643e-05
0.00142176
7.49991e-05
0.00131125
8.73653e-05
0.00118072
9.82413e-05
0.00103164
0.000107431