/*--------------------------------*- C++ -*----------------------------------*\
  =========                 |
  \\      /  F ield         | OpenFOAM: The Open Source CFD Toolbox
   \\    /   O peration     | Website:  https://openfoam.org
    \\  /    A nd           | Version:  6.0
     \\/     M anipulation  |
\*---------------------------------------------------------------------------*/
FoamFile
{
    version     2.0;
    format      ascii;
    class       volVectorField;
    location    "4.9";
    object      U;
}
// * * * * * * * * * * * * * * * * * * * * * * * * * * * * * * * * * * * * * //

dimensions      [0 1 -1 0 0 0 0];

internalField   nonuniform List<vector> 
24000
(
(0.999994 3.07912e-06 -7.95897e-17)
(0.999949 -1.30713e-05 1.08391e-16)
(0.999863 -5.60898e-05 -1.90649e-16)
(0.999755 -0.000141856 2.10438e-16)
(0.999652 -0.000266616 -1.03848e-15)
(0.999583 -0.000413744 -6.15735e-16)
(0.999571 -0.000551795 6.30433e-16)
(0.999614 -0.000655637 -1.39687e-15)
(0.999708 -0.000688678 4.38556e-16)
(0.99982 -0.000666763 -3.2256e-16)
(0.999948 -0.000471689 -3.12404e-16)
(1.00055 0.000424329 -4.66112e-16)
(0.999988 1.46563e-05 1.16675e-16)
(0.999907 -2.08088e-05 -1.60389e-16)
(0.99975 -0.000109592 3.56246e-16)
(0.999552 -0.000279977 -8.89856e-17)
(0.999368 -0.000521396 4.62217e-16)
(0.999248 -0.000799223 6.22733e-16)
(0.999235 -0.00105445 -3.50729e-16)
(0.999325 -0.00124283 1.48412e-15)
(0.999506 -0.00129627 -3.11423e-16)
(0.999723 -0.00125546 1.59771e-17)
(0.999918 -0.000916423 8.1626e-17)
(1.00113 0.000388357 1.55105e-16)
(0.999987 2.65457e-05 -8.88679e-17)
(0.999918 -2.04852e-05 2.16111e-16)
(0.99978 -0.00011864 -1.23475e-16)
(0.999606 -0.000294507 4.51654e-16)
(0.999442 -0.000538032 2.51732e-16)
(0.999334 -0.00081417 2.31589e-16)
(0.999326 -0.00106714 5.1877e-16)
(0.999414 -0.00125721 -6.59789e-16)
(0.999587 -0.00131858 -3.6825e-16)
(0.99981 -0.00130023 -1.30046e-16)
(0.99993 -0.00102977 -2.9122e-17)
(1.00121 -0.000194017 4.90773e-16)
(0.999986 3.69648e-05 -3.7946e-17)
(0.999933 -2.35582e-05 -2.04471e-16)
(0.999822 -0.000129091 -3.15842e-16)
(0.999685 -0.000301268 -2.2391e-16)
(0.999555 -0.000532053 -1.31177e-16)
(0.999468 -0.000788071 -9.06465e-16)
(0.999465 -0.00102255 -1.43625e-15)
(0.999546 -0.00120181 1.64115e-16)
(0.999701 -0.00126653 4.70206e-17)
(0.999922 -0.00126163 6.46351e-16)
(0.999966 -0.00105271 -4.13037e-16)
(1.00114 -0.000447809 -5.74093e-16)
(0.999983 4.59449e-05 6.76011e-17)
(0.999935 -3.19364e-05 3.30091e-17)
(0.999834 -0.000153411 1.60062e-16)
(0.999714 -0.000335832 -7.56831e-17)
(0.999602 -0.000571173 2.0801e-16)
(0.999532 -0.000823503 1.873e-16)
(0.999539 -0.00105124 1.45289e-15)
(0.999626 -0.00122231 -9.49483e-17)
(0.99978 -0.00127936 -2.80112e-16)
(1.00002 -0.00126108 7.61476e-17)
(1.00003 -0.00105329 2.85047e-16)
(1.00108 -0.000426881 -1.52023e-16)
(0.999978 5.36141e-05 3.91196e-18)
(0.999931 -4.31963e-05 -1.8993e-17)
(0.999832 -0.000183779 -2.13631e-17)
(0.99972 -0.00038209 -3.86908e-18)
(0.999622 -0.000628808 -8.6325e-16)
(0.999568 -0.000883159 1.05661e-15)
(0.999589 -0.00110628 2.93201e-17)
(0.99969 -0.00126695 1.46347e-16)
(0.999852 -0.0013087 6.92351e-16)
(1.00012 -0.00126903 -3.40906e-16)
(1.00013 -0.00104838 5.1725e-16)
(1.00106 -0.000413436 3.48229e-16)
(0.999972 5.99073e-05 -3.5402e-18)
(0.999927 -5.59411e-05 2.04818e-16)
(0.999832 -0.000214779 -2.07786e-16)
(0.999729 -0.000428184 -1.01343e-16)
(0.999642 -0.00068573 4.43627e-16)
(0.999604 -0.000942126 -2.1827e-16)
(0.99964 -0.00116053 -6.046e-16)
(0.999753 -0.00131189 -3.13713e-16)
(0.999923 -0.00134135 1.22292e-16)
(1.00021 -0.0012888 6.02943e-16)
(1.00023 -0.00106998 -1.22102e-15)
(1.00106 -0.000490615 3.19312e-16)
(0.999966 6.4756e-05 -5.22901e-17)
(0.999924 -7.00676e-05 7.92931e-17)
(0.999833 -0.0002462 2.39432e-16)
(0.999738 -0.000473976 4.53392e-16)
(0.999663 -0.000742611 2.41429e-16)
(0.999637 -0.00100339 -2.67951e-16)
(0.999684 -0.00122083 -2.91387e-16)
(0.999808 -0.00136858 -1.39692e-16)
(0.999984 -0.00139333 4.82706e-17)
(1.00029 -0.0013355 -1.30591e-16)
(1.00034 -0.00112635 1.04543e-15)
(1.00108 -0.000607758 -5.52062e-16)
(0.999959 6.81816e-05 2.05881e-17)
(0.999919 -8.55422e-05 -1.94722e-16)
(0.999834 -0.000278407 1.46126e-17)
(0.999747 -0.00052024 -7.23575e-17)
(0.999681 -0.000800353 7.30302e-17)
(0.999665 -0.00106756 -6.11691e-17)
(0.999722 -0.00128694 5.12593e-17)
(0.999856 -0.00143445 5.59388e-16)
(1.00004 -0.00145785 -6.93337e-17)
(1.00036 -0.00139392 -7.91124e-16)
(1.00045 -0.00118916 -8.81937e-16)
(1.00115 -0.000703586 9.82119e-16)
(0.999951 7.02647e-05 7.31711e-17)
(0.999914 -0.000102124 4.86728e-18)
(0.999835 -0.000310993 1.8449e-16)
(0.999756 -0.00056573 -4.83812e-16)
(0.9997 -0.000855803 -1.15495e-16)
(0.999696 -0.00112826 5.22789e-16)
(0.999763 -0.00134828 -4.44131e-16)
(0.999907 -0.00149374 -6.69916e-16)
(1.0001 -0.00151366 2.05205e-16)
(1.00043 -0.00143866 2.05835e-16)
(1.00056 -0.00123105 6.55791e-16)
(1.00123 -0.000760402 -1.38877e-16)
(0.999942 7.11009e-05 -1.00361e-16)
(0.999907 -0.000119601 -2.31102e-17)
(0.999836 -0.000343712 -2.19875e-16)
(0.999768 -0.000609812 3.65966e-17)
(0.999725 -0.000907401 1.6733e-16)
(0.999732 -0.00118242 -3.60804e-16)
(0.999811 -0.00139994 2.711e-16)
(0.999966 -0.00153974 7.54822e-16)
(1.00016 -0.00155284 -5.62908e-16)
(1.00051 -0.00146412 2.2461e-16)
(1.00068 -0.00125218 -8.49525e-16)
(1.00133 -0.000798362 -9.09974e-16)
(0.999932 7.0801e-05 6.51552e-18)
(0.9999 -0.000137887 1.91962e-16)
(0.999837 -0.000376863 -1.92576e-16)
(0.999781 -0.000653391 1.48968e-16)
(0.999751 -0.000956945 -4.57885e-16)
(0.999772 -0.00123296 -2.04055e-16)
(0.999862 -0.00144646 6.6453e-17)
(1.00003 -0.00157903 -3.03145e-16)
(1.00023 -0.0015844 -3.94679e-16)
(1.00059 -0.00148352 3.63498e-16)
(1.00079 -0.00127052 2.86373e-16)
(1.00143 -0.000842827 1.01262e-17)
(0.999921 6.94876e-05 2.45153e-17)
(0.999892 -0.000156911 -1.91832e-17)
(0.999836 -0.000410818 5.30628e-16)
(0.999792 -0.000697679 1.53108e-16)
(0.999776 -0.00100695 2.61733e-16)
(0.999809 -0.00128415 -2.92611e-16)
(0.999911 -0.00149442 -1.47993e-16)
(1.00009 -0.00162096 1.20688e-16)
(1.0003 -0.00162037 4.66157e-16)
(1.00067 -0.00151097 -1.22127e-15)
(1.0009 -0.00130042 -4.8783e-16)
(1.00153 -0.000902823 5.45541e-16)
(0.999909 6.72905e-05 -7.57144e-17)
(0.999882 -0.000176565 -6.73981e-17)
(0.999833 -0.000445673 -4.19368e-16)
(0.9998 -0.000743193 -3.31454e-16)
(0.999797 -0.0010585 -2.32338e-16)
(0.999842 -0.00133773 3.65255e-16)
(0.999956 -0.00154648 2.51208e-16)
(1.00014 -0.00166925 -2.76781e-16)
(1.00037 -0.0016653 -3.71492e-16)
(1.00074 -0.00155045 -1.33128e-16)
(1.00101 -0.00134343 6.92776e-16)
(1.00162 -0.000972151 -4.84734e-16)
(0.999896 6.4331e-05 4.07552e-17)
(0.99987 -0.000196704 3.22206e-17)
(0.999827 -0.000481253 4.95373e-17)
(0.999805 -0.000789784 7.90563e-17)
(0.999814 -0.00111136 8.2215e-17)
(0.999872 -0.00139306 -1.48353e-16)
(0.999997 -0.00160146 7.77868e-18)
(1.0002 -0.0017221 -3.83369e-16)
(1.00043 -0.00171659 3.63047e-16)
(1.00081 -0.00159766 1.38444e-15)
(1.00111 -0.00139311 -2.06011e-16)
(1.00172 -0.00104124 6.75073e-16)
(0.999883 6.07164e-05 -3.9352e-17)
(0.999857 -0.000217193 1.48663e-18)
(0.99982 -0.000517297 1.47839e-16)
(0.999807 -0.000837114 2.09105e-16)
(0.99983 -0.00116496 2.31353e-16)
(0.9999 -0.00144901 -1.50343e-16)
(1.00004 -0.00165729 -2.42132e-16)
(1.00025 -0.00177625 5.92218e-16)
(1.00049 -0.00176976 1.4344e-16)
(1.00088 -0.00164688 -1.49218e-15)
(1.0012 -0.00144315 2.36141e-16)
(1.00181 -0.00110553 2.23796e-17)
(0.999869 5.65355e-05 9.00393e-17)
(0.999844 -0.000237913 3.30846e-17)
(0.999811 -0.000553548 -3.1955e-16)
(0.999808 -0.000884887 1.37939e-16)
(0.999843 -0.00121904 -5.61563e-17)
(0.999926 -0.00150512 3.6763e-16)
(1.00007 -0.00171302 6.26005e-16)
(1.0003 -0.00183005 1.05422e-16)
(1.00055 -0.00182239 5.11306e-16)
(1.00095 -0.00169537 1.24057e-15)
(1.0013 -0.00149133 1.4367e-15)
(1.0019 -0.0011654 -5.38591e-16)
(0.999855 5.18607e-05 3.46071e-17)
(0.999829 -0.00025877 -2.74398e-17)
(0.999802 -0.000589775 3.0394e-16)
(0.999808 -0.000932845 -2.77306e-16)
(0.999854 -0.00127349 3.92609e-16)
(0.999951 -0.0015616 4.03515e-18)
(1.00011 -0.00176893 -4.0697e-16)
(1.00035 -0.00188374 1.28344e-16)
(1.00061 -0.00187459 -4.42716e-16)
(1.00102 -0.0017434 -2.16786e-16)
(1.00139 -0.00153846 -5.76261e-16)
(1.002 -0.00122288 -1.06916e-16)
(0.99984 4.67507e-05 -4.15027e-17)
(0.999814 -0.000279684 -2.31056e-16)
(0.999792 -0.000625753 -1.26502e-16)
(0.999806 -0.000980645 1.553e-16)
(0.999864 -0.0013281 -2.82121e-17)
(0.999974 -0.00161858 -2.62208e-16)
(1.00015 -0.00182554 -5.46934e-17)
(1.0004 -0.00193809 -3.38017e-17)
(1.00067 -0.00192727 -5.31438e-16)
(1.00109 -0.001792 -3.90034e-16)
(1.00148 -0.00158564 -1.72782e-15)
(1.00209 -0.00127865 1.02886e-15)
(0.999824 4.12542e-05 -3.95442e-17)
(0.999799 -0.000300597 2.40545e-16)
(0.999782 -0.000661291 -1.71753e-16)
(0.999804 -0.00102787 7.66778e-17)
(0.999872 -0.00138238 -1.88288e-16)
(0.999995 -0.00167574 -4.26646e-16)
(1.00018 -0.00188278 5.41364e-17)
(1.00044 -0.00199327 -6.91364e-17)
(1.00073 -0.00198071 2.87691e-16)
(1.00116 -0.00184139 4.47361e-16)
(1.00158 -0.00163292 1.54625e-15)
(1.00218 -0.00133238 -9.94908e-16)
(0.999808 3.54155e-05 2.84435e-17)
(0.999784 -0.000321474 -1.11996e-17)
(0.999773 -0.000696261 2.72407e-17)
(0.999802 -0.00107414 -6.35964e-17)
(0.999881 -0.00143572 -2.3659e-16)
(1.00002 -0.00173237 -9.46367e-18)
(1.00022 -0.00193994 -1.25555e-16)
(1.00049 -0.00204862 -6.70862e-16)
(1.0008 -0.00203426 4.04346e-16)
(1.00124 -0.00189086 2.19094e-16)
(1.00167 -0.00167959 6.54253e-17)
(1.00228 -0.00138353 2.23682e-16)
(0.999791 2.92804e-05 3.25343e-17)
(0.999768 -0.000342307 -2.639e-16)
(0.999764 -0.000730639 5.16876e-16)
(0.9998 -0.00111923 4.91983e-17)
(0.99989 -0.00148765 1.43512e-16)
(1.00004 -0.00178777 8.70236e-16)
(1.00025 -0.00199621 7.15863e-16)
(1.00054 -0.00210331 3.62406e-16)
(1.00086 -0.00208713 -9.60622e-16)
(1.00131 -0.00193973 -2.80299e-16)
(1.00176 -0.0017253 9.28183e-17)
(1.00237 -0.00143271 -3.33966e-17)
(0.999773 2.29039e-05 -6.097e-17)
(0.999752 -0.000363101 1.05128e-16)
(0.999754 -0.000764494 -6.96963e-17)
(0.999799 -0.00116318 -8.85332e-17)
(0.999899 -0.00153807 -2.55309e-16)
(1.00006 -0.00184169 -5.05307e-16)
(1.00029 -0.00205123 -2.74722e-16)
(1.00059 -0.00215699 -2.17938e-17)
(1.00092 -0.00213909 2.78409e-16)
(1.00138 -0.00198801 -2.65646e-16)
(1.00185 -0.00177048 -1.56896e-15)
(1.00247 -0.00148095 7.97609e-16)
(0.999755 1.63531e-05 4.45163e-17)
(0.999735 -0.000383866 6.34391e-18)
(0.999745 -0.000797965 -1.89654e-16)
(0.999799 -0.00120623 -1.45092e-16)
(0.99991 -0.00158726 -8.0533e-17)
(1.00008 -0.00189437 -1.1908e-16)
(1.00032 -0.00210525 -2.17286e-16)
(1.00064 -0.00220998 -2.31878e-16)
(1.00099 -0.00219063 -6.76168e-17)
(1.00146 -0.00203639 -2.46472e-16)
(1.00194 -0.00181606 9.31375e-17)
(1.00256 -0.00152942 -1.58707e-16)
(0.999736 9.71055e-06 1.52589e-17)
(0.999717 -0.0004046 1.49374e-16)
(0.999734 -0.000831191 4.08993e-17)
(0.999797 -0.00124871 -1.57097e-17)
(0.99992 -0.00163573 9.89081e-17)
(1.0001 -0.0019464 2.78025e-16)
(1.00036 -0.00215889 1.07048e-16)
(1.00069 -0.00226299 2.67827e-16)
(1.00105 -0.00224255 3.14091e-16)
(1.00153 -0.00208571 -3.06694e-16)
(1.00203 -0.00186276 1.00772e-15)
(1.00266 -0.00157867 -6.26242e-16)
(0.999716 3.07001e-06 -2.06914e-17)
(0.999698 -0.000425284 -1.95436e-17)
(0.999722 -0.000864278 -1.47769e-16)
(0.999795 -0.00129094 -9.72823e-17)
(0.999929 -0.00168399 -3.48785e-17)
(1.00013 -0.00199839 -1.79065e-16)
(1.00039 -0.00221282 1.04239e-17)
(1.00074 -0.0023167 -3.11757e-16)
(1.00111 -0.0022955 -2.70949e-17)
(1.00161 -0.00213641 1.05398e-15)
(1.00212 -0.00191074 4.97693e-16)
(1.00276 -0.00162856 5.34258e-17)
(0.999695 -3.4655e-06 -9.84428e-18)
(0.999678 -0.000445876 -1.14656e-16)
(0.999709 -0.000897263 -5.05383e-17)
(0.999791 -0.00133313 -7.55285e-17)
(0.999936 -0.00173241 5.57808e-16)
(1.00015 -0.0020508 -1.29274e-16)
(1.00043 -0.00226749 1.53937e-16)
(1.00079 -0.00237147 -1.59992e-16)
(1.00118 -0.00234968 -2.55726e-16)
(1.00168 -0.00218849 -2.65779e-16)
(1.00221 -0.00195972 -1.96983e-17)
(1.00285 -0.00167858 -2.02481e-16)
(0.999673 -9.79265e-06 3.40869e-17)
(0.999657 -0.000466323 -4.08508e-17)
(0.999694 -0.000930134 1.71653e-16)
(0.999785 -0.00137538 3.46644e-16)
(0.999943 -0.00178118 -5.27439e-16)
(1.00017 -0.00210387 4.99372e-16)
(1.00046 -0.00232307 -2.76231e-16)
(1.00084 -0.00242736 -1.44279e-16)
(1.00124 -0.002405 -1.94456e-16)
(1.00176 -0.00224163 -3.55859e-16)
(1.0023 -0.00200928 -1.51207e-16)
(1.00295 -0.00172841 -1.21491e-16)
(0.99965 -1.58112e-05 -5.82236e-18)
(0.999634 -0.000486561 -1.56668e-17)
(0.999678 -0.000962838 -1.57847e-17)
(0.999779 -0.00141767 -3.35549e-16)
(0.999948 -0.0018303 -1.44099e-16)
(1.00019 -0.00215761 -1.3064e-17)
(1.00049 -0.00237955 -3.90118e-16)
(1.00088 -0.00248427 7.19277e-16)
(1.0013 -0.00246122 -5.86915e-18)
(1.00183 -0.00229553 2.51398e-16)
(1.00239 -0.00205916 1.78336e-16)
(1.00305 -0.00177813 -5.46522e-18)
(0.999626 -2.14321e-05 -1.889e-17)
(0.999611 -0.000506532 1.07878e-16)
(0.99966 -0.000995321 3.21361e-17)
(0.99977 -0.00145995 4.61192e-16)
(0.999951 -0.00187973 2.51762e-16)
(1.0002 -0.00221195 -4.22499e-16)
(1.00053 -0.00243684 1.91906e-16)
(1.00093 -0.00254206 -3.78954e-16)
(1.00137 -0.0025182 1.31268e-15)
(1.00191 -0.00235006 -1.02116e-16)
(1.00248 -0.00210941 2.24911e-17)
(1.00314 -0.00182798 -1.4164e-16)
(0.999601 -2.65771e-05 -1.97109e-17)
(0.999586 -0.000526183 7.53642e-17)
(0.999641 -0.00102754 -9.05598e-17)
(0.999761 -0.00150216 -4.47602e-16)
(0.999954 -0.00192937 4.63613e-16)
(1.00022 -0.00226679 2.71291e-16)
(1.00056 -0.00249484 3.43234e-16)
(1.00098 -0.00260066 1.53646e-16)
(1.00143 -0.00257591 -1.09044e-16)
(1.00199 -0.00240529 5.47911e-16)
(1.00257 -0.00216025 -9.95093e-16)
(1.00324 -0.00187835 1.12763e-15)
(0.999575 -3.11836e-05 2.74657e-17)
(0.99956 -0.000545474 -1.44241e-16)
(0.999621 -0.00105949 -8.42391e-17)
(0.99975 -0.00154429 -2.68417e-17)
(0.999956 -0.00197919 -1.77321e-16)
(1.00024 -0.00232209 -5.03935e-18)
(1.00059 -0.00255353 -2.82137e-16)
(1.00103 -0.0026601 -2.13622e-16)
(1.0015 -0.00263448 -1.20575e-15)
(1.00206 -0.00246146 -3.98267e-16)
(1.00267 -0.00221203 -2.56396e-16)
(1.00334 -0.0019295 -3.0232e-17)
(0.999547 -3.52001e-05 1.05331e-17)
(0.999533 -0.000564374 -1.18583e-17)
(0.9996 -0.00109118 -4.26222e-17)
(0.999739 -0.00158637 3.25629e-16)
(0.999957 -0.0020292 -5.53016e-16)
(1.00025 -0.00237785 -4.1053e-16)
(1.00062 -0.00261293 3.52829e-16)
(1.00107 -0.00272048 -2.33569e-17)
(1.00156 -0.00269408 7.30625e-17)
(1.00214 -0.00251881 4.22102e-16)
(1.00276 -0.00226506 -1.6894e-16)
(1.00344 -0.00198162 3.05736e-16)
(0.999518 -3.8589e-05 -1.51729e-17)
(0.999504 -0.00058286 1.70079e-16)
(0.999578 -0.00112266 2.88583e-16)
(0.999726 -0.00162849 -9.61733e-17)
(0.999957 -0.00207951 4.3581e-17)
(1.00027 -0.00243418 1.824e-16)
(1.00065 -0.00267317 -4.21229e-16)
(1.00112 -0.00278197 4.43703e-16)
(1.00162 -0.00275495 3.45162e-16)
(1.00222 -0.0025776 -2.84605e-16)
(1.00285 -0.00231959 3.23907e-18)
(1.00354 -0.00203472 -1.91579e-17)
(0.999488 -4.13208e-05 -4.29426e-18)
(0.999475 -0.000600913 -2.4708e-16)
(0.999555 -0.00115396 -4.85093e-17)
(0.999713 -0.00167074 5.79602e-17)
(0.999956 -0.00213027 6.52404e-16)
(1.00028 -0.00249126 5.21077e-17)
(1.00068 -0.00273444 3.91112e-16)
(1.00117 -0.00284474 -7.24709e-16)
(1.00169 -0.00281728 3.64143e-16)
(1.0023 -0.00263799 -4.37762e-16)
(1.00294 -0.00237568 9.40444e-16)
(1.00364 -0.00208876 -4.69015e-16)
(0.999456 -4.33762e-05 2.14652e-17)
(0.999444 -0.000618517 1.09544e-16)
(0.99953 -0.00118511 -1.16367e-16)
(0.999697 -0.00171322 4.7915e-17)
(0.999954 -0.00218165 -3.92451e-16)
(1.00029 -0.00254928 -1.38218e-16)
(1.00071 -0.00279693 2.26976e-17)
(1.00121 -0.00290899 5.19311e-16)
(1.00175 -0.00288121 3.13603e-16)
(1.00238 -0.00270003 -2.1667e-17)
(1.00303 -0.0024333 1.23914e-15)
(1.00374 -0.00214348 -6.13588e-16)
(0.999423 -4.47425e-05 1.44295e-18)
(0.999413 -0.000635655 1.19562e-16)
(0.999504 -0.00121611 1.19479e-16)
(0.999681 -0.00175598 -1.4406e-17)
(0.99995 -0.00223375 2.87008e-16)
(1.0003 -0.00260838 3.71253e-16)
(1.00074 -0.00286077 -1.13326e-16)
(1.00126 -0.00297481 5.21668e-16)
(1.00182 -0.00294677 -1.19768e-15)
(1.00245 -0.00276364 -1.32964e-16)
(1.00312 -0.00249223 -1.78385e-15)
(1.00384 -0.00219838 1.41586e-16)
(0.999388 -4.54169e-05 -6.22559e-17)
(0.99938 -0.000652312 7.43902e-17)
(0.999477 -0.00124693 -2.12639e-17)
(0.999663 -0.001799 1.55146e-16)
(0.999946 -0.00228661 -2.13695e-16)
(1.00032 -0.00266863 -5.20981e-16)
(1.00077 -0.00292601 -4.00885e-17)
(1.00131 -0.00304218 -3.71837e-16)
(1.00188 -0.00301385 1.2758e-15)
(1.00253 -0.00282858 -4.3013e-17)
(1.00322 -0.00255214 3.82831e-16)
(1.00394 -0.00225311 7.07658e-16)
(0.999353 -4.54041e-05 1.5482e-17)
(0.999346 -0.00066848 -3.18933e-16)
(0.999449 -0.00127754 1.09949e-16)
(0.999644 -0.00184223 -5.10066e-16)
(0.99994 -0.00234015 2.55268e-16)
(1.00032 -0.00272995 8.45459e-16)
(1.00079 -0.00299256 -2.19288e-16)
(1.00135 -0.00311094 -5.19465e-16)
(1.00194 -0.00308221 -4.0601e-16)
(1.00261 -0.00289453 -8.03401e-17)
(1.00331 -0.00261266 3.96818e-16)
(1.00404 -0.00230734 -6.47142e-16)
(0.999315 -4.47198e-05 3.55058e-17)
(0.999312 -0.000684158 9.26605e-17)
(0.999419 -0.00130788 -3.33899e-16)
(0.999624 -0.00188557 4.62566e-16)
(0.999932 -0.00239425 -6.95669e-16)
(1.00033 -0.00279218 -6.95148e-16)
(1.00082 -0.00306022 2.65097e-16)
(1.00139 -0.00318086 9.32659e-16)
(1.002 -0.00315158 -5.25648e-16)
(1.00269 -0.00296119 2.11682e-16)
(1.0034 -0.0026735 -1.71245e-16)
(1.00414 -0.00236101 6.06198e-17)
(0.999277 -4.33879e-05 -6.04795e-18)
(0.999276 -0.00069936 1.99978e-16)
(0.999389 -0.00133792 2.66398e-16)
(0.999603 -0.0019289 -3.17171e-16)
(0.999924 -0.00244872 1.5435e-16)
(1.00034 -0.0028551 4.28214e-16)
(1.00085 -0.00312874 1.44049e-16)
(1.00144 -0.00325166 -9.66715e-17)
(1.00207 -0.00322167 7.36836e-16)
(1.00277 -0.00302828 3.75236e-16)
(1.0035 -0.00273445 7.06628e-17)
(1.00424 -0.00241397 6.39654e-17)
(0.999237 -4.14436e-05 1.35961e-17)
(0.99924 -0.000714113 -2.23087e-16)
(0.999359 -0.00136765 -5.89516e-17)
(0.999581 -0.00197214 1.24215e-16)
(0.999916 -0.00250339 7.5112e-16)
(1.00035 -0.0029185 -3.85389e-16)
(1.00087 -0.00319789 -3.28447e-16)
(1.00148 -0.00332312 -7.46753e-17)
(1.00213 -0.00329227 -7.28786e-16)
(1.00285 -0.00309566 4.24068e-16)
(1.00359 -0.00279549 -5.9085e-17)
(1.00434 -0.00246645 3.80488e-16)
(0.999196 -3.8929e-05 -1.07883e-17)
(0.999202 -0.000728459 1.39684e-16)
(0.999327 -0.00139709 -9.64033e-17)
(0.999559 -0.00201525 3.61826e-16)
(0.999907 -0.00255818 -7.05623e-16)
(1.00036 -0.00298223 4.95936e-16)
(1.0009 -0.0032675 -4.82607e-17)
(1.00153 -0.00339508 -5.04448e-17)
(1.00219 -0.0033633 7.54105e-16)
(1.00293 -0.00316333 -2.90954e-16)
(1.00368 -0.00285668 -2.38437e-16)
(1.00445 -0.00251862 -9.61103e-17)
(0.999153 -3.58946e-05 1.51849e-18)
(0.999164 -0.000742452 -2.60354e-17)
(0.999295 -0.00142631 1.17469e-16)
(0.999537 -0.00205829 -4.01332e-16)
(0.999898 -0.00261306 3.48378e-16)
(1.00036 -0.00304624 1.16594e-16)
(1.00092 -0.00333754 1.67994e-16)
(1.00157 -0.00346754 -8.77441e-16)
(1.00226 -0.0034348 -3.6833e-16)
(1.00301 -0.0032314 -1.32576e-15)
(1.00378 -0.00291817 -6.93957e-16)
(1.00455 -0.00257087 -7.1508e-16)
(0.99911 -3.23944e-05 -1.97136e-17)
(0.999124 -0.000756153 1.80472e-17)
(0.999263 -0.00145539 -2.20119e-16)
(0.999514 -0.00210134 1.44756e-17)
(0.999888 -0.00266812 -8.85039e-17)
(1.00037 -0.00311059 5.25688e-18)
(1.00095 -0.00340806 3.10335e-16)
(1.00162 -0.00354059 1.18625e-15)
(1.00232 -0.0035069 1.03179e-16)
(1.00309 -0.00330003 8.27441e-16)
(1.00387 -0.00298015 -1.2157e-16)
(1.00465 -0.00262338 1.29786e-15)
(0.999065 -2.84868e-05 1.89673e-17)
(0.999084 -0.000769628 1.09567e-17)
(0.999229 -0.00148444 2.97474e-16)
(0.99949 -0.00214454 -1.74015e-16)
(0.999878 -0.0027235 -2.03809e-16)
(1.00038 -0.00317544 -2.35475e-16)
(1.00097 -0.00347922 -1.42874e-16)
(1.00166 -0.00361439 -4.75628e-16)
(1.00239 -0.0035798 8.56446e-17)
(1.00317 -0.00336945 8.22105e-16)
(1.00397 -0.00304283 7.99079e-16)
(1.00476 -0.00267652 -1.15259e-15)
(0.999018 -2.42299e-05 -1.93643e-17)
(0.999042 -0.000782936 -2.39567e-16)
(0.999194 -0.00151357 -1.27564e-16)
(0.999465 -0.00218804 2.92302e-17)
(0.999867 -0.00277939 5.10921e-16)
(1.00038 -0.00324099 -4.05255e-16)
(1.001 -0.00355123 -3.61782e-16)
(1.00171 -0.00368915 -4.47403e-16)
(1.00245 -0.0036537 -5.36646e-16)
(1.00325 -0.00343982 -1.77628e-15)
(1.00406 -0.00310617 -5.94769e-16)
(1.00486 -0.00273022 5.84386e-16)
(0.998971 -1.96833e-05 9.69129e-18)
(0.998999 -0.000796139 2.0008e-16)
(0.999157 -0.00154288 6.03558e-17)
(0.999439 -0.002232 3.72446e-16)
(0.999855 -0.00283597 -5.89702e-16)
(1.00039 -0.00330743 5.74997e-16)
(1.00102 -0.00362429 -6.85379e-18)
(1.00175 -0.00376506 1.0543e-15)
(1.00251 -0.00372876 3.80838e-16)
(1.00333 -0.0035113 2.31646e-15)
(1.00416 -0.00317018 3.30746e-16)
(1.00497 -0.0027846 5.44614e-16)
(0.998922 -1.4904e-05 -1.97861e-17)
(0.998954 -0.000809289 4.29796e-17)
(0.99912 -0.00157244 9.36228e-17)
(0.999412 -0.00227651 -1.45656e-16)
(0.999842 -0.00289339 5.03856e-16)
(1.00039 -0.00337494 -6.06647e-16)
(1.00105 -0.00369856 5.5404e-16)
(1.00179 -0.00384226 -1.42281e-16)
(1.00258 -0.00380507 2.32339e-16)
(1.00341 -0.00358392 -1.68931e-15)
(1.00425 -0.00323496 1.00504e-15)
(1.00507 -0.00283985 -1.21548e-15)
(0.998872 -9.94951e-06 2.12822e-17)
(0.998908 -0.000822434 -1.18978e-16)
(0.99908 -0.00160231 -1.73011e-16)
(0.999383 -0.00232168 -1.71076e-16)
(0.999828 -0.00295177 5.21871e-17)
(1.00039 -0.00344364 -1.59703e-16)
(1.00107 -0.00377416 -3.01779e-16)
(1.00184 -0.00392084 -6.6993e-16)
(1.00264 -0.00388271 -2.40065e-16)
(1.00349 -0.00365773 3.94824e-16)
(1.00435 -0.00330062 -9.87269e-16)
(1.00518 -0.00289621 7.0273e-16)
(0.998821 -4.87468e-06 5.12798e-17)
(0.998861 -0.000835618 1.44681e-17)
(0.99904 -0.00163254 -4.60376e-17)
(0.999353 -0.00236755 1.24322e-16)
(0.999813 -0.00301116 -6.88021e-16)
(1.0004 -0.00351358 1.16498e-16)
(1.00109 -0.00385112 5.04949e-16)
(1.00188 -0.00400082 -2.82003e-16)
(1.0027 -0.00396166 9.47826e-17)
(1.00357 -0.00373271 -1.24286e-16)
(1.00445 -0.0033671 2.25356e-16)
(1.00528 -0.00295358 -5.29605e-16)
(0.998768 2.65645e-07 -3.3475e-17)
(0.998812 -0.000848884 7.35338e-17)
(0.998997 -0.00166317 -1.34578e-16)
(0.999321 -0.00241416 -8.06379e-17)
(0.999796 -0.00307159 5.11835e-16)
(1.0004 -0.00358478 2.1175e-16)
(1.00111 -0.00392945 -2.23575e-16)
(1.00192 -0.00408219 4.5876e-16)
(1.00277 -0.00404192 1.51088e-16)
(1.00365 -0.00380885 2.98322e-16)
(1.00454 -0.00343448 -3.07727e-16)
(1.00538 -0.00301197 -1.11222e-17)
(0.998715 5.41828e-06 -5.12652e-17)
(0.998762 -0.000862274 -2.66881e-17)
(0.998954 -0.00169421 1.38736e-16)
(0.999288 -0.00246152 1.22655e-16)
(0.999778 -0.00313307 1.59561e-16)
(1.0004 -0.00365722 4.31717e-16)
(1.00113 -0.00400914 -1.93795e-16)
(1.00196 -0.00416494 -8.64587e-17)
(1.00283 -0.00412349 -1.8331e-16)
(1.00373 -0.00388614 -6.70709e-18)
(1.00464 -0.00350282 6.66187e-18)
(1.00549 -0.00307155 3.87726e-16)
(0.998661 1.05299e-05 8.62465e-17)
(0.998711 -0.00087583 -1.39873e-17)
(0.998909 -0.00172571 1.60364e-16)
(0.999254 -0.00250966 -7.32749e-17)
(0.999759 -0.00319559 -1.40485e-16)
(1.0004 -0.00373092 -5.6838e-16)
(1.00115 -0.00409018 -3.44296e-16)
(1.002 -0.00424907 2.24257e-16)
(1.00289 -0.00420636 3.53334e-17)
(1.00381 -0.0039646 5.37555e-17)
(1.00473 -0.00357228 8.32853e-17)
(1.00559 -0.00313231 3.46554e-17)
(0.998606 1.5549e-05 -8.60227e-17)
(0.998658 -0.000889594 1.31653e-16)
(0.998863 -0.00175768 -2.36095e-16)
(0.999218 -0.00255858 1.62495e-16)
(0.999738 -0.00325917 -3.77383e-18)
(1.0004 -0.00380586 3.85855e-16)
(1.00117 -0.00417257 3.36017e-16)
(1.00205 -0.00433457 -2.24477e-16)
(1.00295 -0.00429057 3.69431e-16)
(1.00389 -0.00404424 -2.39571e-16)
(1.00483 -0.00364296 7.16286e-16)
(1.0057 -0.0031943 7.2596e-16)
(0.998549 2.04252e-05 6.59235e-17)
(0.998604 -0.000903609 -9.53013e-17)
(0.998815 -0.00179018 -4.00532e-17)
(0.999182 -0.00260833 1.20959e-16)
(0.999717 -0.00332384 -1.51861e-16)
(1.00039 -0.00388208 -2.36264e-16)
(1.00119 -0.00425633 3.60939e-16)
(1.00209 -0.00442149 -2.11467e-16)
(1.00302 -0.00437613 -4.49849e-16)
(1.00398 -0.00412509 2.4212e-16)
(1.00493 -0.00371492 -4.11141e-16)
(1.0058 -0.00325725 -5.68761e-16)
(0.998493 2.51104e-05 2.74065e-17)
(0.998549 -0.000917915 -1.01352e-16)
(0.998767 -0.00182324 4.14282e-16)
(0.999144 -0.00265893 -2.02513e-16)
(0.999695 -0.00338961 8.27795e-17)
(1.00039 -0.00395959 -1.92075e-16)
(1.00121 -0.00434149 -4.74346e-16)
(1.00213 -0.00450983 4.12134e-16)
(1.00308 -0.00446307 4.75104e-16)
(1.00406 -0.00420713 -6.00018e-16)
(1.00502 -0.00378813 -2.34393e-16)
(1.00591 -0.00332076 -1.78335e-16)
(0.998435 2.95593e-05 -7.85555e-17)
(0.998493 -0.000932553 3.06113e-17)
(0.998717 -0.00185688 -1.87517e-16)
(0.999105 -0.00271041 2.56625e-17)
(0.999671 -0.00345652 1.14247e-16)
(1.00039 -0.00403843 4.6665e-16)
(1.00123 -0.00442807 5.04871e-18)
(1.00217 -0.00459961 -2.4385e-17)
(1.00314 -0.00455137 -6.5328e-16)
(1.00414 -0.00429034 9.59509e-17)
(1.00512 -0.00386249 -1.35244e-16)
(1.00601 -0.00338453 7.27032e-17)
(0.998376 3.37314e-05 -1.26841e-17)
(0.998435 -0.000947561 -2.33515e-17)
(0.998665 -0.00189113 -2.73647e-16)
(0.999064 -0.00276277 -5.00144e-17)
(0.999647 -0.00352457 -1.79815e-16)
(1.00038 -0.00411858 -1.30154e-16)
(1.00124 -0.00451605 -1.32766e-16)
(1.0022 -0.0046908 1.63185e-16)
(1.0032 -0.00464098 1.83739e-16)
(1.00422 -0.00437463 3.14541e-16)
(1.00522 -0.00393783 4.43793e-16)
(1.00612 -0.00344837 -2.29968e-16)
(0.998317 3.7591e-05 3.06741e-17)
(0.998376 -0.000962978 1.59445e-17)
(0.998613 -0.00192602 2.61265e-16)
(0.999023 -0.00281603 -5.25007e-17)
(0.999621 -0.00359375 -9.68853e-17)
(1.00037 -0.00420003 -1.49339e-16)
(1.00126 -0.00460541 4.43011e-16)
(1.00224 -0.00478334 -2.97198e-16)
(1.00326 -0.00473183 1.05037e-16)
(1.0043 -0.00445993 4.09676e-16)
(1.00531 -0.00401401 -2.60862e-16)
(1.00623 -0.0035122 -4.09175e-17)
(0.998257 4.11086e-05 -4.19404e-17)
(0.998316 -0.000978839 4.33979e-17)
(0.998559 -0.00196156 8.90443e-17)
(0.99898 -0.00287018 1.89754e-16)
(0.999595 -0.00366403 3.42022e-16)
(1.00037 -0.00428274 -2.54658e-16)
(1.00127 -0.00469606 -1.68953e-16)
(1.00228 -0.00487715 1.78201e-17)
(1.00332 -0.00482383 -3.11764e-16)
(1.00438 -0.00454613 -4.48992e-16)
(1.00541 -0.00409091 5.98809e-16)
(1.00633 -0.00357577 2.51451e-16)
(0.998196 4.4261e-05 6.75026e-17)
(0.998255 -0.000995184 8.248e-17)
(0.998504 -0.00199778 -8.45838e-17)
(0.998937 -0.0029252 -1.72073e-16)
(0.999567 -0.00373538 4.47587e-17)
(1.00036 -0.00436664 4.16958e-16)
(1.00129 -0.00478796 -2.97735e-16)
(1.00232 -0.00497214 -1.07609e-17)
(1.00338 -0.00491689 3.97865e-16)
(1.00446 -0.00463315 -3.90214e-16)
(1.00551 -0.00416839 -5.08484e-16)
(1.00644 -0.00363916 -1.3052e-16)
(0.998134 4.7032e-05 8.35122e-18)
(0.998192 -0.00101205 8.44419e-18)
(0.998449 -0.00203468 -2.78303e-16)
(0.998892 -0.00298108 -2.2705e-16)
(0.999539 -0.00380775 -3.82124e-16)
(1.00035 -0.00445166 5.20579e-17)
(1.0013 -0.004881 8.53943e-17)
(1.00236 -0.00506824 -5.94409e-17)
(1.00344 -0.00501095 -3.26845e-16)
(1.00454 -0.00472097 7.32896e-16)
(1.00561 -0.00424642 3.79974e-16)
(1.00655 -0.0037023 -1.1744e-16)
(0.998071 4.9412e-05 -3.96511e-17)
(0.998128 -0.00102948 -7.72931e-17)
(0.998392 -0.0020723 3.71002e-16)
(0.998846 -0.00303784 3.37988e-16)
(0.99951 -0.00388112 -7.43154e-18)
(1.00034 -0.00453779 7.23526e-17)
(1.00132 -0.00497517 -1.1237e-16)
(1.00239 -0.0051654 8.26025e-17)
(1.0035 -0.00510601 3.47938e-16)
(1.00462 -0.00480963 -1.80962e-16)
(1.0057 -0.00432509 1.29051e-16)
(1.00666 -0.00376565 2.18132e-16)
(0.998007 5.13975e-05 -2.48101e-18)
(0.998064 -0.0010475 5.34781e-17)
(0.998333 -0.00211067 -1.62428e-16)
(0.9988 -0.00309548 -3.19436e-16)
(0.99948 -0.00395551 1.93503e-16)
(1.00033 -0.00462499 -4.43921e-16)
(1.00133 -0.00507043 1.31222e-16)
(1.00243 -0.00526365 -1.94956e-16)
(1.00357 -0.00520209 3.08368e-17)
(1.0047 -0.00489919 1.85606e-16)
(1.0058 -0.00440424 -1.60096e-16)
(1.00677 -0.00382915 -4.86147e-16)
(0.997942 5.29904e-05 2.29207e-17)
(0.997997 -0.00106616 -1.48483e-16)
(0.998274 -0.00214984 1.6666e-16)
(0.998752 -0.00315404 2.79994e-16)
(0.999449 -0.00403092 -3.60198e-16)
(1.00032 -0.00471331 -3.04885e-17)
(1.00134 -0.00516684 2.19401e-16)
(1.00247 -0.00536303 -2.64902e-16)
(1.00363 -0.00529926 -3.21125e-16)
(1.00478 -0.00498977 9.08931e-17)
(1.0059 -0.00448392 -2.78934e-16)
(1.00688 -0.00389315 4.28158e-16)
(0.997876 5.41974e-05 1.50622e-17)
(0.99793 -0.00108547 7.82593e-17)
(0.998214 -0.00218983 -7.73289e-17)
(0.998703 -0.00321357 2.35942e-16)
(0.999417 -0.00410743 1.75049e-16)
(1.00031 -0.0048028 1.47461e-16)
(1.00136 -0.00526446 -2.48084e-16)
(1.0025 -0.00546365 3.78232e-16)
(1.00369 -0.00539764 -3.36521e-18)
(1.00486 -0.00508149 -7.20602e-16)
(1.006 -0.00456437 1.3799e-16)
(1.00699 -0.00395804 -2.69472e-17)
(0.997809 5.50293e-05 -2.40113e-17)
(0.997861 -0.00110548 8.08409e-17)
(0.998152 -0.0022307 -2.69388e-16)
(0.998654 -0.00327413 -1.97671e-16)
(0.999384 -0.00418509 4.02496e-17)
(1.0003 -0.00489355 1.55049e-16)
(1.00137 -0.00536339 2.59126e-16)
(1.00254 -0.00556562 3.53797e-17)
(1.00375 -0.00549736 2.80456e-17)
(1.00495 -0.00517451 4.7984e-16)
(1.0061 -0.00464586 1.46181e-16)
(1.0071 -0.00402432 -2.33779e-16)
(0.997741 5.54999e-05 -1.89792e-17)
(0.997791 -0.00112618 -2.24321e-17)
(0.998088 -0.00227246 2.85529e-16)
(0.998602 -0.00333576 4.56161e-18)
(0.99935 -0.00426397 2.46124e-16)
(1.00029 -0.00498565 -2.32105e-16)
(1.00138 -0.00546375 -1.51982e-16)
(1.00258 -0.00566906 -4.51679e-17)
(1.00381 -0.00559854 5.44804e-18)
(1.00503 -0.00526893 2.91484e-16)
(1.0062 -0.0047284 -4.54924e-16)
(1.00721 -0.00409176 -2.68835e-16)
(0.997671 5.56258e-05 5.1755e-18)
(0.997719 -0.00114759 -7.87994e-17)
(0.998023 -0.00231516 -2.76195e-16)
(0.99855 -0.00339851 4.92495e-17)
(0.999315 -0.00434416 2.30094e-17)
(1.00027 -0.00507918 2.92906e-18)
(1.00139 -0.00556564 -8.03017e-17)
(1.00261 -0.00577408 3.49284e-16)
(1.00387 -0.00570127 3.83167e-16)
(1.00511 -0.00536483 -2.55043e-16)
(1.0063 -0.00481212 6.89112e-16)
(1.00732 -0.00416044 6.34375e-16)