/*--------------------------------*- C++ -*----------------------------------*\
  =========                 |
  \\      /  F ield         | OpenFOAM: The Open Source CFD Toolbox
   \\    /   O peration     | Website:  https://openfoam.org
    \\  /    A nd           | Version:  6.0
     \\/     M anipulation  |
\*---------------------------------------------------------------------------*/
FoamFile
{
    version     2.0;
    format      ascii;
    class       surfaceScalarField;
    location    "19";
    object      phi;
}
// * * * * * * * * * * * * * * * * * * * * * * * * * * * * * * * * * * * * * //

dimensions      [0 3 -1 0 0 0 0];

internalField   nonuniform List<scalar> 
93586
(
1.75027e-05
0.0010292
1.06515e-08
3.54096e-05
0.00102592
5.35463e-05
0.00101992
7.17375e-05
0.00101124
8.98571e-05
0.000999848
0.000107809
0.000985747
0.000125525
0.000968949
0.000142938
0.000949495
0.000159996
0.000927422
0.000176641
0.000902795
0.000192822
0.000875679
0.000208488
0.000846151
0.00022359
0.000814298
0.000238084
0.000780215
0.000251923
0.000744002
0.000265069
0.000705763
0.00027748
0.00066561
0.000289122
0.000623652
0.000299959
0.000580009
0.000309962
0.000534794
0.000319099
0.000488131
0.000327346
0.000440138
0.000334679
0.000390941
0.000341076
0.000340666
0.000346518
0.000289439
0.000350992
0.000237389
0.000354462
0.000184646
0.00035706
0.00013121
0.000358361
7.7301e-05
2.4524e-05
0.000354661
1.72008e-05
0.001012
-2.18401e-10
3.47848e-05
0.00100834
5.25904e-05
0.00100212
7.04463e-05
0.000993385
8.82306e-05
0.000982064
0.000105852
0.000968126
0.000123245
0.000951557
0.000140344
0.000932397
0.000157098
0.000910669
0.000173449
0.000886446
0.000189344
0.000859786
0.000204734
0.000830764
0.00021957
0.000799465
0.000233806
0.000765982
0.000247399
0.000730412
0.000260309
0.000692857
0.000272496
0.000653425
0.000283927
0.000612225
0.000294567
0.000569371
0.000304386
0.000524977
0.000313356
0.000479161
0.000321452
0.000432042
0.000328651
0.000383742
0.000334932
0.000334383
0.000340277
0.000284093
0.000344673
0.000232991
0.000348096
0.00018122
0.000350462
0.000128842
0.00035172
7.60414e-05
2.34525e-05
0.000352786
1.68966e-05
0.000995115
-1.00932e-08
3.41577e-05
0.000991077
5.16356e-05
0.000984641
6.91642e-05
0.000975857
8.66256e-05
0.000964603
0.000103931
0.000950821
0.000121016
0.000934472
0.000137816
0.000915598
0.000154279
0.000894208
0.000170345
0.000870381
0.000185962
0.000844169
0.000201081
0.000815646
0.000215654
0.000784893
0.000229636
0.000752001
0.000242985
0.000717063
0.000255662
0.000680181
0.000267629
0.000641458
0.000278851
0.000601003
0.000289296
0.000558926
0.000298935
0.000515339
0.000307739
0.000470357
0.000315686
0.000424095
0.000322752
0.000376676
0.000328919
0.000328218
0.000334167
0.000278846
0.000338479
0.000228681
0.000341834
0.000177868
0.000344187
0.000126491
0.000345505
7.47262e-05
2.38292e-05
0.000345134
1.65899e-05
0.000978539
-1.41981e-08
3.35336e-05
0.000974133
5.06924e-05
0.000967482
6.79047e-05
0.000958645
8.50554e-05
0.000947453
0.000102057
0.00093382
0.000118844
0.000917684
0.000135352
0.00089909
0.000151527
0.000878032
0.000167312
0.000854597
0.000182653
0.000828828
0.000197503
0.000800796
0.000211814
0.000770582
0.000225545
0.000738271
0.000238651
0.000703957
0.000251097
0.000667737
0.000262843
0.000629713
0.000273858
0.00058999
0.000284108
0.000548676
0.000293567
0.000505882
0.000302206
0.000461718
0.000310004
0.000416299
0.000316936
0.000369743
0.000322986
0.000322168
0.000328133
0.000273699
0.000332358
0.000224457
0.000335639
0.000174586
0.000337946
0.000124185
0.000339225
7.34471e-05
2.37026e-05
0.000339349
1.62866e-05
0.000962265
-1.31967e-08
3.29226e-05
0.000957498
4.97726e-05
0.000950632
6.66784e-05
0.000941739
8.35269e-05
0.000930605
0.00010023
0.000917116
0.000116724
0.000901191
0.000132942
0.000882872
0.000148833
0.000862143
0.000164337
0.000839093
0.000179404
0.000813761
0.000193987
0.000786213
0.00020804
0.000756529
0.000221521
0.00072479
0.000234388
0.000691089
0.000246605
0.00065552
0.000258135
0.000618182
0.000268945
0.000579179
0.000279004
0.000538617
0.000288286
0.000496601
0.000296763
0.000453241
0.000304414
0.000408648
0.000311218
0.000362941
0.000317155
0.000316233
0.000322207
0.000268649
0.000326356
0.000220311
0.000329583
0.000171362
0.000331857
0.000121914
0.000333177
7.21299e-05
2.3307e-05
0.000333578
1.59902e-05
0.000946285
-1.02742e-08
3.23282e-05
0.000941159
4.88785e-05
0.000934082
6.54854e-05
0.000925132
8.20372e-05
0.000914053
9.84467e-05
0.000900706
0.00011465
0.000884988
0.00013058
0.000866941
0.000146187
0.000846535
0.000161413
0.000823866
0.00017621
0.000798964
0.000190529
0.000771893
0.000204328
0.00074273
0.000217564
0.000711554
0.000230197
0.000678456
0.00024219
0.000643527
0.000253507
0.000606865
0.000264118
0.00056857
0.00027399
0.000528744
0.0002831
0.000487493
0.00029142
0.000444922
0.00029893
0.000401139
0.000305609
0.000356262
0.000311439
0.000310404
0.000316402
0.000263686
0.000320479
0.000216233
0.000323656
0.000168186
0.000325911
0.000119658
0.000327243
7.07985e-05
2.29472e-05
0.000327601
1.57011e-05
0.000930591
-7.19642e-09
3.17492e-05
0.000925112
4.80068e-05
0.000917824
6.43206e-05
0.000908818
8.05801e-05
0.000897794
9.66991e-05
0.000884587
0.000112614
0.000869073
0.00012826
0.000851296
0.000143586
0.000831209
0.000158538
0.000808915
0.000173067
0.000784435
0.000187128
0.000757833
0.000200676
0.000729181
0.000213671
0.000698559
0.000226073
0.000666053
0.000237847
0.000631754
0.000248955
0.000595755
0.00025937
0.000558155
0.00026906
0.000519054
0.000278001
0.000478552
0.000286168
0.000436755
0.000293541
0.000393767
0.000300099
0.000349705
0.000305824
0.00030468
0.000310699
0.000258813
0.000314707
0.000212228
0.000317831
0.000165064
0.000320061
0.000117431
0.000321405
6.94576e-05
2.25594e-05
0.000321798
1.54184e-05
0.000915174
-1.91364e-09
3.11829e-05
0.000909347
4.71535e-05
0.000901853
6.31788e-05
0.000892792
7.91501e-05
0.000881822
9.4982e-05
0.000868755
0.000110612
0.000853443
0.000125976
0.000835931
0.000141027
0.000816159
0.000155708
0.000794233
0.000169974
0.000770169
0.000183779
0.000744027
0.00019708
0.000715879
0.000209838
0.000685801
0.000222012
0.000653878
0.000233569
0.000620198
0.000244473
0.000584851
0.000254695
0.000547934
0.000264206
0.000509542
0.000272983
0.000469776
0.000281001
0.000428737
0.00028824
0.000386529
0.00029468
0.000343266
0.000300303
0.000299057
0.000305094
0.000254022
0.000309036
0.000208286
0.000312113
0.000161987
0.000314317
0.000115227
0.000315677
6.80972e-05
2.20285e-05
0.000316206
1.5141e-05
0.000900027
5.40683e-09
3.06273e-05
0.000893861
4.63153e-05
0.000886166
6.20564e-05
0.000877051
7.77432e-05
0.000866136
9.32918e-05
0.000853207
0.000108641
0.000838095
0.000123728
0.000820843
0.000138506
0.000801381
0.000152921
0.000779818
0.000166927
0.000756163
0.00018048
0.000730474
0.000193539
0.00070282
0.000206062
0.000673278
0.000218012
0.000641927
0.000229356
0.000608854
0.000240059
0.000574148
0.000250093
0.0005379
0.00025943
0.000500205
0.000268047
0.00046116
0.000275919
0.000420864
0.00028303
0.00037942
0.000289356
0.00033694
0.000294883
0.000293532
0.000299594
0.000249313
0.000303475
0.000204408
0.000306511
0.000158952
0.000308693
0.000113048
0.000310059
6.67336e-05
2.13807e-05
0.000310711
1.48683e-05
0.000885146
1.25049e-08
3.00805e-05
0.000878648
4.54901e-05
0.000870756
6.09509e-05
0.00086159
7.63572e-05
0.00085073
9.16268e-05
0.000837937
0.0001067
0.000823022
0.000121514
0.000806028
0.000136025
0.000786871
0.000150178
0.000765664
0.000163929
0.000742411
0.000177235
0.000717168
0.000190054
0.000690001
0.000202347
0.000660984
0.000214077
0.000630196
0.000225212
0.00059772
0.000235718
0.000563641
0.000245569
0.00052805
0.000254736
0.000491037
0.000263198
0.000452698
0.000270931
0.000413131
0.000277918
0.000372434
0.000284136
0.000330721
0.000289571
0.000288097
0.000294206
0.000244678
0.000298029
0.000200585
0.000301028
0.000155953
0.00030319
0.000110886
0.000304547
6.5377e-05
2.06765e-05
0.000305249
1.45997e-05
0.000870529
1.78665e-08
2.95417e-05
0.000863707
4.46769e-05
0.000855621
5.98613e-05
0.000846406
7.49914e-05
0.000835601
8.99865e-05
0.000822942
0.000104788
0.000808221
0.000119335
0.000791481
0.000133582
0.000772624
0.000147479
0.000751768
0.00016098
0.00072891
0.000174043
0.000704105
0.000186627
0.000677416
0.000198695
0.000648916
0.00021021
0.000618681
0.00022114
0.000586789
0.000231455
0.000553326
0.000241127
0.000518378
0.00025013
0.000482034
0.000258443
0.000444387
0.000266041
0.000405533
0.000272907
0.000365569
0.000279021
0.000324608
0.000284368
0.000282752
0.00028893
0.000240117
0.000292697
0.00019682
0.000295658
0.000152995
0.0002978
0.000108746
0.000299139
6.40411e-05
1.9992e-05
0.000299828
1.43349e-05
0.00085617
2.26871e-08
2.90106e-05
0.000849031
4.38752e-05
0.000840756
5.87875e-05
0.000831494
7.36458e-05
0.000820742
8.8371e-05
0.000808217
0.000102905
0.000793687
0.00011719
0.000777196
0.00013118
0.000758634
0.000144824
0.000738122
0.00015808
0.000715654
0.000170905
0.00069128
0.000183259
0.000665062
0.000195106
0.000637069
0.000206411
0.000607375
0.000217143
0.000576058
0.000227271
0.000543198
0.00023677
0.00050888
0.000245613
0.00047319
0.00025378
0.000436221
0.000261247
0.000398065
0.000267998
0.00035882
0.000274011
0.000318595
0.000279271
0.000277493
0.000283763
0.000235625
0.000287474
0.00019311
0.000290395
0.000150073
0.000292517
0.000106623
0.000293835
6.27229e-05
1.93457e-05
0.000294479
1.4074e-05
0.000842069
2.77279e-08
2.84872e-05
0.000834618
4.30853e-05
0.000826159
5.77297e-05
0.00081685
7.23206e-05
0.000806152
8.67805e-05
0.000793757
0.000101053
0.000779416
0.00011508
0.000763169
0.000128817
0.000744897
0.000142214
0.000724725
0.000155229
0.000702639
0.00016782
0.000678688
0.000179949
0.000652932
0.00019158
0.000625438
0.00020268
0.000596275
0.000213218
0.00056552
0.000223164
0.000533251
0.000232494
0.00049955
0.000241183
0.000464502
0.000249209
0.000428196
0.000256549
0.000390725
0.000263187
0.000352183
0.000269101
0.000312681
0.000274277
0.000272318
0.000278699
0.000231205
0.000282355
0.000189456
0.000285237
0.000147194
0.000287336
0.000104527
0.000288635
6.14259e-05
1.87544e-05
0.000289231
1.3817e-05
0.00082822
3.19648e-08
2.79718e-05
0.000820463
4.23075e-05
0.000811823
5.66883e-05
0.000802469
7.10163e-05
0.000791824
8.52155e-05
0.000779558
9.92301e-05
0.000765401
0.000113003
0.000749396
0.000126492
0.000731409
0.000139646
0.000711571
0.000152424
0.000689861
0.000164787
0.000666326
0.000176695
0.000641023
0.000188116
0.000614017
0.000199015
0.000585376
0.000209364
0.000555172
0.000219134
0.000523481
0.0002283
0.000490384
0.000236838
0.000455963
0.000244727
0.000420308
0.000251944
0.000383508
0.000258472
0.000345656
0.00026429
0.000306862
0.000269384
0.000267225
0.000273737
0.000226851
0.000277338
0.000185855
0.000280179
0.000144354
0.000282252
0.000102453
0.000283535
6.01429e-05
1.81949e-05
0.000284091
1.35642e-05
0.000814621
3.50349e-08
2.74646e-05
0.000806564
4.15422e-05
0.000797746
5.56637e-05
0.000788348
6.97331e-05
0.000777755
8.36758e-05
0.000765615
9.74371e-05
0.000751641
0.000110961
0.000735872
0.000124205
0.000718166
0.00013712
0.000698655
0.000149666
0.000677315
0.000161804
0.000654188
0.000173497
0.00062933
0.000184711
0.000602803
0.000195415
0.000574672
0.00020558
0.000545007
0.000215178
0.000513882
0.000224186
0.000481377
0.000232577
0.000447572
0.000240333
0.000412553
0.00024743
0.000376411
0.00025385
0.000339237
0.000259575
0.000301139
0.000264588
0.000262213
0.000268873
0.000222567
0.00027242
0.00018231
0.000275219
0.000141557
0.000277263
0.000100411
0.000278531
5.88776e-05
1.76678e-05
0.000279062
1.33157e-05
0.000801267
3.80128e-08
2.69658e-05
0.000792913
4.07895e-05
0.000783922
5.4656e-05
0.000774481
6.84712e-05
0.000763941
8.21616e-05
0.000751925
9.56736e-05
0.000738129
0.000108952
0.000722593
0.000121955
0.000705162
0.000134636
0.000685974
0.000146955
0.000664996
0.000158873
0.00064227
0.000170355
0.000617848
0.000181368
0.00059179
0.000191881
0.000564158
0.000201867
0.000535021
0.000211299
0.000504451
0.000220151
0.000472525
0.000228401
0.000439322
0.000236026
0.000404928
0.000243006
0.000369431
0.000249322
0.000332922
0.000254954
0.000295507
0.000259887
0.000257281
0.000264105
0.000218349
0.000267597
0.000178818
0.000270353
0.000138801
0.000272367
9.83961e-05
0.000273619
5.76248e-05
1.71489e-05
0.000274135
1.30714e-05
0.000788154
4.16087e-08
2.64754e-05
0.00077951
4.00495e-05
0.000770349
5.36653e-05
0.000760866
6.72305e-05
0.000750376
8.06728e-05
0.000738483
9.39396e-05
0.000724863
0.000106977
0.000709556
0.000119744
0.000692396
0.000132195
0.000673524
0.00014429
0.000652901
0.000155992
0.000630567
0.000167268
0.000606572
0.000178085
0.000580972
0.000188414
0.000553829
0.000198225
0.000525209
0.000207494
0.000495182
0.000216196
0.000463823
0.000224307
0.000431211
0.000231806
0.00039743
0.000238671
0.000362567
0.000244884
0.00032671
0.000250425
0.000289966
0.000255279
0.000252428
0.000259431
0.000214199
0.000262867
0.000175384
0.000265579
0.000136091
0.000267561
9.64168e-05
0.000268796
5.63917e-05
1.66473e-05
0.000269302
1.28316e-05
0.000775277
4.51297e-08
2.59936e-05
0.000766348
3.93223e-05
0.00075702
5.26916e-05
0.000747497
6.6011e-05
0.000737057
7.92094e-05
0.000725284
9.22353e-05
0.000711837
0.000105036
0.000696756
0.000117571
0.000679861
0.000129796
0.000661299
0.000141672
0.000641025
0.000153165
0.000619075
0.00016424
0.000595497
0.000174865
0.000570347
0.000185013
0.000543682
0.000194656
0.000515567
0.000203766
0.000486071
0.000212321
0.000455268
0.000220297
0.000423236
0.000227672
0.000390055
0.000234424
0.000355814
0.000240536
0.000320599
0.000245987
0.000284515
0.000250762
0.000247654
0.000254846
0.000210115
0.000258227
0.000172003
0.000260893
0.000133424
0.000262841
9.44685e-05
0.000264058
5.51743e-05
1.61464e-05
0.000264555
1.25962e-05
0.000762633
4.80502e-08
2.55203e-05
0.000753425
3.86078e-05
0.000743934
5.17349e-05
0.00073437
6.48127e-05
0.00072398
7.77716e-05
0.000712326
9.05609e-05
0.000699048
0.000103129
0.000684187
0.000115437
0.000667553
0.000127441
0.000649295
0.000139104
0.000629362
0.000150391
0.000607788
0.00016127
0.000584619
0.000171709
0.000559907
0.000181681
0.00053371
0.000191158
0.00050609
0.000200114
0.000477115
0.000208526
0.000446857
0.000216368
0.000415393
0.000223622
0.000382803
0.000230263
0.000349173
0.000236274
0.000314589
0.000241636
0.000279154
0.000246333
0.000242958
0.000250349
0.0002061
0.000253672
0.000168681
0.000256293
0.000130805
0.000258205
9.2559e-05
0.0002594
5.39818e-05
1.56639e-05
0.000259887
1.23653e-05
0.000750217
5.07632e-08
2.50554e-05
0.000740734
3.79059e-05
0.000731083
5.0795e-05
0.000721481
6.36356e-05
0.00071114
7.63593e-05
0.000699602
8.89166e-05
0.000686492
0.000101257
0.000671847
0.000113343
0.000655468
0.00012513
0.000637507
0.000136585
0.000617907
0.000147672
0.000596701
0.000158359
0.000573931
0.000168617
0.000549649
0.000178417
0.00052391
0.000187732
0.000496775
0.000196537
0.00046831
0.000204808
0.000438587
0.00021252
0.00040768
0.000219654
0.00037567
0.000226185
0.000342641
0.000232097
0.000308678
0.00023737
0.000273881
0.000241987
0.000238341
0.000245935
0.000202152
0.000249201
0.000165416
0.000251775
0.000128231
0.00025365
9.06832e-05
0.00025482
5.28101e-05
1.51859e-05
0.000255294
1.21387e-05
0.000738026
5.33336e-08
2.4599e-05
0.000728275
3.72166e-05
0.000718466
4.9872e-05
0.000708826
6.24798e-05
0.000698533
7.49728e-05
0.000687109
8.73028e-05
0.000674162
9.94204e-05
0.000659729
0.000111288
0.0006436
0.000122865
0.00062593
0.000134116
0.000606657
0.000145007
0.000585809
0.000155508
0.00056343
0.000165588
0.000539568
0.000175221
0.000514277
0.000184378
0.000487617
0.000193035
0.000459653
0.000201167
0.000430454
0.000208751
0.000400096
0.000215766
0.000368657
0.000222188
0.000336219
0.000228001
0.000302865
0.000233184
0.000268699
0.000237723
0.000233803
0.000241602
0.000198275
0.00024481
0.00016221
0.000247335
0.000125708
0.000249172
8.88487e-05
0.000250316
5.16687e-05
1.47335e-05
0.000250774
1.19165e-05
0.000726054
5.52099e-08
2.4151e-05
0.00071604
3.65399e-05
0.000706078
4.89659e-05
0.0006964
6.13453e-05
0.000686154
7.36123e-05
0.000674842
8.57197e-05
0.000662055
9.76192e-05
0.00064783
0.000109275
0.000631945
0.000120645
0.000614559
0.000131697
0.000595605
0.000142398
0.000575109
0.000152716
0.000553112
0.000162623
0.000529661
0.000172091
0.000504809
0.000181094
0.000478615
0.000189605
0.000451142
0.000197601
0.000422459
0.000205057
0.000392639
0.000211954
0.000361761
0.000218268
0.000329905
0.000223983
0.000297152
0.000229077
0.000263604
0.000233537
0.000229344
0.000237346
0.000194465
0.000240495
0.000159062
0.000242971
0.000123231
0.000244769
8.70497e-05
0.000245885
5.05517e-05
1.42908e-05
0.000246323
1.16987e-05
0.0007143
5.60337e-08
2.37114e-05
0.000704029
3.58757e-05
0.000693914
4.80768e-05
0.000684199
6.02323e-05
0.000673999
7.22779e-05
0.000662797
8.41675e-05
0.000650166
9.58537e-05
0.000636143
0.000107301
0.000620498
0.000118471
0.000603389
0.000129329
0.000584747
0.000139843
0.000564595
0.000149983
0.000542972
0.00015972
0.000519924
0.000169027
0.000495502
0.000177877
0.000469765
0.000186245
0.000442774
0.000194106
0.000414598
0.000201437
0.000385308
0.000208217
0.000354981
0.000214423
0.000323698
0.000220039
0.000291538
0.000225044
0.000258599
0.000229424
0.000224965
0.000233165
0.000190726
0.000236254
0.000155974
0.00023868
0.000120806
0.000240439
8.52938e-05
0.000241524
4.94687e-05
1.38795e-05
0.000241942
1.14851e-05
0.000702759
5.61833e-08
2.32801e-05
0.000692234
3.52242e-05
0.000681971
4.72046e-05
0.000672219
5.91408e-05
0.000662064
7.09697e-05
0.000650968
8.26461e-05
0.00063849
9.4124e-05
0.000624666
0.000105369
0.000609253
0.000116342
0.000592416
0.00012701
0.000574079
0.000137342
0.000554263
0.000147307
0.000533006
0.000156878
0.000510353
0.000166027
0.000486354
0.000174727
0.000461065
0.000182952
0.000434549
0.00019068
0.000406871
0.000197886
0.000378102
0.00020455
0.000348319
0.000210649
0.000317599
0.000216166
0.000286021
0.000221083
0.000253683
0.000225383
0.000220665
0.000229054
0.000187055
0.000232083
0.000152945
0.00023446
0.000118428
0.000236179
8.35741e-05
0.000237234
4.84115e-05
1.34799e-05
0.000237628
1.12758e-05
0.000691428
5.59158e-08
2.28572e-05
0.000680653
3.45853e-05
0.000670243
4.63495e-05
0.000660455
5.80709e-05
0.000650343
6.96876e-05
0.000639351
8.11557e-05
0.000627022
9.24298e-05
0.000613391
0.000103476
0.000598207
0.000114257
0.000581636
0.000124739
0.000563596
0.000134893
0.000544109
0.000144687
0.000523211
0.000154094
0.000500946
0.000163087
0.000477361
0.000171639
0.000452513
0.000179724
0.000426463
0.00018732
0.000399275
0.000194402
0.00037102
0.00020095
0.000341771
0.000206942
0.000311607
0.000212362
0.000280603
0.000217189
0.000248856
0.000221411
0.000216444
0.000225012
0.000183455
0.000227981
0.000149978
0.000230309
0.000116102
0.000231988
8.18979e-05
0.000233012
4.73896e-05
1.31142e-05
0.000233384
1.10707e-05
0.000680303
5.52822e-08
2.24426e-05
0.000669282
3.3959e-05
0.000658727
4.55113e-05
0.000648903
5.70224e-05
0.000638832
6.84317e-05
0.000627942
7.96959e-05
0.000615759
9.07707e-05
0.000602317
0.000101623
0.000587355
0.000112215
0.000571043
0.000122516
0.000553296
0.000132494
0.000534131
0.00014212
0.000513585
0.000151366
0.0004917
0.000160205
0.000468523
0.000168611
0.000444108
0.000176558
0.000418516
0.000184023
0.000391811
0.000190982
0.000364061
0.000197415
0.000335339
0.000203301
0.000305721
0.000208623
0.000275282
0.000213362
0.000244117
0.000217504
0.000212303
0.000221036
0.000179924
0.000223946
0.000147068
0.000226224
0.000113823
0.000227863
8.02573e-05
0.000228858
4.63928e-05
1.27587e-05
0.000229207
1.08697e-05
0.00066938
5.44059e-08
2.20362e-05
0.000658116
3.33452e-05
0.000647419
4.46901e-05
0.000637558
5.59954e-05
0.000627527
6.72015e-05
0.000616736
7.82662e-05
0.000604694
8.9146e-05
0.000591436
9.98083e-05
0.000576692
0.000110216
0.000560635
0.000120339
0.000543173
0.000130145
0.000524325
0.000139605
0.000504124
0.000148693
0.000482612
0.00015738
0.000459835
0.000165641
0.000435847
0.00017345
0.000410706
0.000180785
0.000384476
0.000187622
0.000357223
0.000193941
0.00032902
0.000199721
0.00029994
0.000204946
0.000270058
0.000209597
0.000239466
0.000213661
0.00020824
0.000217124
0.000176462
0.000219975
0.000144218
0.000222204
0.000111596
0.000223805
7.86596e-05
0.00022477
4.54308e-05
1.24369e-05
0.000225099
1.06728e-05
0.000658654
5.37779e-08
2.1638e-05
0.000647151
3.27438e-05
0.000636314
4.38856e-05
0.000626417
5.49894e-05
0.000616424
6.59967e-05
0.000605729
7.6866e-05
0.000593825
8.75548e-05
0.000580748
9.80309e-05
0.000566217
0.000108258
0.000550408
0.000118205
0.000533226
0.000127842
0.000514688
0.000137139
0.000494827
0.00014607
0.000473681
0.000154607
0.000451298
0.000162725
0.00042773
0.000170398
0.000403033
0.000177604
0.00037727
0.00018432
0.000350508
0.000190526
0.000322815
0.000196202
0.000294265
0.00020133
0.00026493
0.000205894
0.000234903
0.00020988
0.000204254
0.000213275
0.000173067
0.000216068
0.000141425
0.000218249
0.000109413
0.000219812
7.70958e-05
0.000220748
4.44916e-05
1.21212e-05
0.000221057
1.04797e-05
0.000648122
5.36314e-08
2.12479e-05
0.000636384
3.21547e-05
0.000625408
4.30976e-05
0.000615474
5.40041e-05
0.000605518
6.48166e-05
0.000594916
7.54946e-05
0.000583147
8.59962e-05
0.000570246
9.62895e-05
0.000555923
0.000106339
0.000540358
0.000116114
0.000523451
0.000125584
0.000505218
0.000134721
0.00048569
0.000143497
0.000464905
0.000151885
0.000442909
0.000159861
0.000419754
0.0001674
0.000395494
0.000174479
0.000370192
0.000181074
0.000343911
0.000187168
0.000316721
0.000192739
0.000288694
0.000197773
0.000259898
0.00020225
0.000230425
0.00020616
0.000200346
0.000209487
0.000169741
0.000212223
0.000138691
0.000214357
0.000107281
0.000215883
7.55731e-05
0.000216792
4.35853e-05
1.18378e-05
0.000217084
1.02905e-05
0.000637778
5.40522e-08
2.08656e-05
0.000625809
3.15776e-05
0.000614696
4.23258e-05
0.000604726
5.30389e-05
0.000594806
6.36607e-05
0.000584294
7.41511e-05
0.000572658
8.44689e-05
0.000559928
9.45828e-05
0.00054581
0.000104457
0.000530483
0.000114063
0.000513847
0.000123368
0.000495912
0.000132347
0.000476712
0.00014097
0.000456282
0.000149212
0.000434668
0.000157048
0.000411919
0.000164453
0.00038809
0.000171405
0.000363241
0.000177882
0.000337435
0.000183865
0.00031074
0.000189333
0.000283225
0.000194272
0.00025496
0.000198665
0.000226033
0.000202498
0.000196513
0.00020576
0.000166479
0.00020844
0.000136011
0.000210528
0.000105192
0.000212018
7.40822e-05
0.000212901
4.26991e-05
1.15556e-05
0.000213176
1.01051e-05
0.000627619
5.49921e-08
2.0491e-05
0.000615424
3.10122e-05
0.000604175
4.15696e-05
0.000594168
5.20933e-05
0.000584282
6.2528e-05
0.000573859
7.28344e-05
0.000562351
8.29718e-05
0.00054979
9.29093e-05
0.000535872
0.000102612
0.00052078
0.00011205
0.000504408
0.000121194
0.000486768
0.000130016
0.00046789
0.000138488
0.000447809
0.000146585
0.00042657
0.000154282
0.000404221
0.000161555
0.000380816
0.000168382
0.000356413
0.000174741
0.000331075
0.000180614
0.000304867
0.000185981
0.000277858
0.000190828
0.000250114
0.000195136
0.000221724
0.000198895
0.000192755
0.000202092
0.000163283
0.000204717
0.000133388
0.000206761
0.00010315
0.000208216
7.26299e-05
0.000209075
4.18432e-05
1.13038e-05
0.000209336
9.92319e-06
0.00061764
5.65642e-08
2.01239e-05
0.000605223
3.04582e-05
0.000593842
4.08286e-05
0.000583798
5.11667e-05
0.000573945
6.14178e-05
0.000563608
7.15435e-05
0.000552226
8.15036e-05
0.00053983
9.12676e-05
0.000526108
0.000100801
0.000511247
0.000110074
0.000495135
0.000119058
0.000477784
0.000127725
0.000459223
0.000136049
0.000439486
0.000144002
0.000418617
0.000151562
0.000396662
0.000158705
0.000373674
0.000165408
0.000349711
0.000171651
0.000324832
0.000177416
0.000299104
0.000182683
0.000272591
0.000187438
0.000245361
0.000191664
0.000217498
0.00019535
0.00018907
0.000198483
0.00016015
0.000201055
0.000130817
0.000203055
0.000101149
0.000204477
7.12068e-05
0.000205313
4.10046e-05
1.10486e-05
0.000205561
9.74483e-06
0.000607838
5.86452e-08
1.97642e-05
0.000595204
2.99152e-05
0.000583691
4.01023e-05
0.00057361
5.02582e-05
0.000563789
6.03292e-05
0.000553537
7.02773e-05
0.000542278
8.0063e-05
0.000530044
8.96563e-05
0.000516515
9.90229e-05
0.00050188
0.000108134
0.000486024
0.00011696
0.000468958
0.000125474
0.000450708
0.00013365
0.00043131
0.000141462
0.000410804
0.000148887
0.000389237
0.0001559
0.00036666
0.000162482
0.000343129
0.00016861
0.000318703
0.000174268
0.000293446
0.000179437
0.000267422
0.000184102
0.000240696
0.000188247
0.000213353
0.000191861
0.000185456
0.000194933
0.000157079
0.000197452
0.000128299
0.00019941
9.91933e-05
0.0002008
6.98196e-05
0.000201614
4.01934e-05
1.08215e-05
0.000201852
9.56985e-06
0.000598207
6.10975e-08
1.94114e-05
0.000585363
2.93829e-05
0.00057372
3.93901e-05
0.000563603
4.93671e-05
0.000553813
5.92611e-05
0.000543643
6.90346e-05
0.000532505
7.86488e-05
0.00052043
8.80739e-05
0.000507091
9.72762e-05
0.000492678
0.000106227
0.000477074
0.000114897
0.000460288
0.000123261
0.000442345
0.000131291
0.00042328
0.000138964
0.000403132
0.000146255
0.000381947
0.000153141
0.000359774
0.000159602
0.000336669
0.000165618
0.000312688
0.000171171
0.000287895
0.000176242
0.000262351
0.000180819
0.000236121
0.000184885
0.000209288
0.000188429
0.000181913
0.00019144
0.000154069
0.000193909
0.000125831
0.000195826
9.72749e-05
0.000197186
6.84588e-05
0.00019798
3.9397e-05
1.0588e-05
0.000198207
9.39815e-06
0.000588746
6.37069e-08
1.90655e-05
0.000575696
2.88607e-05
0.000563925
3.86914e-05
0.000553772
4.84928e-05
0.000544012
5.82128e-05
0.000533922
6.78146e-05
0.000522903
7.72599e-05
0.000510985
8.65193e-05
0.000497831
9.55596e-05
0.000483637
0.000104352
0.000468281
0.000112869
0.00045177
0.000121084
0.00043413
0.000128971
0.000415393
0.000136506
0.000395598
0.000143664
0.000374788
0.000150425
0.000353013
0.000156768
0.000330326
0.000162672
0.000306783
0.000168122
0.000282445
0.000173098
0.000257374
0.000177588
0.000231631
0.000181577
0.000205299
0.000185053
0.000178437
0.000188005
0.000151117
0.000190425
0.000123412
0.000192302
9.53987e-05
0.000193633
6.71312e-05
0.000194408
3.86252e-05
1.03796e-05
0.000194627
9.22958e-06
0.000579451
6.64084e-08
1.87261e-05
0.000566199
2.83484e-05
0.000554303
3.80058e-05
0.000544115
4.76345e-05
0.000534384
5.71834e-05
0.000524374
6.66162e-05
0.000513471
7.58952e-05
0.000501706
8.49913e-05
0.000488735
9.38719e-05
0.000474757
0.000102509
0.000459645
0.000110874
0.000443405
0.000118943
0.000426063
0.000126688
0.000407648
0.000134086
0.0003882
0.000141115
0.00036776
0.000147753
0.000346376
0.000153979
0.000324101
0.000159774
0.000300989
0.000165122
0.000277099
0.000170005
0.000252492
0.00017441
0.000227228
0.000178323
0.000201387
0.000181732
0.00017503
0.000184626
0.000148223
0.000186999
0.000121041
0.000188838
9.35576e-05
0.000190141
6.58277e-05
0.000190899
3.78662e-05
1.01644e-05
0.00019111
9.06408e-06
0.000570318
6.90564e-08
1.83929e-05
0.00055687
2.78455e-05
0.00054485
3.73325e-05
0.000534627
4.67915e-05
0.000524925
5.61721e-05
0.000514993
6.54386e-05
0.000504205
7.45538e-05
0.00049259
8.3489e-05
0.0004798
9.22121e-05
0.000466033
0.000100696
0.000451161
0.000108912
0.000435189
0.000116835
0.000418139
0.000124441
0.000400042
0.000131706
0.000380935
0.000138606
0.000360858
0.000145122
0.00033986
0.000151234
0.000317989
0.000156922
0.0002953
0.000162171
0.00027185
0.000166962
0.0002477
0.000171284
0.000222905
0.000175122
0.000197548
0.000178467
0.000171685
0.000181305
0.000145385
0.000183631
0.000118716
0.000185434
9.17557e-05
0.000186711
6.45544e-05
0.000187451
3.71291e-05
9.96871e-06
0.000187657
8.90151e-06
0.000561345
7.15694e-08
1.80659e-05
0.000547706
2.73517e-05
0.000535565
3.66712e-05
0.000525307
4.59633e-05
0.000515634
5.51782e-05
0.000505778
6.42809e-05
0.000495103
7.32348e-05
0.000483637
8.20115e-05
0.000471024
9.05795e-05
0.000457465
9.89115e-05
0.00044283
0.00010698
0.00042712
0.000114761
0.000410359
0.00012223
0.000392575
0.000129363
0.000373803
0.000136138
0.000354085
0.000142534
0.000333464
0.000148533
0.000311991
0.000154116
0.000289718
0.000159267
0.000266702
0.000163969
0.000242999
0.00016821
0.000218667
0.000171975
0.000193784
0.000175256
0.000168407
0.00017804
0.000142601
0.000180322
0.000116437
0.000182089
8.99865e-05
0.00018334
6.33031e-05
0.000184066
3.64026e-05
9.76711e-06
0.000184266
8.74181e-06
0.00055253
7.38628e-08
1.77446e-05
0.000538703
2.68665e-05
0.000526443
3.60215e-05
0.000516152
4.51492e-05
0.000506506
5.42011e-05
0.000496725
6.31425e-05
0.000486161
7.19375e-05
0.000474842
8.0558e-05
0.000462403
8.89731e-05
0.00044905
9.7156e-05
0.000434647
0.00010508
0.000419196
0.000112721
0.000402718
0.000120054
0.000385241
0.000127057
0.0003668
0.000133708
0.000347433
0.000139987
0.000327184
0.000145876
0.000306102
0.000151355
0.000284238
0.000156411
0.000261646
0.000161025
0.000238383
0.000165187
0.000214504
0.000168881
0.000190088
0.0001721
0.000165187
0.000174832
0.000139869
0.000177069
0.0001142
0.000178803
8.82537e-05
0.00018003
6.20795e-05
0.000180741
3.56956e-05
9.57967e-06
0.000180938
8.58484e-06
0.000543869
7.59462e-08
1.74289e-05
0.000529859
2.63897e-05
0.000517483
3.53827e-05
0.000507159
4.43488e-05
0.000497541
5.32402e-05
0.000487835
6.20228e-05
0.00047738
7.06612e-05
0.000466204
7.9128e-05
0.000453937
8.73925e-05
0.000440786
9.54285e-05
0.000426612
0.00010321
0.000411415
0.000110712
0.000395216
0.000117912
0.000378042
0.000124788
0.000359925
0.000131318
0.000340904
0.000137482
0.000321022
0.000143262
0.000300324
0.00014864
0.000278861
0.000153602
0.000256687
0.00015813
0.000233856
0.000162214
0.000210424
0.00016584
0.000186464
0.000168999
0.000162032
0.000171679
0.00013719
0.000173874
0.000112007
0.000175575
8.65514e-05
0.000176778
6.08759e-05
0.000177476
3.49971e-05
9.38608e-06
0.000177669
8.43055e-06
0.000535361
7.78046e-08
1.71187e-05
0.000521171
2.5921e-05
0.00050868
3.47547e-05
0.000498325
4.35617e-05
0.000488734
5.22951e-05
0.000479101
6.09213e-05
0.000468753
6.94056e-05
0.000457719
7.77209e-05
0.000445622
8.58372e-05
0.000432669
9.37286e-05
0.00041872
0.000101369