/*--------------------------------*- C++ -*----------------------------------*\
  =========                 |
  \\      /  F ield         | OpenFOAM: The Open Source CFD Toolbox
   \\    /   O peration     | Website:  https://openfoam.org
    \\  /    A nd           | Version:  6.0
     \\/     M anipulation  |
\*---------------------------------------------------------------------------*/
FoamFile
{
    version     2.0;
    format      ascii;
    class       volVectorField;
    location    "19";
    object      U;
}
// * * * * * * * * * * * * * * * * * * * * * * * * * * * * * * * * * * * * * //

dimensions      [0 1 -1 0 0 0 0];

internalField   nonuniform List<vector> 
62000
(
(1 9.31008e-06 -1.69229e-20)
(0.999995 -2.33281e-06 6.12016e-20)
(0.999986 -1.58423e-05 -2.13469e-19)
(0.999973 -3.09498e-05 -4.20552e-20)
(0.999957 -4.72766e-05 -3.29393e-19)
(0.999938 -6.4247e-05 1.00341e-19)
(0.999916 -8.12209e-05 2.18032e-19)
(0.999891 -9.76035e-05 3.18711e-19)
(0.999863 -0.000112988 -5.48413e-19)
(0.999832 -0.000127235 -3.01474e-19)
(0.999798 -0.00014058 -7.77853e-20)
(0.99976 -0.000153633 -1.16465e-19)
(0.999719 -0.000167393 3.91258e-20)
(0.999674 -0.000183148 3.00265e-19)
(0.999626 -0.00020239 6.8817e-19)
(0.999574 -0.000226654 -7.85457e-19)
(0.999519 -0.000257372 3.06921e-19)
(0.999461 -0.000295771 -6.59142e-19)
(0.999401 -0.000342715 1.5583e-21)
(0.999341 -0.000398698 3.18391e-19)
(0.99928 -0.000463767 -6.22003e-19)
(0.99922 -0.000537594 -2.75109e-19)
(0.999161 -0.000619477 4.5656e-19)
(0.999105 -0.00070847 -1.01053e-18)
(0.999053 -0.0008034 6.51064e-19)
(0.999004 -0.000903035 -7.36635e-19)
(0.998961 -0.00100607 6.8908e-19)
(0.998922 -0.00111128 -1.35785e-19)
(0.99889 -0.00121748 4.99966e-19)
(0.998862 -0.00132366 2.49386e-19)
(0.998841 -0.00142892 9.68909e-19)
(0.998825 -0.00153255 3.23538e-19)
(0.998815 -0.00163402 -9.46135e-20)
(0.99881 -0.00173305 -6.26883e-19)
(0.998809 -0.00182955 4.87642e-19)
(0.998812 -0.00192373 3.42675e-19)
(0.998818 -0.00201606 2.05214e-20)
(0.998826 -0.00210735 2.58999e-20)
(0.998836 -0.00219871 -6.83513e-19)
(0.998847 -0.00229162 -5.4821e-20)
(0.998857 -0.00238792 -2.12925e-19)
(0.998867 -0.00248983 -1.783e-19)
(0.998874 -0.00259995 3.7732e-19)
(0.99888 -0.00272131 -2.51727e-19)
(0.998882 -0.00285737 -1.47217e-19)
(0.998881 -0.00301212 1.06747e-19)
(0.998877 -0.00319013 1.8216e-19)
(0.998869 -0.00339673 -1.82521e-20)
(0.998856 -0.00363819 6.05472e-20)
(0.998839 -0.00392209 2.09569e-19)
(0.998817 -0.00425781 2.32355e-19)
(0.998789 -0.00465716 7.55358e-20)
(0.998754 -0.00513572 7.36645e-20)
(0.998707 -0.00571422 -2.62927e-21)
(0.998649 -0.00642198 9.94061e-20)
(0.998554 -0.00730131 2.07818e-20)
(0.998447 -0.00841473 -6.89839e-20)
(0.998078 -0.00988939 -8.38715e-20)
(0.997684 -0.0118428 5.44616e-20)
(0.993671 -0.0143286 -5.55654e-21)
(0.999981 -2.78464e-05 2.9695e-20)
(0.999972 -6.38384e-05 -2.59352e-20)
(0.999958 -9.9885e-05 -7.25841e-20)
(0.999938 -0.000133319 -5.70304e-20)
(0.999912 -0.000162499 8.82612e-20)
(0.999882 -0.000186041 1.7391e-19)
(0.999846 -0.000203244 -2.00837e-19)
(0.999805 -0.000214229 4.90103e-20)
(0.999758 -0.00022011 -4.2664e-19)
(0.999704 -0.000222903 5.45018e-19)
(0.999644 -0.00022548 1.32426e-19)
(0.999577 -0.000231265 -7.72049e-21)
(0.999503 -0.000244 -6.98008e-20)
(0.999422 -0.000267352 1.1172e-19)
(0.999336 -0.000304595 -1.15673e-19)
(0.999246 -0.000358317 1.96483e-19)
(0.999152 -0.000430183 8.37191e-19)
(0.999057 -0.000520861 1.08532e-18)
(0.998963 -0.000629964 -7.26885e-19)
(0.998872 -0.000756214 -7.75997e-19)
(0.998785 -0.000897489 2.13871e-19)
(0.998703 -0.0010512 -1.74895e-19)
(0.998629 -0.00121428 -7.43811e-19)
(0.998564 -0.00138364 1.61808e-18)
(0.998508 -0.00155607 -8.26604e-20)
(0.998462 -0.00172866 1.16811e-19)
(0.998428 -0.00189856 -1.2053e-18)
(0.998404 -0.00206331 5.47279e-19)
(0.998392 -0.00222061 -5.90165e-19)
(0.998391 -0.00236856 -9.85789e-19)
(0.998401 -0.00250541 -2.28157e-19)
(0.998421 -0.00262978 -6.50638e-19)
(0.998451 -0.00274051 8.32273e-19)
(0.998489 -0.00283682 3.73941e-19)
(0.998534 -0.00291821 -9.80338e-19)
(0.998585 -0.00298464 -8.69695e-19)
(0.99864 -0.00303637 7.3042e-20)
(0.998699 -0.00307418 2.58888e-19)
(0.998759 -0.00309917 8.24107e-19)
(0.998819 -0.00311285 -4.45739e-19)
(0.998878 -0.00311703 -1.0807e-20)
(0.998935 -0.00311372 1.36007e-19)
(0.998989 -0.00310513 2.55396e-19)
(0.999041 -0.0030934 2.7495e-19)
(0.999089 -0.00308056 -2.13424e-19)
(0.999135 -0.00306838 -9.09792e-20)
(0.999178 -0.00305815 4.70005e-20)
(0.99922 -0.00305059 1.12163e-20)
(0.999262 -0.00304549 -1.03406e-19)
(0.999305 -0.00304159 -4.13221e-20)
(0.999349 -0.00303614 -4.52306e-20)
(0.999398 -0.00302435 -8.80889e-20)
(0.999452 -0.00299882 -1.86537e-19)
(0.99951 -0.00294844 8.60277e-20)
(0.999573 -0.00285551 -1.08387e-19)
(0.999635 -0.0026967 -4.40798e-20)
(0.999663 -0.00242281 1.08662e-20)
(0.999687 -0.00198775 -3.13292e-20)
(0.9995 -0.00117116 -3.76718e-20)
(1.00095 0.00104853 1.70273e-21)
(0.999952 -6.52291e-05 4.30538e-20)
(0.999946 -0.000104767 -8.89866e-20)
(0.999939 -0.000140946 1.79933e-19)
(0.999928 -0.000169803 7.66421e-20)
(0.999915 -0.000189656 2.36443e-19)
(0.9999 -0.000199574 -5.06056e-20)
(0.99988 -0.000199892 1.87928e-19)
(0.999857 -0.000192216 -1.57538e-19)
(0.999827 -0.000179445 1.12316e-19)
(0.999792 -0.000165464 3.22812e-19)
(0.99975 -0.000154884 -9.357e-20)
(0.999701 -0.000152528 1.57621e-19)
(0.999646 -0.000163074 -3.70207e-19)
(0.999585 -0.000190552 -1.01152e-19)
(0.999519 -0.000237995 -8.70049e-20)
(0.99945 -0.000307252 -1.60068e-19)
(0.99938 -0.000398877 -3.62282e-19)
(0.999309 -0.000512048 -9.38088e-19)
(0.99924 -0.000644925 1.15134e-18)
(0.999175 -0.000794734 1.34867e-19)
(0.999114 -0.000958055 3.40859e-19)
(0.99906 -0.00113129 3.38743e-19)
(0.999012 -0.00131055 4.73175e-19)
(0.998972 -0.00149232 -1.81113e-18)
(0.998941 -0.0016731 8.99428e-19)
(0.998919 -0.00184991 -1.12936e-19)
(0.998906 -0.00201995 5.50227e-20)
(0.998903 -0.00218082 1.38225e-19)
(0.998909 -0.00233032 2.92263e-19)
(0.998924 -0.00246655 7.27024e-19)
(0.998948 -0.00258775 6.31489e-19)
(0.998981 -0.00269248 1.8762e-19)
(0.999021 -0.00277945 -4.14115e-19)
(0.999067 -0.00284781 -3.51154e-19)
(0.999118 -0.00289694 1.12075e-18)
(0.999173 -0.00292677 -3.73927e-19)
(0.999231 -0.0029376 9.27614e-20)
(0.999289 -0.00293033 -4.34726e-19)
(0.999347 -0.00290627 -8.34912e-20)
(0.999402 -0.00286729 9.91062e-20)
(0.999456 -0.00281563 2.75865e-19)
(0.999505 -0.00275387 1.82388e-21)
(0.999551 -0.00268488 -3.3713e-19)
(0.999592 -0.00261161 1.34968e-19)
(0.999629 -0.00253709 2.77406e-19)
(0.999663 -0.00246427 -3.69015e-20)
(0.999693 -0.00239597 8.12214e-21)
(0.999722 -0.00233487 -1.36803e-19)
(0.999749 -0.00228337 1.69696e-19)
(0.999776 -0.00224378 -1.36876e-19)
(0.999803 -0.00221836 -1.02401e-19)
(0.99983 -0.00220946 -9.80744e-20)
(0.999858 -0.00221995 1.12861e-20)
(0.999882 -0.00225381 -4.18457e-20)
(0.999897 -0.002316 6.87737e-20)
(0.999893 -0.00241268 -2.17653e-20)
(0.999853 -0.00255118 -1.84933e-20)
(0.999715 -0.002742 6.29239e-20)
(0.999639 -0.00296685 2.91037e-21)
(0.998514 -0.00287588 6.8449e-21)
(0.999923 -8.06776e-05 2.0398e-20)
(0.999923 -0.000112235 1.167e-20)
(0.999923 -0.000138926 -3.50025e-20)
(0.999923 -0.000157082 -7.08262e-20)
(0.999923 -0.000165854 -9.11908e-21)
(0.999923 -0.000165338 8.79299e-20)
(0.99992 -0.000157 -1.39502e-19)
(0.999915 -0.000143532 8.96009e-20)
(0.999906 -0.000128731 1.55626e-19)
(0.999891 -0.000117094 -4.17187e-19)
(0.999871 -0.000113455 -5.27463e-19)
(0.999846 -0.00012245 2.22533e-19)
(0.999815 -0.000148186 2.24631e-19)
(0.99978 -0.00019382 2.55599e-19)
(0.99974 -0.000261253 -4.05926e-19)
(0.999698 -0.000351157 8.29674e-20)
(0.999654 -0.000462963 2.63022e-19)
(0.99961 -0.000594786 4.65675e-19)
(0.999567 -0.000744053 -3.77347e-19)
(0.999526 -0.000907477 5.0403e-19)
(0.999488 -0.0010814 1.67836e-19)
(0.999454 -0.00126233 -4.49479e-19)
(0.999424 -0.00144656 -5.16076e-19)
(0.999398 -0.00163105 6.8426e-19)
(0.999378 -0.00181276 7.40101e-20)
(0.999364 -0.00198927 8.02555e-19)
(0.999355 -0.00215825 -1.36375e-19)
(0.999351 -0.0023178 -4.27095e-19)
(0.999354 -0.00246605 -1.65017e-19)
(0.999362 -0.00260146 2.17649e-19)
(0.999376 -0.00272251 -6.40271e-19)
(0.999394 -0.00282799 -6.36045e-20)
(0.999416 -0.00291678 3.09549e-19)
(0.999442 -0.00298823 1.12174e-20)
(0.99947 -0.00304189 -7.30523e-20)
(0.9995 -0.00307794 3.87009e-19)
(0.99953 -0.00309686 3.814e-19)
(0.999559 -0.00309982 -1.01975e-19)
(0.999587 -0.00308841 1.56358e-19)
(0.999613 -0.00306473 -7.7509e-19)
(0.999637 -0.00303132 3.65143e-20)
(0.999659 -0.002991 1.00198e-19)
(0.999678 -0.00294691 4.07504e-22)
(0.999696 -0.0029022 -3.03678e-20)
(0.999712 -0.00286009 -1.57512e-19)
(0.99973 -0.00282365 -1.3241e-19)
(0.999749 -0.00279573 -2.04448e-19)
(0.999771 -0.00277894 1.41025e-19)
(0.999798 -0.00277538 -7.07999e-20)
(0.999831 -0.00278672 -6.64549e-20)
(0.999872 -0.00281396 1.48251e-19)
(0.999922 -0.00285725 -5.59731e-20)
(0.999982 -0.00291557 1.63678e-20)
(1.00005 -0.00298607 8.50681e-20)
(1.00013 -0.00306229 2.71538e-20)
(1.00022 -0.00313059 1.6911e-20)
(1.00031 -0.00316337 -2.62781e-20)
(1.0004 -0.00314062 -3.96783e-20)
(1.00049 -0.00299455 1.2473e-20)
(1.00098 -0.0019587 -8.82684e-21)
(0.999898 -8.02065e-05 1.03519e-21)
(0.999902 -0.000107325 5.81781e-20)
(0.999908 -0.000130414 1.1409e-19)
(0.999916 -0.000146538 9.71356e-20)
(0.999926 -0.000155604 -4.2203e-19)
(0.999936 -0.000158394 1.4879e-19)
(0.999947 -0.000156873 -1.32647e-21)
(0.999956 -0.000153947 -1.92558e-19)
(0.999963 -0.00015331 -5.06804e-20)
(0.999967 -0.000159017 2.14466e-19)
(0.999967 -0.000175154 -7.11089e-20)
(0.999963 -0.000205373 1.60931e-20)
(0.999956 -0.000252653 4.23111e-19)
(0.999945 -0.000319014 -6.77294e-19)
(0.999931 -0.000405251 2.60908e-19)
(0.999915 -0.000511115 -5.43341e-20)
(0.999899 -0.000635371 8.23219e-20)
(0.999882 -0.000775641 3.38465e-20)
(0.999866 -0.000929183 -7.5428e-20)
(0.99985 -0.00109274 -7.03292e-19)
(0.999837 -0.00126285 -2.13356e-21)
(0.999826 -0.00143638 -1.80713e-20)
(0.999817 -0.00161 2.53222e-19)
(0.999811 -0.0017811 -1.65126e-19)
(0.999808 -0.00194704 -2.55641e-19)
(0.999807 -0.00210579 -1.30189e-18)
(0.99981 -0.00225534 5.13172e-20)
(0.999815 -0.0023941 9.21612e-19)
(0.999823 -0.00252051 -2.06124e-19)
(0.999833 -0.00263332 5.35817e-19)
(0.999845 -0.00273131 -1.14232e-19)
(0.999858 -0.00281365 -2.84476e-19)
(0.999873 -0.00287956 2.09128e-19)
(0.999887 -0.00292882 -5.62082e-19)
(0.999901 -0.00296131 -9.83206e-20)
(0.999915 -0.00297763 -7.66865e-20)
(0.999927 -0.00297856 -5.61313e-19)
(0.999938 -0.00296553 4.82573e-19)
(0.999947 -0.00294026 -4.19372e-19)
(0.999955 -0.00290489 7.13455e-19)
(0.999963 -0.00286186 -2.36613e-19)
(0.99997 -0.00281366 -3.52956e-19)
(0.999979 -0.00276304 -8.11282e-20)
(0.999991 -0.00271247 3.17509e-20)
(1.00001 -0.00266437 2.95496e-19)
(1.00003 -0.00262085 -1.09003e-19)
(1.00006 -0.00258351 1.68808e-19)
(1.0001 -0.00255364 -1.39544e-19)
(1.00016 -0.00253171 -7.83795e-20)
(1.00022 -0.00251759 8.07256e-20)
(1.00031 -0.00251034 -1.9006e-20)
(1.00041 -0.00250792 -7.3686e-20)
(1.00053 -0.00250718 -4.48016e-20)
(1.00068 -0.00250343 9.60666e-21)
(1.00084 -0.00248965 -5.96916e-20)
(1.00102 -0.00245434 5.83515e-20)
(1.00122 -0.00237916 1.75125e-20)
(1.00144 -0.00226484 1.72267e-20)
(1.00169 -0.00212036 1.47865e-21)
(1.00206 -0.00132609 2.96177e-21)
(0.999873 -7.50563e-05 -4.56487e-20)
(0.99988 -0.000108742 -3.02366e-20)
(0.999891 -0.000139992 -1.87875e-19)
(0.999906 -0.000166724 -2.24073e-19)
(0.999925 -0.000188986 3.39985e-19)
(0.999947 -0.000207613 6.04225e-20)
(0.99997 -0.000224425 1.71195e-19)
(0.999993 -0.000241931 1.01232e-19)
(1.00002 -0.000263173 3.34464e-19)
(1.00004 -0.000291363 -7.70507e-20)
(1.00006 -0.00032961 5.3705e-19)
(1.00007 -0.000380556 -1.0839e-18)
(1.00009 -0.000446214 3.78067e-20)
(1.0001 -0.000527794 6.18241e-19)
(1.00011 -0.000625457 -1.45032e-19)
(1.00012 -0.000738525 5.10601e-19)
(1.00013 -0.000865587 -5.71879e-19)
(1.00014 -0.00100424 -3.07145e-19)
(1.00015 -0.00115188 4.23045e-19)
(1.00016 -0.0013055 5.07153e-19)
(1.00018 -0.00146188 2.53122e-19)
(1.00019 -0.00161816 -7.65024e-19)
(1.00021 -0.00177124 -2.83163e-19)
(1.00022 -0.00191867 2.87866e-19)
(1.00024 -0.00205796 3.62896e-19)
(1.00026 -0.00218719 3.5287e-19)
(1.00028 -0.00230449 2.54331e-19)
(1.0003 -0.00240845 -2.19815e-19)
(1.00032 -0.00249776 4.11229e-19)
(1.00034 -0.00257155 -2.1495e-19)
(1.00036 -0.00262908 -1.62528e-19)
(1.00037 -0.00267009 -2.73805e-19)
(1.00039 -0.0026945 -3.09253e-19)
(1.0004 -0.00270283 -4.6955e-19)
(1.00041 -0.00269576 -1.88333e-19)
(1.00041 -0.00267466 3.81331e-19)
(1.00041 -0.00264105 4.59246e-19)
(1.00041 -0.00259698 -9.29452e-20)
(1.00041 -0.00254473 3.84313e-19)
(1.0004 -0.0024868 -1.42181e-19)
(1.0004 -0.0024259 3.54953e-19)
(1.0004 -0.00236461 1.01341e-20)
(1.0004 -0.00230565 -2.09907e-19)
(1.00041 -0.00225135 -1.74875e-19)
(1.00043 -0.0022039 3.11932e-20)
(1.00046 -0.00216517 1.52432e-20)
(1.0005 -0.00213648 -3.35405e-20)
(1.00056 -0.00211899 -7.51401e-20)
(1.00064 -0.00211318 2.80908e-21)
(1.00073 -0.00211915 6.87839e-20)
(1.00085 -0.00213661 2.45947e-21)
(1.00099 -0.00216461 5.86686e-20)
(1.00115 -0.00220189 -4.24701e-21)
(1.00133 -0.00224643 -6.79059e-20)
(1.00154 -0.00229544 4.643e-20)
(1.00177 -0.00234307 -4.16643e-20)
(1.00202 -0.0023778 -4.50635e-22)
(1.0023 -0.00240953 8.60897e-22)
(1.00261 -0.00247294 -5.66873e-21)
(1.00298 -0.00199484 -8.35715e-22)
(0.999844 -7.09328e-05 4.18435e-20)
(0.999852 -0.000121427 1.46985e-20)
(0.999866 -0.000171247 1.38048e-19)
(0.999886 -0.000218473 -2.42973e-20)
(0.999911 -0.000263012 5.69176e-21)
(0.999939 -0.000305445 -3.47456e-19)
(0.99997 -0.000347208 -4.32162e-19)
(1 -0.000390267 3.00422e-19)
(1.00003 -0.000436986 -7.95729e-19)
(1.00006 -0.00048983 2.75963e-19)
(1.00009 -0.000551169 -4.99043e-19)
(1.00012 -0.000622994 1.55444e-19)
(1.00015 -0.000706785 2.07515e-19)
(1.00017 -0.000803403 3.83737e-19)
(1.00019 -0.000912889 -2.22786e-19)
(1.00022 -0.00103457 -1.42896e-19)
(1.00024 -0.00116716 -1.29056e-19)
(1.00026 -0.00130854 -5.14278e-20)
(1.00028 -0.00145632 -7.72689e-20)
(1.0003 -0.00160772 2.77545e-19)
(1.00032 -0.00175973 -8.55719e-19)
(1.00035 -0.00190947 7.84441e-19)
(1.00037 -0.00205392 5.22206e-19)
(1.0004 -0.00219045 -9.28957e-19)
(1.00043 -0.00231653 1.16132e-19)
(1.00046 -0.00243002 -8.61358e-20)
(1.00048 -0.00252908 2.13084e-19)
(1.00051 -0.00261227 -1.23629e-19)
(1.00054 -0.00267852 -1.53054e-19)
(1.00056 -0.00272723 -2.70807e-19)
(1.00058 -0.00275823 1.28928e-19)
(1.0006 -0.00277183 5.30231e-19)
(1.00061 -0.00276878 5.46124e-19)
(1.00062 -0.00275036 7.62343e-19)
(1.00062 -0.00271822 -4.40387e-19)
(1.00062 -0.00267449 3.86095e-20)
(1.00062 -0.00262156 1.73549e-19)
(1.00062 -0.00256212 -1.59053e-19)
(1.00061 -0.00249903 -4.84005e-20)
(1.00061 -0.0024352 -3.29604e-19)
(1.00061 -0.00237352 -9.20716e-20)
(1.00061 -0.0023167 1.49867e-19)
(1.00062 -0.0022673 2.93207e-20)
(1.00065 -0.00222747 2.70626e-19)
(1.00068 -0.00219901 -3.41679e-20)
(1.00074 -0.00218334 -1.23774e-19)
(1.00081 -0.00218129 -6.93813e-20)
(1.0009 -0.00219345 1.09479e-19)
(1.00102 -0.00221973 -1.39318e-20)
(1.00116 -0.00225958 -5.34718e-20)
(1.00132 -0.00231209 -1.08664e-20)
(1.00151 -0.00237556 8.5104e-21)
(1.00173 -0.00244782 5.45671e-20)
(1.00198 -0.0025257 -2.21163e-21)
(1.00225 -0.00260493 -2.7519e-20)
(1.00254 -0.00267831 8.58847e-20)
(1.00287 -0.00273194 -2.04007e-20)
(1.00325 -0.00277257 1.69853e-20)
(1.00364 -0.00284739 -6.23521e-21)
(1.00413 -0.00243061 -3.25868e-21)
(0.999806 -6.92983e-05 -5.06741e-20)
(0.999811 -0.000142515 3.24555e-20)
(0.999824 -0.000217304 -6.62822e-20)
(0.999843 -0.000290411 1.35135e-19)
(0.999867 -0.000361736 1.29165e-19)
(0.999893 -0.00043164 2.52671e-20)
(0.999921 -0.000501241 4.24095e-19)
(0.99995 -0.000572081 -2.91817e-19)
(0.999978 -0.00064603 3.55424e-19)
(1 -0.000725043 -6.77491e-19)
(1.00003 -0.000811047 5.73235e-19)
(1.00005 -0.000905719 1.39134e-19)
(1.00007 -0.00101035 -2.25586e-20)
(1.00009 -0.00112573 -5.84182e-19)
(1.00011 -0.00125207 1.11987e-20)
(1.00013 -0.00138889 2.34387e-19)
(1.00014 -0.00153507 1.81518e-19)
(1.00015 -0.00168884 -7.26248e-20)
(1.00017 -0.00184794 7.38015e-20)
(1.00019 -0.00200966 1.77804e-19)
(1.0002 -0.00217108 2.14194e-19)
(1.00023 -0.00232898 -6.52734e-19)
(1.00025 -0.0024803 1.23682e-19)
(1.00027 -0.00262191 1.48564e-20)
(1.0003 -0.00275108 3.05254e-19)
(1.00033 -0.00286527 -4.84652e-19)
(1.00036 -0.00296249 -5.14589e-19)
(1.00039 -0.00304111 -3.95557e-19)
(1.00042 -0.00310018 4.02481e-20)
(1.00044 -0.0031392 -1.84507e-19)
(1.00047 -0.00315844 -1.29155e-19)
(1.00049 -0.00315859 -5.20954e-19)
(1.00051 -0.0031411 -6.55016e-19)
(1.00053 -0.00310775 -7.40967e-20)
(1.00054 -0.00306097 3.50259e-20)
(1.00056 -0.00300339 2.39042e-19)
(1.00057 -0.00293801 -3.43689e-19)
(1.00058 -0.00286792 -2.20081e-19)
(1.0006 -0.00279628 -1.97025e-19)
(1.00062 -0.00272613 1.03685e-19)
(1.00065 -0.00266036 -6.44329e-20)
(1.00069 -0.00260151 -9.57511e-20)
(1.00074 -0.00255185 3.85399e-21)
(1.00081 -0.00251315 -3.44336e-20)
(1.0009 -0.00248669 -1.68256e-19)
(1.001 -0.00247338 -5.30102e-20)
(1.00113 -0.00247347 2.08406e-19)
(1.00129 -0.002487 -1.71165e-19)
(1.00147 -0.00251342 7.4684e-20)
(1.00167 -0.00255172 1.49497e-19)
(1.00191 -0.00260071 -5.33113e-20)
(1.00217 -0.00265857 3.52708e-21)
(1.00245 -0.00272329 1.64875e-20)
(1.00276 -0.0027924 6.18727e-20)
(1.0031 -0.00286295 -2.79513e-22)
(1.00346 -0.00293092 -3.44438e-20)
(1.00384 -0.00298805 5.22947e-21)
(1.00428 -0.00304686 1.25885e-20)
(1.00472 -0.00316567 -4.80716e-21)
(1.00515 -0.00295375 -2.6447e-21)
(0.99975 -7.0616e-05 1.78116e-20)
(0.999753 -0.000167855 1.58995e-20)
(0.999763 -0.000269733 9.4413e-20)
(0.999777 -0.000370051 4.72496e-20)
(0.999794 -0.000468742 -1.24359e-19)
(0.999812 -0.000566064 5.92407e-19)
(0.999831 -0.000662919 -7.6721e-19)
(0.999849 -0.000760533 3.42111e-19)
(0.999867 -0.000860396 -2.16785e-19)
(0.999884 -0.000964079 3.43132e-20)
(0.999899 -0.00107319 1.7567e-19)
(0.999911 -0.00118922 -2.40043e-19)
(0.999922 -0.00131339 -2.09447e-19)
(0.999931 -0.00144647 -4.5051e-19)
(0.999939 -0.00158882 -5.22448e-19)
(0.999947 -0.00174017 -1.87597e-19)
(0.999954 -0.00189949 1.22663e-19)
(0.999962 -0.00206524 2.27421e-19)
(0.999972 -0.00223517 -7.4192e-19)
(0.999984 -0.00240654 4.85282e-19)
(1 -0.00257639 6.7424e-20)
(1.00002 -0.00274119 5.38704e-19)
(1.00004 -0.00289768 3.935e-19)
(1.00007 -0.00304234 5.20665e-19)
(1.0001 -0.0031722 -5.69915e-19)
(1.00013 -0.00328444 -3.76726e-19)
(1.00017 -0.0033769 3.46839e-19)
(1.00021 -0.00344791 3.75519e-19)
(1.00025 -0.00349661 -3.18733e-19)
(1.00029 -0.00352271 -1.25216e-19)
(1.00033 -0.00352682 9.16332e-19)
(1.00037 -0.00351006 -1.60694e-19)
(1.00041 -0.00347439 1.95361e-19)
(1.00045 -0.00342215 -1.74971e-19)
(1.00049 -0.00335628 -2.59887e-20)
(1.00054 -0.00327993 1.00328e-19)
(1.00058 -0.00319654 2.41668e-19)
(1.00063 -0.00310955 8.48017e-21)
(1.00069 -0.00302239 1.90747e-19)
(1.00075 -0.00293828 5.01705e-20)
(1.00083 -0.00286024 7.01685e-20)
(1.00092 -0.00279077 -4.98667e-21)
(1.00103 -0.00273221 -1.25059e-19)
(1.00115 -0.00268629 -8.10707e-20)
(1.00129 -0.00265427 2.71395e-19)
(1.00146 -0.00263719 -5.79913e-20)
(1.00165 -0.00263541 -5.03737e-20)
(1.00187 -0.00264928 -4.04168e-20)
(1.00211 -0.0026787 -3.14252e-20)
(1.00237 -0.00272326 4.89424e-21)
(1.00266 -0.00278259 -4.17858e-20)
(1.00297 -0.00285591 -3.66878e-20)
(1.0033 -0.00294241 -2.9766e-20)
(1.00366 -0.00304121 -1.75192e-20)
(1.00403 -0.00315106 3.10314e-20)
(1.00441 -0.00327002 -1.72995e-20)
(1.00481 -0.00339287 -1.98669e-20)
(1.00525 -0.00353283 1.88483e-20)
(1.00571 -0.003737 -6.03736e-22)
(1.00603 -0.00370903 3.85336e-21)
(0.999677 -7.48417e-05 -1.57809e-20)
(0.99968 -0.000194987 -1.29293e-19)
(0.999686 -0.00032261 -1.4203e-19)
(0.999694 -0.000448694 -4.15903e-20)
(0.999705 -0.000572727 -2.15677e-19)
(0.999716 -0.000694801 -4.93782e-19)
(0.999729 -0.000815609 3.08524e-19)
(0.999742 -0.000936043 5.65779e-21)
(0.999755 -0.00105718 -1.04242e-20)
(0.999768 -0.00118019 5.33055e-20)
(0.999781 -0.00130632 -4.90827e-19)
(0.999794 -0.00143681 1.67583e-19)
(0.999806 -0.00157279 -1.86637e-19)
(0.999819 -0.00171498 7.23106e-19)
(0.999832 -0.00186374 1.15222e-18)
(0.999845 -0.00201891 1.46376e-19)
(0.99986 -0.00217961 1.1632e-20)
(0.999878 -0.00234433 -5.65593e-21)
(0.999898 -0.00251098 1.32322e-19)
(0.999922 -0.00267682 -4.91411e-19)
(0.99995 -0.0028389 -4.79191e-20)
(0.999982 -0.00299379 4.30092e-19)
(1.00002 -0.00313807 -8.5368e-19)
(1.00006 -0.00326838 1.19726e-19)
(1.00011 -0.00338166 -1.62596e-19)
(1.00016 -0.00347532 1.0849e-18)
(1.00021 -0.00354734 -2.02931e-19)
(1.00027 -0.00359642 -1.99886e-19)
(1.00033 -0.00362202 3.85076e-20)
(1.00039 -0.00362442 3.59624e-19)
(1.00045 -0.0036047 -1.98042e-19)
(1.00051 -0.00356468 -2.88166e-19)
(1.00057 -0.00350681 1.50901e-19)
(1.00064 -0.00343419 -3.45906e-19)
(1.00071 -0.00335017 4.86962e-19)
(1.00078 -0.00325861 1.46633e-19)
(1.00086 -0.00316326 -2.39185e-19)
(1.00094 -0.00306804 7.77773e-20)
(1.00103 -0.00297668 2.26328e-19)
(1.00113 -0.0028926 7.55475e-21)
(1.00125 -0.0028191 -1.64521e-19)
(1.00138 -0.00275875 2.18269e-19)
(1.00153 -0.00271408 -1.88585e-19)
(1.0017 -0.00268693 1.95459e-19)
(1.00188 -0.00267867 -1.95851e-19)
(1.00209 -0.00269046 1.55428e-20)
(1.00233 -0.0027228 3.51857e-20)
(1.00258 -0.00277609 1.25391e-19)
(1.00286 -0.00285034 8.09232e-20)
(1.00315 -0.002945 -1.4023e-19)
(1.00347 -0.00305946 1.62197e-20)
(1.00381 -0.0031924 3.16608e-20)
(1.00416 -0.00334202 -1.41438e-19)
(1.00453 -0.00350608 9.61135e-20)
(1.00492 -0.00368121 -2.23577e-21)
(1.00531 -0.00386257 3.34699e-21)
(1.00572 -0.00404196 2.33346e-20)
(1.00616 -0.00422869 -5.70862e-20)
(1.00661 -0.00444963 1.27101e-20)
(1.00692 -0.00444702 4.2254e-21)
(0.999589 -8.10492e-05 5.7937e-20)
(0.999594 -0.000222564 7.78727e-20)
(0.999598 -0.000373405 -1.08375e-19)
(0.999605 -0.000522831 7.87862e-20)
(0.999616 -0.000669314 2.04902e-19)
(0.999629 -0.000812627 2.24472e-19)
(0.999645 -0.000953174 -7.49823e-20)
(0.999664 -0.00109142 -1.94815e-20)
(0.999686 -0.00122792 2.25421e-19)
(0.999711 -0.00136337 -5.19399e-20)
(0.999739 -0.00149857 4.33708e-19)
(0.999769 -0.00163445 -1.30826e-19)
(0.999802 -0.00177195 2.50087e-19)
(0.999837 -0.00191176 -3.08565e-19)
(0.999874 -0.0020541 -2.809e-19)
(0.999913 -0.00219893 -1.60617e-19)
(0.999955 -0.00234567 6.3263e-19)
(1 -0.00249284 5.22098e-20)
(1.00005 -0.00263873 -2.99917e-19)
(1.0001 -0.00278089 5.03302e-19)
(1.00015 -0.00291662 1.27421e-19)
(1.00021 -0.00304317 -6.30411e-19)
(1.00027 -0.00315725 5.72103e-19)
(1.00034 -0.00325629 3.17062e-19)
(1.0004 -0.00333759 4.07624e-19)
(1.00047 -0.00339937 -5.16892e-19)
(1.00055 -0.00344016 -3.78647e-20)
(1.00062 -0.0034595 -5.48009e-19)
(1.00069 -0.00345751 5.64092e-19)
(1.00077 -0.00343535 -2.57516e-19)
(1.00084 -0.0033947 3.0876e-20)
(1.00092 -0.00333828 -1.5016e-19)
(1.00099 -0.00326899 -1.81626e-19)
(1.00107 -0.0031907 3.5877e-19)
(1.00115 -0.00310702 -1.19268e-19)
(1.00124 -0.00302235 -2.39657e-19)
(1.00133 -0.00294057 -5.97184e-20)
(1.00143 -0.00286575 2.11791e-19)
(1.00154 -0.00280165 9.91703e-20)
(1.00166 -0.00275155 -4.16036e-20)
(1.0018 -0.00271858 1.56504e-19)
(1.00195 -0.00270498 -1.81884e-19)
(1.00213 -0.00271284 1.12372e-19)
(1.00232 -0.00274358 3.69772e-20)
(1.00253 -0.00279785 3.67934e-20)
(1.00276 -0.00287611 -1.42443e-19)
(1.00302 -0.00297793 1.0108e-19)
(1.0033 -0.00310253 -2.02076e-19)
(1.00359 -0.00324865 1.0419e-21)
(1.00391 -0.00341398 1.16531e-19)
(1.00425 -0.00359594 4.0545e-20)
(1.00461 -0.00379087 6.6919e-20)
(1.00498 -0.0039942 1.16508e-19)
(1.00537 -0.00420075 -1.3373e-19)
(1.00577 -0.00440408 5.49688e-20)
(1.00618 -0.00459632 2.60222e-20)
(1.0066 -0.00476709 -2.42695e-21)
(1.00704 -0.00492553 1.95994e-20)
(1.00749 -0.00508647 -2.95865e-20)
(1.00783 -0.00500307 -1.26139e-21)
(0.99949 -8.82303e-05 -7.75089e-20)
(0.999498 -0.000250478 -5.2256e-20)
(0.999505 -0.000422376 1.69888e-19)
(0.999517 -0.000593092 1.23692e-19)
(0.999534 -0.000759717 -8.16215e-20)
(0.999558 -0.00092151 -8.64596e-20)
(0.999588 -0.00107851 2.62513e-19)
(0.999625 -0.00123065 6.18327e-20)
(0.999669 -0.00137795 1.38134e-19)
(0.99972 -0.00152053 1.58759e-19)
(0.999776 -0.00165878 -4.771e-19)
(0.999838 -0.00179324 8.35355e-19)
(0.999904 -0.00192469 -2.03753e-19)
(0.999974 -0.00205383 5.25982e-19)
(1.00005 -0.00218076 -4.69503e-19)
(1.00012 -0.00230559 3.67455e-19)
(1.0002 -0.00242825 -7.08972e-19)
(1.00028 -0.00254746 4.25698e-19)
(1.00036 -0.00266211 -9.675e-20)
(1.00045 -0.00277045 -7.76424e-19)
(1.00053 -0.00287027 3.90007e-19)
(1.00061 -0.00295999 -1.00856e-19)
(1.0007 -0.0030369 -1.3919e-19)
(1.00078 -0.00309961 1.02293e-20)
(1.00087 -0.00314625 -4.8635e-19)
(1.00095 -0.00317617 -1.63869e-20)
(1.00103 -0.00318882 5.2214e-20)
(1.00111 -0.00318478 3.677e-19)
(1.00119 -0.00316501 -5.63041e-19)
(1.00126 -0.00313155 1.78899e-19)
(1.00134 -0.00308672 -1.6631e-19)
(1.00141 -0.00303386 -1.03745e-20)
(1.00149 -0.00297619 -6.55083e-20)
(1.00156 -0.00291788 1.66838e-19)
(1.00164 -0.00286256 -7.59887e-20)
(1.00173 -0.00281447 1.69517e-19)
(1.00183 -0.00277726 -3.53618e-21)
(1.00193 -0.00275443 -1.423e-19)
(1.00205 -0.00274915 -3.86322e-21)
(1.00218 -0.00276387 2.68863e-20)
(1.00233 -0.00280074 -7.12006e-20)
(1.0025 -0.00286099 -4.71149e-21)
(1.00269 -0.00294534 3.73094e-20)
(1.00289 -0.00305398 2.20157e-19)
(1.00313 -0.00318597 -6.37068e-20)
(1.00338 -0.00334013 2.28754e-21)
(1.00366 -0.00351428 3.12898e-20)
(1.00397 -0.00370563 2.33004e-20)
(1.00429 -0.00391094 -7.29796e-20)
(1.00464 -0.00412574 -1.60216e-21)
(1.005 -0.00434523 -5.09267e-20)
(1.00538 -0.00456372 -9.27607e-20)
(1.00578 -0.00477476 -1.39705e-20)
(1.00619 -0.00497177 1.26531e-19)
(1.00662 -0.00514768 -2.92519e-20)
(1.00705 -0.00529495 -4.3711e-20)
(1.00748 -0.00540478 -9.45235e-22)
(1.00793 -0.00549035 -6.51311e-21)
(1.00837 -0.00556271 1.65873e-20)
(1.00873 -0.00537619 2.19119e-21)
(0.99938 -9.58071e-05 8.95816e-20)
(0.999393 -0.000279051 8.45689e-20)
(0.999406 -0.000470921 -1.65543e-20)
(0.999427 -0.000661811 -1.47802e-19)
(0.999458 -0.000847413 -1.51224e-19)
(0.999498 -0.00102636 -1.77074e-19)
(0.999549 -0.00119829 -7.18053e-20)
(0.99961 -0.00136263 -1.71307e-19)
(0.999681 -0.00151883 1.9669e-19)
(0.999762 -0.00166652 -1.8333e-19)
(0.999851 -0.00180572 6.39063e-19)
(0.999947 -0.00193665 -5.78867e-19)
(1.00005 -0.00205994 -1.2583e-19)
(1.00015 -0.00217641 1.30773e-19)
(1.00026 -0.00228616 2.05809e-19)
(1.00037 -0.00238949 -2.94661e-19)
(1.00049 -0.00248697 3.95571e-19)
(1.0006 -0.00257775 1.61778e-19)
(1.00071 -0.00266144 -1.37239e-19)
(1.00081 -0.00273725 3.3804e-19)
(1.00092 -0.00280376 2.67567e-19)
(1.00102 -0.00286063 -3.10301e-19)
(1.00112 -0.00290619 -2.73428e-19)
(1.00121 -0.00294022 3.43955e-19)
(1.0013 -0.00296202 4.6371e-19)
(1.00138 -0.00297202 -2.75374e-20)
(1.00146 -0.00297074 2.5816e-19)
(1.00154 -0.00295965 6.13874e-22)
(1.00161 -0.00294047 -1.0357e-19)
(1.00168 -0.00291583 -7.51897e-20)
(1.00175 -0.00288844 5.06111e-19)
(1.00181 -0.00286175 -1.08901e-19)
(1.00188 -0.00283901 2.66553e-19)
(1.00195 -0.00282395 6.1974e-20)
(1.00203 -0.00281987 -3.44422e-19)
(1.00212 -0.00283003 2.09911e-19)
(1.00222 -0.00285739 -5.25495e-20)
(1.00233 -0.00290415 9.34063e-20)
(1.00245 -0.00297231 -9.22339e-20)
(1.0026 -0.00306286 -3.94917e-19)
(1.00277 -0.00317638 -1.38078e-19)
(1.00296 -0.00331259 1.09293e-19)
(1.00317 -0.00347033 9.90683e-20)
(1.00341 -0.0036482 7.66506e-20)
(1.00367 -0.00384341 -4.36006e-20)
(1.00396 -0.00405299 1.66516e-19)
(1.00428 -0.00427312 -1.02567e-19)
(1.00461 -0.00449926 1.57352e-19)
(1.00498 -0.00472679 -4.39506e-20)
(1.00536 -0.00494998 -8.55312e-20)
(1.00576 -0.00516314 1.12234e-19)
(1.00618 -0.00536015 -3.83237e-20)
(1.00661 -0.00553479 -7.60347e-20)
(1.00705 -0.00568138 -6.54099e-20)
(1.00749 -0.00579472 6.66167e-21)
(1.00793 -0.00586992 4.62825e-21)
(1.00837 -0.00590144 1.55214e-20)
(1.00881 -0.00590706 2.37343e-20)
(1.00923 -0.00589771 -8.1388e-21)
(1.00959 -0.00562531 5.62878e-21)
(0.999262 -0.000103498 -3.70785e-20)
(0.999281 -0.000308899 -6.69826e-20)
(0.999301 -0.000520163 1.23801e-20)
(0.999333 -0.000730764 5.94865e-20)
(0.999377 -0.000935074 8.17333e-20)
(0.999434 -0.00113104 2.77057e-19)
(0.999505 -0.00131793 -2.92003e-19)
(0.999588 -0.00149474 -8.13146e-20)
(0.999684 -0.00166043 -3.33366e-19)
(0.99979 -0.00181428 1.9841e-19)
(0.999906 -0.00195604 -3.22863e-19)
(1.00003 -0.00208572 4.51976e-19)
(1.00016 -0.00220384 -3.59178e-19)
(1.00029 -0.00231137 -3.43251e-19)
(1.00042 -0.00240862 -7.95305e-20)
(1.00056 -0.00249608 3.36823e-19)
(1.00069 -0.00257489 -5.43622e-19)
(1.00082 -0.00264492 -2.16014e-19)
(1.00094 -0.00270644 -2.56889e-20)
(1.00106 -0.00275966 9.0783e-20)
(1.00118 -0.00280413 -3.42166e-19)
(1.00128 -0.00284052 2.0345e-19)
(1.00138 -0.0028685 2.4873e-19)
(1.00148 -0.00288869 1.81532e-19)
(1.00156 -0.00290168 -2.23899e-19)
(1.00164 -0.00290865 -3.75767e-19)
(1.00171 -0.00291111 -2.83881e-19)
(1.00178 -0.002911 1.55114e-20)
(1.00185 -0.00291063 2.85957e-19)
(1.00191 -0.00291265 1.23123e-19)
(1.00197 -0.00291988 -1.03027e-19)
(1.00203 -0.00293531 9.26242e-20)
(1.0021 -0.00296183 1.37913e-19)
(1.00218 -0.00300214 -3.59764e-19)
(1.00226 -0.00305885 1.18758e-19)
(1.00236 -0.00313372 -1.70847e-19)
(1.00247 -0.00322862 1.8791e-19)
(1.00261 -0.00334412 4.45499e-20)
(1.00276 -0.0034807 -3.38419e-20)
(1.00294 -0.00363777 2.65947e-19)
(1.00314 -0.00381416 -1.14911e-19)
(1.00336 -0.0040081 6.14412e-20)
(1.00362 -0.0042167 -2.88932e-20)
(1.0039 -0.00443718 7.10005e-20)
(1.00421 -0.00466538 -7.98282e-20)
(1.00454 -0.00489714 -1.804e-19)
(1.00491 -0.00512771 3.40388e-20)
(1.00529 -0.00535189 4.47342e-20)
(1.0057 -0.00556472 1.3727e-19)
(1.00612 -0.00576058 -3.38432e-20)
(1.00656 -0.00593432 -1.22544e-19)
(1.00701 -0.00608086 3.44323e-20)
(1.00746 -0.00619562 6.61104e-21)
(1.00792 -0.00627503 1.10341e-19)
(1.00837 -0.00631649 -5.93489e-20)
(1.00881 -0.00631795 6.10132e-20)
(1.00924 -0.00627659 -1.62094e-20)
(1.00966 -0.00621321 -1.3316e-20)
(1.01003 -0.00613895 -1.56631e-20)
(1.01038 -0.00580386 -4.38399e-21)
(0.999138 -0.000110883 9.22915e-21)