/*--------------------------------*- C++ -*----------------------------------*\
  =========                 |
  \\      /  F ield         | OpenFOAM: The Open Source CFD Toolbox
   \\    /   O peration     | Website:  https://openfoam.org
    \\  /    A nd           | Version:  6.0
     \\/     M anipulation  |
\*---------------------------------------------------------------------------*/
FoamFile
{
    version     2.0;
    format      ascii;
    class       volVectorField;
    location    "19";
    object      U;
}
// * * * * * * * * * * * * * * * * * * * * * * * * * * * * * * * * * * * * * //

dimensions      [0 1 -1 0 0 0 0];

internalField   nonuniform List<vector> 
47000
(
(0.999997 -4.28293e-06 -1.39474e-20)
(0.999988 -3.05007e-05 2.13457e-20)
(0.999972 -5.64859e-05 -5.70949e-19)
(0.999951 -7.98193e-05 -3.74839e-20)
(0.999926 -9.88708e-05 1.76286e-19)
(0.999896 -0.000112761 -5.09146e-19)
(0.999863 -0.000125707 -3.90916e-20)
(0.999827 -0.000139289 -1.67144e-18)
(0.999788 -0.000159297 -5.87336e-19)
(0.999746 -0.000186593 -7.64787e-19)
(0.999704 -0.000225296 -1.23451e-19)
(0.999662 -0.000273694 1.56326e-19)
(0.99962 -0.000334203 9.34875e-19)
(0.999584 -0.000402856 2.05704e-19)
(0.999549 -0.000482113 -3.5788e-19)
(0.999523 -0.000566471 2.35642e-19)
(0.999499 -0.000659697 2.9782e-19)
(0.999484 -0.000755603 -5.23572e-19)
(0.999473 -0.000860157 -3.83402e-19)
(0.99947 -0.000968177 3.34057e-19)
(0.999469 -0.00108876 -7.62437e-19)
(0.999475 -0.00121933 -5.85777e-19)
(0.999482 -0.00137278 -2.21594e-19)
(0.999493 -0.00155115 7.29948e-20)
(0.999507 -0.0017752 4.58852e-20)
(0.999516 -0.00205529 -1.10396e-19)
(0.999561 -0.00244462 -2.09663e-19)
(0.999395 -0.00301412 1.54888e-19)
(1 -0.00393674 -2.72631e-20)
(0.99482 -0.00577585 -1.00676e-19)
(0.999982 -3.47293e-05 -5.02773e-20)
(0.999968 -7.95819e-05 -2.2926e-19)
(0.999941 -0.000115861 3.94435e-19)
(0.999904 -0.000139779 -3.44245e-19)
(0.999858 -0.000156881 5.62132e-19)
(0.9998 -0.000169681 5.20692e-19)
(0.999736 -0.00019011 1.06879e-18)
(0.999665 -0.000221729 1.73629e-18)
(0.999591 -0.000271896 -3.96393e-19)
(0.999518 -0.000339293 -2.14321e-20)
(0.999447 -0.000425537 9.74785e-19)
(0.999384 -0.000525948 6.63074e-19)
(0.999326 -0.000640152 -1.15583e-18)
(0.999282 -0.00076204 4.99611e-19)
(0.999247 -0.000891551 7.0785e-19)
(0.999228 -0.00102114 -2.71158e-19)
(0.99922 -0.00115195 -6.1124e-20)
(0.99923 -0.0012759 5.984e-19)
(0.999249 -0.00139689 -1.53743e-19)
(0.999281 -0.00150849 8.70524e-20)
(0.99932 -0.00161824 5.22319e-19)
(0.99937 -0.00172156 1.97368e-20)
(0.999425 -0.00182742 1.32561e-19)
(0.99949 -0.0019303 2.5121e-19)
(0.999565 -0.00203795 2.86238e-20)
(0.999635 -0.00213701 -1.49031e-19)
(0.999744 -0.00222588 6.15979e-20)
(0.999739 -0.00234288 2.08694e-20)
(0.999507 -0.00245275 3.87541e-20)
(1.0005 -0.00145362 8.94202e-20)
(0.999964 -4.96831e-05 1.5926e-19)
(0.999954 -9.325e-05 3.31649e-19)
(0.999933 -0.000123132 5.1611e-20)
(0.999903 -0.000137323 9.61145e-20)
(0.999864 -0.000147725 -6.24468e-19)
(0.999813 -0.000157852 3.34588e-19)
(0.999757 -0.000182486 -5.0827e-19)
(0.999695 -0.0002231 -5.2699e-21)
(0.999635 -0.000284421 5.43757e-19)
(0.999577 -0.000362311 5.57465e-19)
(0.999525 -0.000455313 -1.14174e-18)
(0.99948 -0.00055857 -8.36587e-19)
(0.999444 -0.000669971 4.38424e-19)
(0.999421 -0.000784708 -5.21833e-19)
(0.99941 -0.000900603 -7.62249e-19)
(0.999415 -0.00101103 -8.68624e-19)
(0.999433 -0.00111393 2.03986e-19)
(0.999467 -0.001202 3.12942e-19)
(0.999511 -0.00127577 7.11152e-19)
(0.999567 -0.00133037 -6.37784e-19)
(0.999628 -0.00137055 -2.93583e-20)
(0.999696 -0.00139419 6.79698e-19)
(0.999768 -0.00140802 3.50556e-20)
(0.999843 -0.00140989 -1.08382e-19)
(0.999923 -0.00140525 -1.31243e-19)
(0.999991 -0.00139106 -9.83511e-20)
(1.00006 -0.00136283 1.37242e-19)
(1.00004 -0.00137103 -1.67057e-19)
(0.999984 -0.00135948 1.16945e-19)
(0.998725 -0.000455266 3.90177e-20)
(0.999946 -4.89349e-05 -1.28076e-19)
(0.999941 -8.84021e-05 -3.20361e-19)
(0.999926 -0.000114524 -6.75833e-20)
(0.999904 -0.000128105 3.71806e-19)
(0.999873 -0.000143834 2.18327e-19)
(0.999831 -0.000163612 7.4038e-20)
(0.999785 -0.000202021 -5.67108e-19)
(0.999736 -0.000257569 -2.84651e-19)
(0.999689 -0.000332286 -3.11131e-19)
(0.999645 -0.000420822 -7.88663e-19)
(0.999606 -0.000520537 4.2665e-19)
(0.999573 -0.000628159 4.86025e-19)
(0.999547 -0.000741672 9.52078e-19)
(0.999531 -0.000858539 6.88916e-19)
(0.999526 -0.000976005 8.58995e-19)
(0.999535 -0.00108913 -2.15965e-19)
(0.999555 -0.00119424 -1.43095e-19)
(0.99959 -0.00128554 -3.93565e-19)
(0.999633 -0.00136174 -1.50048e-18)
(0.999687 -0.00142004 4.34736e-19)
(0.999745 -0.00146408 -4.18972e-19)
(0.999809 -0.00149481 -2.52541e-19)
(0.999876 -0.00151914 -7.40803e-20)
(0.999944 -0.00153988 -1.1348e-19)
(1.00002 -0.00156346 6.63315e-21)
(1.00008 -0.00159438 3.55645e-19)
(1.00012 -0.00162792 1.34495e-19)
(1.00011 -0.00170534 -2.5918e-19)
(1.00004 -0.0017357 1.37954e-19)
(0.999668 -0.000879462 -4.96466e-20)
(0.999929 -4.21143e-05 6.55475e-20)
(0.999925 -8.38068e-05 1.24972e-19)
(0.999914 -0.000115133 -1.35663e-19)
(0.999896 -0.000138189 -2.42173e-19)
(0.999871 -0.000168298 4.14011e-19)
(0.999835 -0.000204582 -6.58826e-19)
(0.999797 -0.000260331 4.45477e-19)
(0.999757 -0.000331642 -1.18363e-19)
(0.999721 -0.000418776 3.97925e-19)
(0.999687 -0.000516259 1.4228e-18)
(0.999659 -0.000621175 -9.61434e-19)
(0.999636 -0.000731839 -6.80355e-19)
(0.999619 -0.000846467 -2.054e-19)
(0.999611 -0.000964426 -6.03663e-19)
(0.999611 -0.00108265 -5.61276e-19)
(0.999622 -0.00119803 5.07932e-19)
(0.999643 -0.00130595 2.47561e-19)
(0.999676 -0.00140232 -3.12707e-19)
(0.999717 -0.00148438 -1.22717e-19)
(0.999768 -0.00155054 -3.88662e-19)
(0.999824 -0.00160243 3.97388e-19)
(0.999888 -0.00164148 6.65613e-19)
(0.999957 -0.00167174 5.12474e-20)
(1.00003 -0.00169532 1.99498e-19)
(1.00011 -0.00171348 -2.4045e-20)
(1.00019 -0.00172492 -1.98322e-19)
(1.00025 -0.00171304 -4.23398e-20)
(1.0003 -0.00169483 -1.47902e-20)
(1.00028 -0.00158316 -5.51057e-20)
(1.00009 -0.000370552 1.59599e-20)
(0.999908 -3.62603e-05 -1.02771e-19)
(0.999907 -8.80992e-05 -9.97147e-21)
(0.999901 -0.000132372 4.22085e-19)
(0.999889 -0.000170689 -2.60136e-19)
(0.999873 -0.000217737 -3.81878e-21)
(0.999847 -0.000269941 3.5516e-19)
(0.999822 -0.000339152 4.4374e-19)
(0.999797 -0.000419991 -9.46067e-20)
(0.999778 -0.000511611 1.2395e-19)
(0.999764 -0.000608789 -4.15222e-19)
(0.999756 -0.000708333 1.8005e-18)
(0.999754 -0.000809324 1.12355e-18)
(0.999759 -0.000909776 -2.96167e-19)
(0.999769 -0.00101013 1.64512e-19)
(0.999787 -0.00110732 4.21563e-19)
(0.999812 -0.00120005 3.55387e-20)
(0.999843 -0.00128404 -1.4461e-19)
(0.999882 -0.00135732 5.22485e-19)
(0.999925 -0.0014172 6.63375e-19)
(0.999976 -0.00146349 6.64045e-20)
(1.00003 -0.00149696 -6.52613e-20)
(1.00009 -0.00151923 -5.28318e-19)
(1.00016 -0.00153245 -2.19176e-20)
(1.00023 -0.00153799 -2.61827e-19)
(1.00032 -0.00153459 1.2025e-19)
(1.0004 -0.00151871 3.93185e-20)
(1.00047 -0.00147332 2.57108e-19)
(1.00055 -0.00141549 3.23763e-20)
(1.00061 -0.0012782 -2.84831e-22)
(1.00034 -0.000142799 -5.16036e-20)
(0.999883 -3.38395e-05 3.81877e-20)
(0.999884 -0.000101496 -7.7757e-20)
(0.999882 -0.000163548 -3.30969e-19)
(0.999877 -0.000219978 -1.54538e-19)
(0.999869 -0.000284688 -6.96688e-19)
(0.999853 -0.00035223 4.01704e-20)
(0.99984 -0.000433654 1.115e-19)
(0.999829 -0.000522963 -1.75878e-19)
(0.999826 -0.000618858 -4.91333e-19)
(0.999829 -0.000716335 -4.44052e-20)
(0.999842 -0.000811742 2.52785e-19)
(0.999861 -0.00090401 -1.80442e-19)
(0.999888 -0.000990373 -1.22854e-18)
(0.99992 -0.00107159 -3.83604e-19)
(0.999957 -0.00114465 2.7218e-19)
(0.999998 -0.0012101 -3.10164e-20)
(1.00004 -0.00126493 -1.29483e-19)
(1.00009 -0.00131001 -2.65088e-19)
(1.00013 -0.00134411 6.2289e-19)
(1.00018 -0.00136947 6.95687e-19)
(1.00023 -0.00138744 -1.72232e-19)
(1.00029 -0.00140097 2.51382e-19)
(1.00035 -0.00141183 -8.10408e-20)
(1.00041 -0.00142191 7.70264e-20)
(1.00049 -0.00142951 -1.35432e-19)
(1.00057 -0.00143033 8.74181e-20)
(1.00065 -0.00140843 -6.08236e-20)
(1.00074 -0.00138183 1.69329e-19)
(1.00086 -0.0012978 -8.92307e-20)
(1.00067 -0.000184663 2.46833e-20)
(0.999852 -3.49419e-05 2.54377e-20)
(0.999853 -0.000121137 -1.03436e-19)
(0.999852 -0.000203187 2.67714e-19)
(0.999848 -0.000279274 -2.31743e-19)
(0.999841 -0.000362892 6.73687e-19)
(0.999826 -0.000447904 1.74064e-19)
(0.999815 -0.000545335 -8.94229e-19)
(0.999805 -0.000649418 -2.97253e-20)
(0.999805 -0.000758806 1.7146e-19)
(0.999812 -0.000868678 -1.61541e-18)
(0.999831 -0.000974614 2.16239e-19)
(0.999859 -0.00107462 -5.40369e-19)
(0.999896 -0.00116453 9.91956e-19)
(0.999941 -0.00124448 1.48606e-18)
(0.99999 -0.00131115 -9.49805e-19)
(1.00004 -0.00136622 3.17359e-19)
(1.0001 -0.00140799 3.06155e-19)
(1.00015 -0.00143967 -6.08632e-19)
(1.0002 -0.00146177 -1.11686e-18)
(1.00025 -0.00147853 -9.0835e-19)
(1.00031 -0.00149202 -6.06408e-20)
(1.00036 -0.00150587 -2.99931e-19)
(1.00043 -0.00152093 3.63796e-20)
(1.0005 -0.00153803 -7.36551e-21)
(1.00059 -0.00155314 1.37299e-19)
(1.00069 -0.00155765 -1.31694e-20)
(1.00079 -0.00153063 -1.89945e-19)
(1.00092 -0.00148588 -3.38274e-20)
(1.0011 -0.00138775 5.39486e-20)
(1.00111 -0.000172052 2.79236e-21)
(0.999812 -3.87834e-05 6.41479e-21)
(0.999813 -0.000143506 2.08489e-19)
(0.999809 -0.000245454 -8.19005e-20)
(0.999799 -0.000341003 6.66619e-19)
(0.999786 -0.000443676 -2.08523e-19)
(0.999764 -0.000547511 -1.00077e-18)
(0.999745 -0.000664167 1.25642e-19)
(0.999726 -0.000788531 9.61237e-20)
(0.999717 -0.000919518 -1.67071e-19)
(0.999716 -0.00105231 3.2116e-19)
(0.99973 -0.00118156 -1.11973e-18)
(0.999755 -0.00130377 1.04194e-20)
(0.999793 -0.00141289 -5.75892e-19)
(0.999842 -0.00150763 -1.18295e-19)
(0.9999 -0.00158361 1.04017e-18)
(0.999962 -0.00164268 4.73691e-19)
(1.00003 -0.00168356 2.12246e-19)
(1.00009 -0.0017108 1.02202e-18)
(1.00016 -0.00172573 1.47964e-18)
(1.00023 -0.00173363 4.85307e-19)
(1.0003 -0.00173645 -6.17795e-20)
(1.00038 -0.00173758 9.66222e-20)
(1.00047 -0.00173624 -1.73585e-19)
(1.00058 -0.00173139 1.31396e-19)
(1.00069 -0.00171652 8.17697e-20)
(1.00083 -0.00167982 -8.70339e-20)
(1.00097 -0.00159726 1.55578e-19)
(1.00117 -0.00148534 -2.46083e-20)
(1.00139 -0.00134174 3.16337e-20)
(1.00153 -0.000101585 -1.12293e-21)
(0.999764 -4.4534e-05 -3.33467e-20)
(0.999766 -0.000166121 1.24622e-19)
(0.999759 -0.000286018 -3.92405e-19)
(0.999743 -0.000398871 2.56784e-20)
(0.999724 -0.000518158 1.21437e-19)
(0.999697 -0.000638406 8.70645e-19)
(0.99967 -0.000772031 -1.46991e-19)
(0.999644 -0.000914721 2.21917e-19)
(0.999628 -0.00106569 4.12753e-19)
(0.99962 -0.0012201 4.00402e-19)
(0.999628 -0.00137175 1.60692e-20)
(0.99965 -0.00151565 3.94958e-19)
(0.99969 -0.00164386 -1.17224e-19)
(0.999743 -0.00175342 -1.39828e-18)
(0.99981 -0.00183868 -8.33535e-19)
(0.999885 -0.00190093 1.19842e-19)
(0.999967 -0.00193878 -5.73625e-19)
(1.00005 -0.00195718 -6.57332e-19)
(1.00014 -0.00195774 -1.08226e-18)
(1.00024 -0.00194614 2.25853e-19)
(1.00034 -0.00192413 3.40052e-19)
(1.00046 -0.00189497 8.09697e-20)
(1.00058 -0.00185726 3.55818e-19)
(1.00072 -0.00180972 -1.34872e-19)
(1.00087 -0.00174633 -2.3331e-19)
(1.00105 -0.00165715 1.38786e-19)
(1.00123 -0.00152174 1.84522e-20)
(1.00148 -0.00136527 1.32828e-20)
(1.00173 -0.00122422 -4.22199e-20)
(1.00184 -0.000109856 6.47195e-23)
(0.999711 -5.13484e-05 7.733e-20)
(0.999715 -0.000187995 -2.53561e-20)
(0.999708 -0.000323312 -6.66352e-20)
(0.999694 -0.000450254 -1.33244e-19)
(0.999678 -0.000581805 3.44379e-19)
(0.999655 -0.000712734 -7.95547e-19)
(0.999634 -0.000856054 1.21138e-18)
(0.999613 -0.00100807 -1.30049e-18)
(0.999602 -0.00116841 -2.95955e-20)
(0.999599 -0.00133235 7.02332e-19)
(0.999612 -0.00149333 4.6011e-19)
(0.99964 -0.00164541 -7.81166e-19)
(0.999687 -0.00177952 -6.4044e-19)
(0.99975 -0.00189152 4.20205e-19)
(0.999828 -0.0019749 9.2925e-19)
(0.999918 -0.00203051 -1.49314e-18)
(1.00002 -0.00205681 7.31293e-19)
(1.00012 -0.00205903 6.49988e-19)
(1.00024 -0.00203901 2.40884e-19)
(1.00036 -0.00200297 2.40619e-19)
(1.00049 -0.00195299 3.1308e-20)
(1.00063 -0.00189319 -4.36284e-20)
(1.00078 -0.00182309 -6.71737e-20)
(1.00094 -0.0017433 1.65157e-19)
(1.00112 -0.00165083 1.15296e-19)
(1.00132 -0.00154073 -4.79821e-20)
(1.00151 -0.00139887 -5.55537e-20)
(1.00179 -0.0012567 -2.59328e-21)
(1.00207 -0.00117607 4.66184e-21)
(1.00209 -0.000278747 1.38505e-21)
(0.999653 -5.89277e-05 -5.05677e-20)
(0.999662 -0.000209678 5.26476e-20)
(0.999662 -0.000358479 5.63909e-19)
(0.999659 -0.000496724 -3.07156e-19)
(0.999658 -0.000636331 -5.23231e-19)
(0.999654 -0.000771792 -1.76033e-19)
(0.999653 -0.000916336 -7.05923e-19)
(0.999654 -0.00106672 5.96297e-19)
(0.999663 -0.00122303 -4.21523e-19)
(0.99968 -0.00138104 -1.28036e-19)
(0.99971 -0.00153457 -1.01688e-18)
(0.999754 -0.00167772 2.12525e-19)
(0.999815 -0.00180142 4.5342e-19)
(0.999891 -0.00190139 4.3575e-19)
(0.999982 -0.00197119 -8.34437e-19)
(1.00008 -0.00201178 1.19714e-18)
(1.0002 -0.00202199 -8.36522e-19)
(1.00032 -0.00200747 -5.81818e-19)
(1.00044 -0.00197061 9.00367e-20)
(1.00058 -0.00191834 -2.15543e-19)
(1.00072 -0.00185355 -3.36696e-19)
(1.00087 -0.00178167 -2.56916e-19)
(1.00104 -0.00170379 -2.79752e-20)
(1.00121 -0.00162281 -2.63529e-19)
(1.0014 -0.0015387 1.49768e-19)
(1.0016 -0.00145034 -4.19905e-20)
(1.0018 -0.00134758 -1.12139e-19)
(1.00209 -0.00126169 4.73394e-21)
(1.00239 -0.00126222 -6.67879e-21)
(1.00231 -0.000582055 -1.40007e-21)
(0.999591 -6.70181e-05 4.6493e-20)
(0.999608 -0.000232196 -2.63208e-19)
(0.999621 -0.000393912 -3.11668e-19)
(0.999635 -0.000542222 7.07612e-20)
(0.999658 -0.000687545 -9.43524e-21)
(0.999683 -0.000823577 9.0419e-19)
(0.999714 -0.000963464 8.58182e-20)
(0.999748 -0.0011042 4.8555e-19)
(0.999788 -0.00124651 5.3364e-19)
(0.999834 -0.00138704 -6.94607e-19)
(0.99989 -0.00152078 1.39679e-19)
(0.999955 -0.00164287 3.65395e-19)
(1.00003 -0.00174539 5.81012e-19)
(1.00012 -0.00182502 2.99376e-19)
(1.00022 -0.00187631 2.472e-20)
(1.00033 -0.00190101 -1.0574e-18)
(1.00045 -0.00189869 6.19151e-19)
(1.00057 -0.00187562 2.87671e-19)
(1.0007 -0.00183471 -1.80705e-20)
(1.00084 -0.00178348 7.50808e-20)
(1.00098 -0.00172537 -2.23295e-20)
(1.00113 -0.00166665 -1.06408e-19)
(1.0013 -0.00160925 8.4892e-20)
(1.00147 -0.00155711 2.51682e-20)
(1.00166 -0.00151109 -9.42596e-20)
(1.00186 -0.00147088 2.79842e-21)
(1.00206 -0.00142675 1.00566e-19)
(1.00235 -0.00140577 6.8306e-21)
(1.00269 -0.00147245 -8.55661e-21)
(1.00255 -0.000959604 4.36797e-22)
(0.999527 -7.56696e-05 -5.68389e-21)
(0.999551 -0.000256482 2.52558e-19)
(0.999579 -0.000431779 8.07842e-20)
(0.999615 -0.000590622 -3.76147e-19)
(0.999665 -0.000741774 4.32912e-20)
(0.999722 -0.000877802 -4.47781e-19)
(0.999788 -0.0010115 -5.52356e-19)
(0.999857 -0.00114002 -9.37268e-20)
(0.999932 -0.00126475 -7.02193e-19)
(1.00001 -0.00138355 6.9601e-19)
(1.00009 -0.00149308 8.10469e-19)
(1.00018 -0.00159033 5.4657e-19)
(1.00027 -0.00166935 9.8848e-20)
(1.00037 -0.00172854 -6.11725e-20)
(1.00047 -0.00176406 -7.93388e-20)
(1.00058 -0.00177884 -1.70235e-19)
(1.0007 -0.00177331 -3.57245e-19)
(1.00082 -0.00175418 -4.0517e-19)
(1.00094 -0.00172455 -3.71202e-19)
(1.00107 -0.00169192 -2.0788e-19)
(1.00121 -0.00165948 1.18533e-19)
(1.00136 -0.00163322 6.14795e-20)
(1.00152 -0.00161454 3.59221e-20)
(1.0017 -0.00160662 7.04137e-20)
(1.00188 -0.00160903 -3.28788e-20)
(1.00209 -0.00161978 -8.64295e-21)
(1.0023 -0.00162758 -7.01697e-20)
(1.0026 -0.00165501 -7.59264e-20)
(1.00296 -0.00175638 -6.48937e-21)
(1.00282 -0.00134424 1.27958e-22)
(0.999459 -8.4575e-05 -2.68141e-20)
(0.99949 -0.000282665 -3.87536e-20)
(0.999531 -0.000472994 1.64075e-19)
(0.999586 -0.000644078 5.74996e-19)
(0.99966 -0.000803157 2.27173e-20)
(0.999745 -0.000941537 9.48337e-19)
(0.999841 -0.00107156 6.41425e-19)
(0.999942 -0.0011904 6.34843e-19)
(1.00005 -0.00130013 5.52881e-19)
(1.00015 -0.00139991 2.63072e-20)
(1.00025 -0.00148838 -6.66451e-19)
(1.00036 -0.00156462 -4.55397e-19)
(1.00046 -0.00162509 -3.94086e-19)
(1.00057 -0.00167018 -1.67871e-19)
(1.00067 -0.00169786 2.56753e-19)
(1.00078 -0.00171218 1.19294e-19)
(1.00089 -0.00171424 2.88867e-19)
(1.001 -0.00171079 1.64584e-19)
(1.00113 -0.00170451 1.11475e-19)
(1.00125 -0.00170209 -2.12014e-20)
(1.00139 -0.00170554 -2.19905e-19)
(1.00154 -0.00171948 1.51414e-19)
(1.0017 -0.00174355 -2.2471e-19)
(1.00189 -0.00177895 -1.5693e-19)
(1.00208 -0.00182281 5.89799e-20)
(1.00231 -0.00187063 2.46096e-20)
(1.00253 -0.00190959 -5.85949e-20)
(1.00285 -0.00196002 2.1902e-21)
(1.00324 -0.00206502 1.92098e-20)
(1.00314 -0.00169761 2.29279e-21)
(0.999388 -9.3757e-05 1.67353e-20)
(0.999422 -0.000310314 6.7718e-20)
(0.999472 -0.000517147 -4.60443e-19)
(0.999542 -0.000702513 -5.19063e-19)
(0.999632 -0.000872577 3.07601e-19)
(0.999737 -0.00101739 -8.72349e-19)
(0.999854 -0.00114876 -1.67208e-19)
(0.999975 -0.00126385 -9.81611e-19)
(1.0001 -0.00136525 -3.37826e-19)
(1.00022 -0.00145336 -4.5483e-19)
(1.00034 -0.00152867 3.3975e-19)
(1.00046 -0.00159238 -3.54732e-19)
(1.00057 -0.00164321 1.96025e-19)
(1.00068 -0.00168346 4.01228e-20)
(1.00079 -0.00171272 -2.73968e-19)
(1.00089 -0.00173582 4.02786e-19)
(1.001 -0.00175415 3.09361e-19)
(1.00112 -0.00177395 3.84344e-21)
(1.00124 -0.00179694 1.10229e-19)
(1.00137 -0.00182831 1.32681e-19)
(1.00152 -0.00186826 4.76249e-19)
(1.00168 -0.00191931 -1.67824e-19)
(1.00186 -0.00197886 2.84819e-20)
(1.00205 -0.00204569 1.422e-20)
(1.00227 -0.00211455 -6.07146e-20)
(1.00252 -0.00217887 -7.37583e-20)
(1.00277 -0.00222539 3.8135e-20)
(1.00311 -0.00227475 4.08697e-20)
(1.00352 -0.00236036 -2.38121e-20)
(1.00347 -0.00199663 -1.08697e-20)
(0.999312 -0.000102859 5.30224e-20)
(0.999346 -0.000338362 -3.33347e-19)
(0.999401 -0.00056272 4.86539e-19)
(0.999477 -0.000764135 1.08229e-19)
(0.999575 -0.000948189 2.0622e-19)
(0.999689 -0.00110382 -4.91476e-21)
(0.999816 -0.00124235 1.93156e-19)
(0.999948 -0.0013608 -1.98987e-19)
(1.00008 -0.00146212 9.17348e-19)
(1.00021 -0.00154772 -1.21972e-19)
(1.00034 -0.00161964 -2.51682e-19)
(1.00047 -0.00168084 1.05721e-18)
(1.00059 -0.00173194 1.36708e-19)
(1.0007 -0.00177675 3.52503e-19)
(1.00081 -0.00181599 3.97337e-19)
(1.00093 -0.00185489 -4.28586e-20)
(1.00104 -0.00189463 -1.61604e-19)
(1.00117 -0.00194052 2.68247e-19)
(1.0013 -0.00199288 1.18626e-19)
(1.00145 -0.00205509 -5.47631e-20)
(1.00161 -0.00212526 -2.87295e-19)
(1.00179 -0.00220373 4.82876e-19)
(1.002 -0.00228569 4.12943e-20)
(1.00222 -0.00236793 1.94616e-19)
(1.00247 -0.00244353 -9.84708e-20)
(1.00275 -0.00250498 6.92602e-20)
(1.00303 -0.0025398 -2.09057e-20)
(1.0034 -0.00257093 -4.00194e-20)
(1.00382 -0.00262397 6.61502e-20)
(1.00382 -0.00224048 2.28515e-21)
(0.999229 -0.000111887 -7.85694e-20)
(0.999262 -0.000365796 2.07693e-19)
(0.999317 -0.000607833 -1.18849e-19)
(0.999392 -0.000826245 2.37255e-19)
(0.99949 -0.00102653 -9.02394e-19)
(0.999604 -0.00119671 5.34666e-20)
(0.999731 -0.00134763 -1.27734e-20)
(0.999865 -0.00147613 5.91407e-19)
(1 -0.00158525 -8.29377e-19)
(1.00014 -0.00167715 1.96732e-19)
(1.00027 -0.00175498 3.00641e-19)
(1.0004 -0.00182296 -6.25191e-19)
(1.00053 -0.00188306 -3.85712e-19)
(1.00065 -0.00194009 5.38241e-20)
(1.00077 -0.00199539 2.25664e-19)
(1.0009 -0.00205412 1.59493e-19)
(1.00103 -0.00211687 -1.27316e-19)
(1.00117 -0.00218777 -5.63665e-20)
(1.00133 -0.00226557 -1.12431e-19)
(1.0015 -0.00235181 -1.37325e-19)
(1.0017 -0.00244264 3.08033e-19)
(1.00191 -0.00253653 -6.59853e-19)
(1.00215 -0.00262697 1.61159e-19)
(1.00241 -0.00270947 -2.26663e-19)
(1.00269 -0.00277643 4.55176e-20)
(1.003 -0.00282044 3.60102e-20)
(1.00331 -0.00283065 1.22392e-20)
(1.0037 -0.00283331 3.6061e-20)
(1.00412 -0.00284812 -4.92503e-20)
(1.00417 -0.00243248 3.36034e-21)
(0.999141 -0.000120422 2.07889e-21)
(0.999171 -0.00039156 2.25817e-19)
(0.999222 -0.000650672 -2.14604e-19)
(0.999291 -0.000886199 1.4872e-19)
(0.999383 -0.00110393 3.86624e-20)
(0.999489 -0.00129119 -2.60835e-19)
(0.99961 -0.00145842 5.99832e-19)
(0.99974 -0.00160223 -6.2683e-19)
(0.999875 -0.00172554 6.50007e-19)
(1.00001 -0.00183092 4.85084e-19)
(1.00015 -0.00192222 -2.68358e-19)
(1.00028 -0.00200438 3.04359e-19)
(1.00042 -0.00208019 6.50793e-19)
(1.00056 -0.00215486 -8.28964e-19)
(1.0007 -0.00222991 -3.59681e-19)
(1.00084 -0.00231003 -3.64339e-19)
(1.001 -0.00239498 -1.26757e-19)
(1.00117 -0.00248759 4.48448e-20)
(1.00136 -0.00258511 1.25369e-19)
(1.00156 -0.00268744 3.21961e-19)
(1.00179 -0.00278916 -7.21279e-19)
(1.00205 -0.00288737 2.12706e-19)
(1.00232 -0.00297453 -2.30756e-19)
(1.00262 -0.0030457 2.71977e-19)
(1.00294 -0.00309337 -6.39338e-20)
(1.00328 -0.00311104 -4.50317e-20)
(1.00361 -0.0030899 -1.47633e-21)
(1.00402 -0.00305969 6.48718e-20)
(1.00444 -0.00303572 1.23601e-20)
(1.00452 -0.00258397 -5.26783e-21)
(0.999047 -0.000128534 5.01005e-20)
(0.999072 -0.000415135 -2.14075e-19)
(0.999117 -0.000690062 5.58285e-20)
(0.999178 -0.000941998 7.9339e-20)
(0.99926 -0.00117741 3.12251e-19)
(0.999356 -0.00138309 5.56731e-19)
(0.999468 -0.0015691 -9.98444e-19)
(0.999591 -0.00173181 1.36804e-18)
(0.999722 -0.00187384 -1.70853e-19)
(0.999858 -0.00199793 -9.28845e-19)
(0.999999 -0.00210813 -2.97003e-19)
(1.00014 -0.00220971 -8.61967e-19)
(1.00029 -0.00230571 -7.54783e-19)
(1.00045 -0.00240131 -4.85319e-19)
(1.00061 -0.00249778 -3.41926e-19)
(1.00078 -0.00259907 4.55275e-19)
(1.00097 -0.00270403 4.8631e-19)
(1.00117 -0.00281418 -8.56397e-19)
(1.0014 -0.00292552 -7.70723e-19)
(1.00165 -0.00303661 2.94736e-19)
(1.00192 -0.00314095 4.66616e-19)
(1.00221 -0.00323481 -3.2842e-19)
(1.00253 -0.00331028 3.71576e-19)
(1.00286 -0.00336254 -6.0376e-20)
(1.00322 -0.00338479 7.17596e-20)
(1.00358 -0.00337177 7.76793e-20)
(1.00393 -0.00331672 1.77488e-19)
(1.00435 -0.00325257 -9.05735e-20)
(1.00476 -0.00319147 2.3684e-20)
(1.00486 -0.00270286 -4.22518e-21)
(0.998947 -0.000135891 4.43916e-20)
(0.998969 -0.000436167 -1.68389e-19)
(0.999007 -0.000725413 1.95063e-19)
(0.999059 -0.00099271 -3.0559e-19)
(0.99913 -0.0012454 3.62465e-19)
(0.999216 -0.00146984 -4.11025e-19)
(0.999319 -0.00167588 5.23222e-19)
(0.999435 -0.00185958 -4.17224e-19)
(0.999563 -0.00202318 -5.00316e-19)
(0.999701 -0.0021693 1.4435e-18)
(0.999848 -0.00230195 4.58645e-19)
(1 -0.00242625 1.27202e-18)
(1.00017 -0.00254511 7.77615e-19)
(1.00034 -0.0026633 2.28873e-19)
(1.00053 -0.00278154 -2.90684e-19)
(1.00074 -0.00290291 2.48924e-19)
(1.00096 -0.00302528 -3.86238e-19)
(1.00121 -0.00314905 9.62967e-19)
(1.00147 -0.00326915 9.38528e-19)
(1.00176 -0.00338323 -4.81311e-19)
(1.00208 -0.00348411 8.67047e-20)
(1.00241 -0.00356777 5.03563e-19)
(1.00276 -0.00362635 3.882e-20)
(1.00313 -0.00365561 -1.08025e-21)
(1.00351 -0.00364974 -1.81421e-21)
(1.0039 -0.00360487 7.42787e-20)
(1.00427 -0.00351601 1.63009e-20)
(1.00468 -0.00341879 -3.21882e-20)
(1.00508 -0.00332298 -6.68345e-21)
(1.00518 -0.00279855 1.08904e-20)
(0.998844 -0.000142672 -7.69001e-20)
(0.998862 -0.000454929 -1.57976e-19)
(0.998893 -0.00075695 -2.09476e-19)
(0.998937 -0.00103841 1.57838e-19)
(0.998999 -0.00130765 -9.96022e-19)
(0.999076 -0.00155068 7.59952e-19)
(0.999172 -0.00177718 -3.73409e-19)
(0.999284 -0.00198295 -4.14649e-19)
(0.999413 -0.0021697 -3.3604e-19)
(0.999554 -0.00233982 -1.6457e-18)
(0.999711 -0.00249696 5.508e-20)
(0.999881 -0.00264584 -1.15419e-18)
(1.00007 -0.00278889 6.24124e-20)
(1.00027 -0.00293021 3.02525e-19)
(1.00049 -0.00306977 6.24056e-19)
(1.00073 -0.00320972 -9.01459e-19)
(1.00099 -0.00334699 2.06239e-19)
(1.00127 -0.00348102 -4.56853e-19)
(1.00158 -0.00360597 -9.30256e-19)
(1.00191 -0.00371887 -3.99211e-19)
(1.00227 -0.00381227 -3.78626e-19)
(1.00264 -0.00388217 9.04403e-20)
(1.00303 -0.00392113 -5.34468e-19)
(1.00343 -0.00392567 6.0266e-20)
(1.00383 -0.00389109 3.58805e-20)
(1.00423 -0.00381477 -1.97287e-19)
(1.00461 -0.0036932 -1.29962e-19)
(1.00502 -0.00356408 6.85806e-21)
(1.0054 -0.0034355 1.05752e-20)
(1.00548 -0.00287595 -4.92362e-21)
(0.998737 -0.000148586 -3.56321e-20)
(0.998752 -0.000471718 4.7693e-19)
(0.998778 -0.000785369 1.32447e-19)
(0.998816 -0.00108012 -4.17549e-19)
(0.998871 -0.00136528 5.06225e-19)
(0.998943 -0.00162657 -2.93044e-19)
(0.999036 -0.00187358 -2.19449e-19)
(0.999148 -0.00210186 -6.95889e-20)
(0.99928 -0.00231258 1.16928e-19)
(0.99943 -0.0025077 1.06362e-18)
(0.999599 -0.00269039 -6.81885e-19)
(0.999787 -0.00286471 9.72694e-19)
(0.999996 -0.0030324 -1.10989e-18)
(1.00023 -0.00319671 -4.89004e-19)
(1.00048 -0.00335678 -6.04571e-19)
(1.00075 -0.00351377 3.11322e-19)
(1.00105 -0.00366379 -3.34937e-19)
(1.00138 -0.00380547 -6.28312e-20)
(1.00173 -0.00393244 7.89152e-19)
(1.0021 -0.00404139 1.24447e-18)
(1.00249 -0.00412484 1.01078e-18)
(1.00289 -0.00417911 -5.34037e-19)
(1.00331 -0.00419729 4.53404e-19)
(1.00373 -0.00417679 1.45323e-19)
(1.00415 -0.00411395 -4.46524e-20)
(1.00457 -0.00400725 1.10835e-19)
(1.00494 -0.00385433 3.35308e-20)
(1.00535 -0.00369446 -6.17076e-20)
(1.0057 -0.00353439 -1.87104e-20)
(1.00577 -0.00293995 8.29262e-21)
(0.998628 -0.000153901 7.23338e-20)
(0.998639 -0.000487286 -1.70382e-19)
(0.998663 -0.000811923 4.45861e-21)
(0.998697 -0.00111943 -3.37159e-19)
(0.99875 -0.00142022 -1.65175e-19)
(0.99882 -0.0016996 1.18114e-19)
(0.998914 -0.00196718 -5.64284e-19)
(0.999029 -0.00221824 -9.24863e-19)
(0.999168 -0.00245335 7.26843e-19)
(0.99933 -0.00267401 -6.8319e-19)
(0.999516 -0.00288271 -9.14582e-19)
(0.999725 -0.00308273 -5.90361e-19)
(0.999959 -0.00327496 1.76657e-18)
(1.00022 -0.00346173 -9.3497e-20)
(1.0005 -0.00364125 7.89848e-19)
(1.00081 -0.00381378 1.60048e-19)
(1.00115 -0.00397467 6.98321e-19)
(1.00152 -0.00412194 1.05422e-18)
(1.0019 -0.00424885 -2.64052e-19)
(1.00231 -0.00435196 -1.25805e-18)
(1.00273 -0.00442398 -3.5065e-19)
(1.00317 -0.00446163 1.49817e-19)
(1.00361 -0.00445867 4.47196e-20)
(1.00405 -0.00441335 -2.93243e-19)
(1.00448 -0.00432294 7.17867e-20)
(1.0049 -0.00418684 -3.16243e-20)
(1.00527 -0.00400352 -1.01814e-19)
(1.00567 -0.00381343 6.30855e-20)
(1.006 -0.00362227 -1.7747e-21)
(1.00603 -0.00299236 5.0831e-22)
(0.998516 -0.00015841 -8.40483e-20)
(0.998526 -0.000502164 1.78409e-19)
(0.998548 -0.000837897 5.42732e-20)
(0.998581 -0.00115832 1.79781e-19)
(0.998635 -0.00147494 6.45852e-19)
(0.998708 -0.00177264 2.48335e-19)
(0.998806 -0.00206103 8.39938e-19)
(0.998929 -0.00233515 4.05067e-19)
(0.999079 -0.00259499 6.18064e-19)
(0.999256 -0.00284143 1.66509e-18)
(0.99946 -0.00307625 2.94532e-19)
(0.999693 -0.00330185 5.03784e-19)
(0.999953 -0.0035182 1.59262e-19)
(1.00024 -0.00372662 4.10102e-19)
(1.00056 -0.00392444 3.57683e-19)
(1.00091 -0.00411105 -5.0715e-19)
(1.00128 -0.00428118 -1.42774e-19)
(1.00168 -0.00443232 -6.48358e-19)
(1.0021 -0.00455756 5.65876e-19)
(1.00254 -0.00465349 1.00333e-18)
(1.00299 -0.00471308 -1.01611e-18)
(1.00345 -0.00473357 -3.68454e-19)
(1.00391 -0.00470938 -2.44497e-19)
(1.00436 -0.00463954 7.37782e-20)
(1.0048 -0.00452216 -4.88616e-20)
(1.00522 -0.00435736 -2.76056e-20)
(1.00559 -0.00414424 3.84688e-20)
(1.00597 -0.00392407 6.68494e-20)
(1.00628 -0.00370166 5.13619e-21)
(1.00628 -0.00303509 -4.56248e-21)
(0.998404 -0.000162487 7.83967e-20)
(0.99841 -0.000517226 -6.05063e-20)
(0.998433 -0.000864749 -1.25222e-19)
(0.998468 -0.00119877 3.98983e-19)
(0.998525 -0.00153197 1.03517e-20)
(0.998604 -0.00184863 9.28448e-20)
(0.99871 -0.0021584 -6.50001e-19)
(0.998844 -0.00245608 4.93608e-19)
(0.999009 -0.002741 -1.77211e-18)
(0.999203 -0.00301344 -4.27254e-19)
(0.999429 -0.00327432 4.83353e-19)
(0.999685 -0.00352517 -4.12153e-19)
(0.999973 -0.00376495 -8.44023e-19)
(1.00029 -0.00399403 9.33944e-19)
(1.00064 -0.00420885 2.47692e-19)
(1.00102 -0.00440805 -9.7452e-19)
(1.00143 -0.00458579 -8.58364e-20)
(1.00186 -0.00473923 1.88671e-19)
(1.00231 -0.00486138 -1.04596e-18)
(1.00278 -0.00494893 -5.18834e-19)
(1.00325 -0.00499525 6.25877e-19)
(1.00373 -0.00499808 4.1572e-19)
(1.00421 -0.00495251 8.03753e-20)
(1.00467 -0.00485826 5.78531e-20)
(1.00512 -0.00471417 2.43074e-20)
(1.00553 -0.00452093 -1.14989e-19)
(1.0059 -0.00427808 1.32482e-19)
(1.00627 -0.00402751 9.09505e-22)
(1.00655 -0.00377325 -1.58128e-20)
(1.00652 -0.00306864 -1.88611e-21)
(0.998289 -0.000165957 -6.91979e-20)
(0.998293 -0.000532935 -1.93507e-20)
(0.998318 -0.000893673 -2.78672e-19)
(0.998357 -0.00124261 1.84758e-19)
(0.998419 -0.00159367 -9.63621e-19)
(0.998507 -0.00193037 -7.04612e-19)
(0.998624 -0.0022624 2.02436e-19)
(0.998772 -0.0025843 -4.52004e-19)
(0.998953 -0.00289473 1.18119e-18)
(0.999167 -0.00319327 -2.27537e-18)
(0.999415 -0.00348003 9.80506e-19)
(0.999697 -0.00375558 -5.54444e-20)
(1.00001 -0.00401792 -1.30185e-18)
(1.00036 -0.00426646 -2.03196e-18)
(1.00074 -0.00449687 -1.0296e-18)
(1.00115 -0.00470707 5.60572e-19)
(1.00159 -0.00489082 2.64731e-19)
(1.00205 -0.005045 -3.79362e-19)
(1.00253 -0.00516267 3.28533e-19)
(1.00302 -0.0052407 5.36317e-19)
(1.00351 -0.00527289 5.65967e-20)
(1.00401 -0.0052575 -1.03426e-19)
(1.0045 -0.00519023 1.5713e-19)
(1.00497 -0.00507147 -2.37028e-19)
(1.00542 -0.00490068 -2.40489e-20)
(1.00583 -0.00467899 1.46033e-19)
(1.00618 -0.00440627 -1.78187e-19)
(1.00654 -0.00412485 -2.86178e-20)
(1.00679 -0.00383799 1.03082e-20)
(1.00674 -0.00309369 1.96335e-21)
(0.998172 -0.000169242 1.17339e-19)
(0.998173 -0.000550016 -4.08347e-19)
(0.998201 -0.00092586 3.17463e-19)
(0.998245 -0.00129136 1.59383e-19)
(0.998315 -0.00166191 5.00267e-19)
(0.998413 -0.00202006 5.71354e-19)
(0.998544 -0.00237547 -1.0503e-19)
(0.998708 -0.00272243 -5.93804e-21)
(0.998907 -0.00305884 -8.44728e-19)
(0.999142 -0.00338361 1.98868e-18)
(0.999413 -0.00369594 4.6716e-19)
(0.999721 -0.0039955 8.26985e-20)
(1.00006 -0.00427934 2.01759e-18)
(1.00044 -0.00454599 2.17094e-18)
(1.00085 -0.00479039 7.97827e-20)
(1.00129 -0.00500989 1.64735e-18)
(1.00176 -0.00519793 -1.08314e-18)
(1.00224 -0.00535123 -2.55891e-19)
(1.00275 -0.00546296 1.89617e-19)
(1.00326 -0.00553026 -8.64918e-19)
(1.00377 -0.00554735 -3.77369e-19)
(1.00428 -0.00551303 3.13084e-19)
(1.00478 -0.0054236 -1.22592e-19)
(1.00526 -0.00528002 2.86762e-19)
(1.0057 -0.00508227 -1.42844e-21)
(1.00611 -0.00483187 -7.9837e-20)
(1.00646 -0.00452893 6.86467e-20)
(1.0068 -0.00421606 -2.80793e-21)
(1.00703 -0.00389585 1.68474e-21)