1.45 	0 	0 	-0.00760997 	-0.00259624 	3.83795e-21
2.35 	0 	0 	0.0625319 	-0.00667062 	2.36212e-21
