1.275 	2.15223e-18 	-2.76991e-20 	-0.0308149 	-0.00118686 	-2.0624e-22
1.825 	2.15223e-18 	-1.39322e-20 	0.0314887 	-0.00513112 	1.52171e-21
2.375 	2.15223e-18 	-2.66896e-23 	0.250512 	-0.00667491 	-5.61873e-22
