1.45 	0 	0 	-0.00717643 	-0.00262786 	3.8745e-21
2.35 	0 	0 	0.0639075 	-0.00671584 	2.40474e-21
