1.45 	0 	0 	-0.30713
2.35 	0 	0 	-0.130311
