1.45 	0 	0 	-0.00742139 	-0.00260934 	3.85602e-21
2.35 	0 	0 	0.0630994 	-0.00669065 	2.38457e-21
