/*--------------------------------*- C++ -*----------------------------------*\
  =========                 |
  \\      /  F ield         | OpenFOAM: The Open Source CFD Toolbox
   \\    /   O peration     | Website:  https://openfoam.org
    \\  /    A nd           | Version:  6.0
     \\/     M anipulation  |
\*---------------------------------------------------------------------------*/
FoamFile
{
    version     2.0;
    format      ascii;
    class       volVectorField;
    location    "2";
    object      U;
}
// * * * * * * * * * * * * * * * * * * * * * * * * * * * * * * * * * * * * * //

dimensions      [0 1 -1 0 0 0 0];

internalField   nonuniform List<vector> 
2000
(
(-0.00199811 0.00152056 3.94952e-20)
(-0.0063581 0.00217012 4.15587e-20)
(-0.0104235 0.00131788 -3.78686e-20)
(-0.011432 -0.000420838 -7.3757e-20)
(-0.00850331 -0.00265913 -4.92202e-20)
(-0.00162794 -0.00511538 6.33128e-20)
(0.00886796 -0.00755696 3.50385e-20)
(0.0222488 -0.00978611 -1.41981e-20)
(0.0372035 -0.0116394 -3.36433e-20)
(0.0538849 -0.012926 1.96205e-20)
(-0.00240854 0.00445765 -9.79503e-20)
(-0.00668435 0.00628773 1.19917e-19)
(-0.00996175 0.00369975 1.04803e-20)
(-0.00979695 -0.00149299 -6.32335e-20)
(-0.00548611 -0.00815477 2.91681e-19)
(0.00287543 -0.01546 -1.23661e-19)
(0.0148912 -0.0227253 -1.28175e-19)
(0.0297841 -0.0293646 1.50277e-19)
(0.0462045 -0.0348874 -1.41821e-19)
(0.0641509 -0.0387245 6.02118e-20)
(-0.00316897 0.00709202 1.63853e-20)
(-0.00718259 0.00976981 5.57668e-21)
(-0.0088168 0.00537444 3.44257e-19)
(-0.00626445 -0.00318287 1.1511e-19)
(0.000827202 -0.0140923 2.17091e-20)
(0.0121555 -0.0260417 1.74547e-19)
(0.0271853 -0.037941 -3.21024e-19)
(0.0450599 -0.048839 6.65351e-21)
(0.0643577 -0.0579171 -1.7957e-19)
(0.0847637 -0.0642372 1.53223e-19)
(-0.00415605 0.00922566 -3.083e-20)
(-0.00754048 0.0122146 1.56955e-19)
(-0.00654257 0.00591841 -4.37755e-19)
(-0.000306923 -0.00582265 -5.33036e-20)
(0.0109987 -0.020648 -2.95669e-19)
(0.0267655 -0.0368554 2.96013e-19)
(0.0462545 -0.0530261 -3.04354e-19)
(0.0684971 -0.0678888 2.07514e-19)
(0.0919781 -0.0803017 8.49633e-20)
(0.115902 -0.0889803 -7.39829e-20)
(-0.00517707 0.0106673 -3.44258e-19)
(-0.00727744 0.0132546 3.88328e-21)
(-0.00245746 0.00497797 5.42526e-19)
(0.0088819 -0.00963259 1.53778e-19)
(0.0258916 -0.0278335 -4.77475e-19)
(0.0475619 -0.0476654 2.89125e-19)
(0.0728865 -0.0674972 3.11918e-19)
(0.10076 -0.0858172 -2.70988e-19)
(0.129574 -0.101183 1.88692e-19)
(0.157886 -0.112009 4.022e-20)
(-0.00596316 0.011238 4.69848e-20)
(-0.00573768 0.0125741 7.58252e-21)
(0.00435845 0.00229235 -6.99439e-19)
(0.0223895 -0.0146948 -3.74972e-19)
(0.0466792 -0.0354617 4.31554e-19)
(0.0757243 -0.0579529 -4.89254e-19)
(0.108185 -0.0804811 5.42243e-19)
(0.142796 -0.101426 -4.71609e-20)
(0.177892 -0.119109 -1.45912e-19)
(0.211242 -0.131736 -3.43055e-19)
(-0.00616567 0.0107829 -1.03372e-19)
(-0.00209575 0.00993368 -1.68651e-19)
(0.0150444 -0.00228578 -1.98811e-19)
(0.0415598 -0.0209475 4.06767e-19)
(0.0748258 -0.0431579 7.28263e-19)
(0.112757 -0.0669334 -1.47323e-19)
(0.1536 -0.09072 -3.3872e-19)
(0.195896 -0.112994 1.01767e-19)
(0.238005 -0.131992 -6.17596e-19)
(0.27685 -0.145863 5.58866e-19)
(-0.00536233 0.00919234 6.32699e-19)
(0.0046116 0.00520704 -3.09812e-19)
(0.030898 -0.00876788 5.77409e-19)
(0.0679091 -0.0281966 -9.11259e-19)
(0.11199 -0.050413 -4.20924e-19)
(0.160391 -0.0736388 -5.65712e-19)
(0.210841 -0.0966336 1.62967e-19)
(0.261605 -0.118233 -4.28241e-19)
(0.311207 -0.136829 9.17828e-19)
(0.355902 -0.150827 2.05149e-19)
(-0.00308095 0.00643333 4.69614e-20)
(0.0154162 -0.00157017 5.03511e-19)
(0.0532648 -0.0170064 9.64696e-19)
(0.102987 -0.0361538 2.83779e-19)
(0.15988 -0.0567123 8.15625e-19)
(0.220456 -0.0771263 4.23379e-20)
(0.281772 -0.0964756 3.14903e-21)
(0.341597 -0.114007 3.0562e-19)
(0.39864 -0.128416 2.35619e-19)
(0.4491 -0.139361 -6.41874e-19)
(0.0011495 0.00258834 -3.75466e-19)
(0.031294 -0.0101444 -5.6353e-19)
(0.0833546 -0.0266786 -7.88903e-19)
(0.148166 -0.0445435 1.79719e-20)
(0.220119 -0.061915 -3.76573e-19)
(0.295103 -0.0773536 5.78606e-19)
(0.369567 -0.0899167 -1.54932e-18)
(0.440561 -0.0986771 6.82434e-19)
(0.506129 -0.102413 2.45943e-19)
(0.562221 -0.104109 6.3465e-19)
(0.00771384 -0.00210305 1.8847e-19)
(0.0529587 -0.0199692 -6.45171e-19)
(0.121868 -0.037204 5.55518e-19)
(0.203969 -0.0530893 -2.08925e-19)
(0.293085 -0.0665434 2.20763e-19)
(0.385024 -0.076351 4.65261e-19)
(0.476679 -0.0813879 -6.10715e-19)
(0.566181 -0.0802133 7.30653e-20)
(0.652589 -0.0725688 -2.77795e-19)
(0.735302 -0.0653797 4.3381e-19)
(0.0168376 -0.0072179 2.68535e-19)
(0.080699 -0.0301002 -5.85043e-19)
(0.168679 -0.0474491 7.70881e-19)
(0.269301 -0.0608343 -4.64738e-19)
(0.375867 -0.0704034 -1.66833e-19)
(0.483953 -0.0757948 9.62211e-20)
(0.590392 -0.076736 5.14635e-20)
(0.693187 -0.0729609 6.29233e-19)
(0.790449 -0.0659414 1.7485e-19)
(0.878372 -0.0615026 6.16693e-19)
(0.0286015 -0.0121835 -2.3899e-19)
(0.11448 -0.0391876 7.5484e-19)
(0.22325 -0.0555133 -6.11192e-19)
(0.342723 -0.0653444 -6.96167e-19)
(0.465683 -0.0702656 9.44986e-19)
(0.587305 -0.0708793 -6.96269e-19)
(0.704024 -0.0677606 1.80104e-19)
(0.813256 -0.0614543 -1.01202e-18)
(0.91236 -0.0535981 7.40153e-19)
(0.996862 -0.0474909 2.85676e-20)
(0.0429802 -0.01638 -3.10097e-19)
(0.154014 -0.0457455 -2.70686e-19)
(0.284786 -0.0593139 -5.59269e-19)
(0.422766 -0.0640536 6.55662e-19)
(0.560381 -0.0630657 -3.18257e-20)
(0.692531 -0.0578972 4.0087e-19)
(0.815451 -0.0498321 7.05176e-19)
(0.926379 -0.0398828 -2.1246e-19)
(1.0227 -0.0293689 -7.02414e-19)
(1.10053 -0.0199042 1.21753e-18)
(0.0598578 -0.0192087 -1.59111e-19)
(0.198748 -0.0483584 -1.70702e-19)
(0.352146 -0.056964 3.00573e-19)
(0.507654 -0.0548472 -5.42007e-19)
(0.65766 -0.0466388 9.04255e-20)
(0.797115 -0.0347772 7.82833e-20)
(0.922479 -0.0211297 3.02698e-20)
(1.03137 -0.0069892 -1.00399e-20)
(1.12185 0.00670145 -8.22179e-20)
(1.19108 0.0192866 -1.02758e-18)
(0.0790157 -0.0201164 6.46732e-19)
(0.247826 -0.0457844 -4.04609e-19)
(0.423766 -0.0469469 4.62496e-21)
(0.59515 -0.0362468 -5.82802e-19)
(0.754777 -0.0197848 -2.02155e-19)
(0.898107 -0.000786831 1.86122e-19)
(1.02232 0.0184483 1.36553e-19)
(1.12593 0.0365088 -4.79813e-19)
(1.20812 0.052851 3.74771e-19)
(1.26736 0.0673552 -4.29e-19)
(0.100111 -0.0186056 2.76922e-19)
(0.300074 -0.037017 -2.21564e-19)
(0.497658 -0.0282111 8.9635e-19)
(0.682589 -0.00748693 8.96625e-20)
(0.848646 0.017748 1.98025e-19)
(0.992333 0.04367 8.57879e-19)
(1.11207 0.0677677 -1.29817e-19)
(1.20769 0.0887208 1.0939e-19)
(1.27978 0.106467 4.0972e-20)
(1.32825 0.121216 -5.05933e-20)
(0.122654 -0.0142516 1.91763e-19)
(0.354001 -0.0213349 4.18942e-19)
(0.571478 -0.000222076 -4.36813e-19)
(0.767028 0.0314817 -1.43967e-19)
(0.936063 0.0653684 -1.72452e-19)
(1.0767 0.0973191 2.57641e-19)
(1.18907 0.124915 -1.29581e-19)
(1.27466 0.147193 3.41319e-19)
(1.33559 0.164703 1.10222e-19)
(1.37323 0.177909 -1.5802e-19)
(0.146007 -0.00672879 -2.07087e-19)
(0.407841 0.0016463 1.65623e-19)
(0.64264 0.0370063 -3.43158e-19)
(0.845437 0.0800266 1.43831e-19)
(1.01397 0.121776 -1.4528e-19)
(1.14851 0.158261 -1.76135e-19)
(1.25126 0.187535 -1.37082e-19)
(1.32556 0.209288 1.49526e-19)
(1.37504 0.224819 -2.738e-19)
(1.40245 0.234843 1.45076e-19)
(0.169389 0.00415382 -7.32546e-20)
(0.459623 0.0319219 -1.29859e-19)
(0.708466 0.0828967 5.9727e-20)
(0.914911 0.136891 3.45963e-21)
(1.07967 0.185104 4.69665e-20)
(1.20564 0.224193 6.24471e-20)
(1.2973 0.253092 5.62941e-20)
(1.35987 0.272432 -7.3139e-20)
(1.39835 0.284374 6.05795e-20)
(1.41669 0.2899 -8.19025e-20)
(0.191909 0.0184164 -4.21685e-20)
(0.507278 0.0690566 -1.4166e-20)
(0.766354 0.136316 5.54389e-20)
(0.972871 0.200277 -2.45879e-20)
(1.13106 0.253074 6.40125e-20)
(1.2467 0.292597 -8.05218e-20)
(1.32664 0.319065 1.83399e-20)
(1.37781 0.334278 1.90986e-20)
(1.40636 0.341317 -7.68053e-21)
(1.41718 0.341442 2.54198e-20)
(0.21261 0.0358776 -4.49244e-20)
(0.54876 0.112164 -1.85928e-19)
(0.813948 0.195615 -1.28775e-20)
(1.01723 0.267948 3.68542e-21)
(1.16668 0.323145 -2.21947e-19)
(1.27107 0.360907 2.83917e-20)
(1.33945 0.38308 -2.38449e-20)
(1.38022 0.392778 -5.64786e-20)
(1.40035 0.39399 1.15908e-19)
(1.4054 0.388248 -1.8095e-19)
(0.230522 0.0561342 -2.16934e-20)
(0.582174 0.159912 3.77226e-19)
(0.849284 0.258691 5.92001e-20)
(1.04649 0.337353 -3.11784e-19)
(1.18581 0.392657 -2.48672e-20)
(1.27883 0.426629 -2.86243e-19)
(1.33652 0.442988 2.06098e-19)
(1.36839 0.446199 -7.39793e-20)
(1.38189 0.441084 1.29881e-19)
(1.38299 0.429421 -8.23084e-20)
(0.244729 0.0785561 -1.38465e-19)
(0.60591 0.210566 1.21324e-19)
(0.870919 0.323093 -8.42974e-20)
(1.05985 0.405755 6.15353e-19)
(1.18843 0.458951 2.97129e-19)
(1.27072 0.487433 -6.75232e-20)
(1.31916 0.496896 2.26244e-19)
(1.34394 0.493104 -1.45772e-19)
(1.35272 0.481565 -4.04762e-20)
(1.35161 0.464283 2.29563e-19)
(0.254427 0.102298 -2.41432e-19)
(0.618748 0.262057 2.79676e-19)
(0.878008 0.386133 -5.33764e-19)
(1.05719 0.47036 7.38822e-20)
(1.17519 0.519479 1.63381e-19)
(1.248 0.541199 -2.3848e-19)
(1.28902 0.543173 -2.86291e-19)
(1.30871 0.532297 1.27377e-19)
(1.31467 0.514598 -1.5243e-19)
(1.31295 0.492291 1.65888e-19)
(0.258991 0.126326 -6.06287e-20)
(0.619947 0.312082 -2.86041e-19)
(0.870346 0.445029 1.50974e-19)
(1.03904 0.528445 2.5712e-19)
(1.14729 0.571883 -1.48034e-19)
(1.21236 0.586053 -1.11653e-19)
(1.24804 0.580413 -7.94545e-20)
(1.26467 0.562766 -3.69362e-20)
(1.26957 0.539453 2.48218e-21)
(1.26865 0.512933 8.45117e-20)
(0.258021 0.149469 4.94488e-20)
(0.6093 0.358226 -2.55338e-19)
(0.848366 0.497045 4.14874e-19)
(1.0065 0.577482 -2.35214e-19)
(1.10637 0.614071 7.79029e-20)
(1.16577 0.620382 -1.03092e-19)
(1.1983 0.607424 1.09396e-19)
(1.21385 0.583621 4.14979e-20)
(1.21929 0.555413 1.88487e-20)
(1.22034 0.525591 -2.38379e-20)
(0.251391 0.170477 -1.33751e-19)
(0.58716 0.3981 2.41432e-19)
(0.81309 0.539643 -7.24069e-21)
(0.961176 0.615248 -5.70732e-20)
(1.05441 0.644285 -1.0938e-19)
(1.11038 0.642878 1.91201e-20)
(1.14201 0.623262 -2.35718e-20)
(1.1584 0.594158 -3.22263e-20)
(1.16589 0.56182 3.22382e-20)
(1.17003 0.529525 3.77242e-20)
(0.239278 0.188109 7.30781e-20)
(0.554428 0.429501 -5.91349e-20)
(0.766056 0.570619 -1.5263e-20)
(0.904989 0.639906 8.04226e-20)
(0.993482 0.661101 -3.20105e-20)
(1.04832 0.652445 -3.12827e-20)
(1.08136 0.627071 -1.02556e-19)
(1.10071 0.593694 -4.64541e-20)
(1.11229 0.558056 -6.08421e-20)
(1.12104 0.524121 3.72529e-20)
(0.222177 0.201232 1.85857e-20)
(0.512517 0.450578 -4.91434e-20)
(0.709199 0.588273 4.8136e-20)
(0.840005 0.65013 -1.11707e-19)
(0.925465 0.663444 2.38165e-20)
(0.981087 0.647962 2.00572e-19)
(1.01754 0.617303 -6.07733e-20)
(1.04208 0.579887 6.6979e-20)
(1.06022 0.540792 1.02425e-19)
(1.07517 0.505793 3.05979e-19)
(0.200898 0.20894 3.4881e-19)
(0.463304 0.460015 -2.04122e-19)
(0.644819 0.591624 4.96507e-19)
(0.76841 0.645471 -8.16154e-20)
(0.851946 0.651304 4.13051e-19)
(0.909223 0.629502 2.54021e-19)
(0.949649 0.593379 -5.81638e-19)
(0.979809 0.550129 8.75709e-19)
(1.00445 0.502057 -1.84019e-19)
(1.02034 0.45298 3.30664e-19)
(0.176533 0.210616 -1.95617e-19)
(0.409097 0.457076 -1.31149e-19)
(0.575662 0.580423 1.30373e-19)
(0.692886 0.626461 -2.88561e-19)
(0.775128 0.626359 -8.80629e-19)
(0.833988 0.600658 -3.49762e-19)
(0.877419 0.562435 -3.04116e-19)
(0.91104 0.518952 1.48339e-19)
(0.938178 0.473656 1.19788e-18)
(0.955057 0.431212 -2.22828e-19)
(0.150361 0.205919 1.09701e-19)
(0.352502 0.441463 -4.03816e-19)
(0.504882 0.554698 8.44279e-20)
(0.616861 0.593431 -5.95231e-19)
(0.69883 0.589074 1.2599e-18)
(0.760047 0.561704 -1.44925e-19)
(0.806967 0.523799 6.59181e-19)
(0.844211 0.482243 -9.22582e-19)
(0.874477 0.440492 2.8593e-19)
(0.895341 0.402626 4.05381e-20)
(0.123727 0.194771 8.15585e-20)
(0.296149 0.413297 4.42567e-19)
(0.43553 0.514783 -1.26141e-18)
(0.543433 0.546774 5.90745e-19)
(0.626107 0.539663 2.88254e-22)
(0.690475 0.512395 -1.89055e-19)
(0.741582 0.476496 2.35566e-19)
(0.783187 0.438249 -2.26792e-19)
(0.817622 0.400769 -7.63734e-19)
(0.843365 0.367157 -1.90361e-19)
(0.0979561 0.177354 2.7189e-19)
(0.242549 0.373133 2.72706e-19)
(0.370419 0.461437 1.07993e-18)
(0.475312 0.487257 -5.81912e-19)
(0.559389 0.47873 1.164e-18)
(0.627339 0.453035 -2.4372e-19)
(0.682905 0.420426 -2.50816e-19)
(0.729104 0.38641 2.91547e-19)
(0.767965 0.353647 1.86447e-19)
(0.798627 0.324365 6.08098e-19)
(0.0742978 0.1541 -2.78362e-19)
(0.194008 0.321954 8.20328e-20)
(0.312069 0.395856 2.1884e-20)
(0.414848 0.416061 5.96073e-19)
(0.500703 0.407309 -1.44345e-18)
(0.572284 0.384453 2.39642e-19)
(0.632179 0.356215 5.14193e-19)
(0.682757 0.327213 -6.08733e-19)
(0.725797 0.299602 2.10384e-19)
(0.761015 0.274904 -8.80148e-19)
(0.0538796 0.125683 5.95213e-20)
(0.152561 0.261143 2.86553e-19)
(0.262654 0.319646 1.07127e-19)
(0.364029 0.334747 1.40639e-19)
(0.451723 0.326798 2.60612e-19)
(0.526638 0.307852 7.5402e-19)
(0.590386 0.284896 -9.01212e-19)
(0.644799 0.261583 -4.9634e-19)
(0.691462 0.239562 8.06687e-20)
(0.730613 0.219812 5.72274e-19)
(0.0376646 0.092997 -3.60467e-19)
(0.11991 0.192438 -3.79228e-20)
(0.22397 0.234771 -3.07715e-19)
(0.324471 0.245211 4.2523e-20)
(0.413795 0.238903 -2.46651e-19)
(0.49146 0.22473 -2.74269e-19)
(0.558321 0.207789 -3.98991e-19)
(0.615792 0.190719 1.05151e-18)
(0.66532 0.174679 1.77617e-19)
(0.707586 0.160253 -2.44364e-19)
(0.0264137 0.0571175 1.94535e-19)
(0.0973836 0.117873 2.29644e-19)
(0.197397 0.143489 8.65188e-20)
(0.297405 0.149609 -4.52867e-19)
(0.387938 0.145567 -2.0435e-19)
(0.467556 0.136803 -4.29182e-20)
(0.536596 0.126416 8.16647e-20)
(0.596186 0.116004 6.4274e-20)
(0.647692 0.106251 -4.86256e-19)
(0.692114 0.097459 2.51826e-19)
(0.0206534 0.0192631 -1.01351e-19)
(0.0858893 0.0396996 -1.02958e-19)
(0.183874 0.048275 7.87989e-20)
(0.283662 0.0502906 6.75668e-20)
(0.374836 0.0489 6.71836e-20)
(0.455467 0.0459344 9.98867e-20)
(0.525627 0.0424348 -5.22683e-21)
(0.586301 0.0389349 -1.25161e-19)
(0.638815 0.0356617 1.16493e-19)
(0.684339 0.0327075 -1.58071e-19)
(0.0206533 -0.0192596 -1.01994e-19)
(0.085889 -0.0396919 -9.807e-20)
(0.183873 -0.048265 8.68638e-20)
(0.283662 -0.0502797 1.64167e-19)
(0.374836 -0.0488889 1.05978e-19)
(0.455467 -0.0459237 -1.35952e-19)
(0.525626 -0.0424247 -7.19678e-20)
(0.586301 -0.0389254 3.08493e-20)
(0.638815 -0.0356529 6.783e-20)
(0.684339 -0.0326993 -3.64145e-20)
(0.0264133 -0.057114 2.43216e-19)
(0.0973828 -0.117865 -2.75952e-19)
(0.197396 -0.143479 -2.19131e-20)
(0.297404 -0.149598 1.41976e-19)
(0.387937 -0.145556 -6.21928e-19)
(0.467555 -0.136792 2.58548e-19)
(0.536595 -0.126406 2.60255e-19)
(0.596185 -0.115994 -3.00782e-19)
(0.647691 -0.106242 2.81752e-19)
(0.692113 -0.0974509 -1.11776e-19)
(0.037664 -0.0929936 -4.20818e-20)
(0.119909 -0.192431 -4.61395e-21)
(0.223969 -0.234761 -7.15051e-19)
(0.324469 -0.245201 -2.19118e-19)
(0.413794 -0.238893 -2.17041e-20)
(0.491459 -0.224719 -3.40634e-19)
(0.55832 -0.207779 6.19663e-19)
(0.61579 -0.190709 -2.16383e-20)
(0.665319 -0.17467 3.39937e-19)
(0.707585 -0.160245 -2.68946e-19)
(0.0538788 -0.12568 7.09122e-20)
(0.152559 -0.261136 -2.91827e-19)
(0.262652 -0.319637 8.654e-19)
(0.364027 -0.334737 1.1865e-19)
(0.451721 -0.326787 5.63512e-19)
(0.526635 -0.307841 -5.35407e-19)
(0.590384 -0.284886 5.48919e-19)
(0.644797 -0.261573 -3.88079e-19)
(0.69146 -0.239553 -1.67648e-19)
(0.730611 -0.219804 1.27692e-19)
(0.0742968 -0.154096 6.29425e-19)
(0.194006 -0.321947 1.61796e-21)
(0.312066 -0.395847 -9.07128e-19)
(0.414845 -0.41605 -2.53931e-19)
(0.5007 -0.407298 8.20016e-19)
(0.572281 -0.384442 -4.67017e-19)
(0.632176 -0.356206 -5.28316e-19)
(0.682754 -0.327204 4.65897e-19)
(0.725795 -0.299594 -3.10812e-19)
(0.761013 -0.274896 -6.03927e-20)
(0.0979549 -0.177351 -9.42102e-20)
(0.242546 -0.373126 -3.59947e-21)
(0.370416 -0.461429 9.77611e-19)
(0.475308 -0.487248 5.4244e-19)
(0.559385 -0.47872 -6.20446e-19)
(0.627335 -0.453025 7.32801e-19)
(0.682902 -0.420416 -7.74617e-19)
(0.729101 -0.386401 7.61738e-20)
(0.767962 -0.353639 2.22719e-19)
(0.798624 -0.324357 4.61505e-19)
(0.123726 -0.194769 1.05057e-19)
(0.296146 -0.413291 1.49668e-19)
(0.435526 -0.514775 1.5508e-19)
(0.543429 -0.546765 -4.95872e-19)
(0.626103 -0.539653 -8.55142e-19)
(0.690471 -0.512385 1.75697e-19)
(0.741578 -0.476487 5.00709e-19)
(0.783183 -0.43824 -1.40023e-19)
(0.817619 -0.400761 8.24227e-19)
(0.843362 -0.36715 -7.24354e-19)
(0.150359 -0.205917 -5.91557e-19)
(0.352499 -0.441457 1.96975e-19)
(0.504878 -0.55469 -5.25627e-19)
(0.616856 -0.593422 8.2081e-19)
(0.698825 -0.589065 3.99642e-19)
(0.760042 -0.561695 5.50402e-19)
(0.806963 -0.52379 -1.22282e-19)
(0.844207 -0.482235 4.83562e-19)
(0.874473 -0.440484 -1.00341e-18)
(0.895337 -0.402618 -2.36065e-19)
(0.176531 -0.210614 3.98286e-20)
(0.409093 -0.457071 -3.46822e-19)
(0.575658 -0.580416 -5.19031e-19)
(0.692881 -0.626453 -2.2051e-19)
(0.775123 -0.62635 -6.02239e-19)
(0.833982 -0.600649 -6.22987e-20)
(0.877414 -0.562426 5.43849e-20)
(0.911035 -0.518943 -2.18835e-19)
(0.938173 -0.473648 -2.44325e-19)
(0.955053 -0.431205 5.77553e-19)
(0.200897 -0.208938 1.76185e-19)
(0.463301 -0.46001 2.11215e-19)
(0.644814 -0.591617 3.75475e-19)
(0.768405 -0.645463 1.99398e-20)
(0.851941 -0.651296 2.43876e-19)
(0.909217 -0.629493 -3.19889e-19)
(0.949644 -0.59337 9.66074e-19)
(0.979803 -0.550121 -4.16563e-19)
(1.00445 -0.502049 -2.04897e-19)
(1.02033 -0.452973 -5.59128e-19)
(0.222175 -0.201231 -6.61902e-20)
(0.512513 -0.450574 7.87511e-20)
(0.709194 -0.588267 -8.2725e-20)
(0.839999 -0.650123 4.91919e-20)
(0.925459 -0.663436 -5.77221e-20)
(0.98108 -0.647954 -1.51299e-19)
(1.01753 -0.617295 1.93584e-19)
(1.04208 -0.57988 -7.06791e-20)
(1.06022 -0.540785 9.59917e-20)
(1.07516 -0.505786 -1.74807e-19)
(0.239277 -0.188108 1.40804e-20)
(0.554425 -0.429498 -1.01541e-19)
(0.766051 -0.570614 6.96434e-20)
(0.904983 -0.6399 3.79292e-20)
(0.993475 -0.661093 -4.45433e-20)
(1.04831 -0.652438 1.55425e-20)
(1.08135 -0.627063 -3.8976e-21)
(1.10071 -0.593686 -1.28969e-19)
(1.11228 -0.55805 -6.67529e-20)
(1.12103 -0.524114 -1.60381e-19)
(0.25139 -0.170476 -7.49301e-20)
(0.587157 -0.398097 2.41013e-19)
(0.813086 -0.539639 -1.5736e-19)
(0.96117 -0.615242 -9.12696e-20)
(1.0544 -0.644279 8.8052e-20)
(1.11037 -0.642871 -1.72451e-20)
(1.14201 -0.623255 9.96912e-21)
(1.15839 -0.594151 6.12594e-20)
(1.16589 -0.561813 -6.07787e-20)
(1.17002 -0.529519 6.37517e-22)
(0.25802 -0.149468 -1.65687e-19)
(0.609297 -0.358223 -1.01172e-19)
(0.848361 -0.497042 -2.36506e-19)
(1.00649 -0.577477 2.63355e-19)
(1.10636 -0.614065 -1.74609e-20)
(1.16576 -0.620375 9.52332e-20)
(1.19829 -0.607418 1.23655e-19)
(1.21384 -0.583615 -4.11503e-20)
(1.21928 -0.555407 -2.64835e-20)
(1.22033 -0.525586 2.84582e-20)
(0.25899 -0.126326 -1.09556e-19)
(0.619944 -0.312081 -1.26591e-19)
(0.870342 -0.445026 1.88774e-19)
(1.03903 -0.528441 -2.81e-19)
(1.14728 -0.571878 4.77912e-20)
(1.21235 -0.586047 2.58572e-20)
(1.24803 -0.580407 4.59092e-20)
(1.26467 -0.56276 -2.89487e-20)
(1.26957 -0.539448 -3.92089e-20)
(1.26865 -0.512928 -1.63767e-19)
(0.254426 -0.102297 4.57456e-19)
(0.618746 -0.262056 -3.2007e-19)
(0.878003 -0.386131 1.34479e-20)
(1.05718 -0.470356 -3.91587e-19)
(1.17518 -0.519475 -1.12815e-19)
(1.24799 -0.541194 8.96932e-20)
(1.28901 -0.543168 6.43914e-20)
(1.3087 -0.532292 -2.13047e-19)
(1.31466 -0.514594 1.03418e-19)
(1.31295 -0.492286 -1.47492e-19)
(0.244728 -0.0785559 2.24794e-19)
(0.605908 -0.210565 -2.00921e-19)
(0.870915 -0.323091 7.02215e-19)
(1.05985 -0.405752 5.58781e-20)
(1.18842 -0.458947 1.50592e-19)
(1.27071 -0.487428 5.32478e-19)
(1.31915 -0.496892 -1.05522e-19)
(1.34393 -0.493099 3.0268e-20)
(1.35271 -0.481561 -1.06057e-20)
(1.35161 -0.464279 -2.30131e-20)
(0.230522 -0.056134 1.7278e-19)
(0.582173 -0.159911 3.56058e-19)
(0.849281 -0.25869 -3.52993e-19)
(1.04648 -0.33735 -1.05101e-19)
(1.1858 -0.392653 -1.08686e-19)
(1.27882 -0.426625 2.0568e-19)
(1.33652 -0.442983 -9.53057e-20)
(1.36838 -0.446195 2.22614e-19)
(1.38188 -0.44108 5.4587e-20)
(1.38298 -0.429417 -8.15061e-20)
(0.21261 -0.0358775 -1.87169e-19)
(0.548759 -0.112163 1.57306e-19)
(0.813945 -0.195613 -3.12503e-19)
(1.01722 -0.267945 1.27121e-19)
(1.16667 -0.323142 -1.24133e-19)
(1.27106 -0.360903 -1.44109e-19)
(1.33944 -0.383076 -1.09476e-19)
(1.38021 -0.392774 1.18398e-19)
(1.40034 -0.393986 -2.02956e-19)
(1.40539 -0.388245 1.10344e-19)
(0.191909 -0.0184163 -7.01122e-20)
(0.507278 -0.0690558 -1.24836e-19)
(0.766352 -0.136315 5.66198e-20)
(0.972867 -0.200274 3.99001e-21)
(1.13105 -0.25307 4.27129e-20)
(1.24669 -0.292593 5.96692e-20)
(1.32663 -0.319061 4.96082e-20)
(1.3778 -0.334274 -6.57997e-20)
(1.40635 -0.341313 5.26003e-20)
(1.41717 -0.341439 -7.14878e-20)
(0.169389 -0.00415366 -4.4646e-20)
(0.459623 -0.0319211 -1.63058e-20)
(0.708465 -0.0828948 5.89658e-20)
(0.914908 -0.136888 -2.55843e-20)
(1.07967 -0.1851 6.98922e-20)
(1.20563 -0.224188 -8.5798e-20)
(1.29729 -0.253088 2.16961e-20)
(1.35986 -0.272428 1.81235e-20)
(1.39834 -0.28437 -6.18157e-21)
(1.41668 -0.289897 2.50042e-20)
(0.146008 0.00672906 -5.37309e-20)
(0.407842 -0.00164517 -2.06073e-19)
(0.64264 -0.037004 -1.66046e-20)
(0.845435 -0.0800232 6.44367e-21)
(1.01396 -0.121771 -2.60965e-19)
(1.1485 -0.158257 2.65841e-20)
(1.25125 -0.18753 -2.7929e-20)
(1.32555 -0.209283 -7.31399e-20)
(1.37503 -0.224815 1.56729e-19)
(1.40244 -0.234839 -2.4739e-19)
(0.122656 0.0142521 -3.08351e-20)
(0.354004 0.0213364 4.44247e-19)
(0.57148 0.000224984 5.69537e-20)
(0.767028 -0.0314776 -3.76688e-19)
(0.936059 -0.0653634 -4.52265e-20)
(1.0767 -0.0973137 -4.01888e-19)
(1.18906 -0.124909 3.03842e-19)
(1.27465 -0.147189 -1.18637e-19)
(1.33558 -0.164699 2.21144e-19)
(1.37322 -0.177905 -1.65935e-19)
(0.100112 0.0186063 -1.73896e-19)
(0.300078 0.0370191 1.85018e-19)
(0.497662 0.0282148 -1.24574e-19)
(0.68259 0.00749196 8.31237e-19)
(0.848644 -0.0177421 4.27089e-19)
(0.992327 -0.0436638 -1.07751e-19)
(1.11206 -0.0677618 4.11059e-19)
(1.20768 -0.0887156 -2.59546e-19)
(1.27977 -0.106462 -7.71137e-20)
(1.32824 -0.121212 5.0845e-19)
(0.0790179 0.0201174 -3.23605e-19)
(0.247831 0.0457873 4.36094e-19)
(0.423771 0.0469516 -8.01706e-19)
(0.595153 0.0362529 1.34954e-19)
(0.754777 0.0197917 3.26428e-19)
(0.898102 0.000793876 -3.98595e-19)
(1.02231 -0.0184417 -6.82468e-19)
(1.12592 -0.0365032 3.56685e-19)
(1.20811 -0.0528466 -4.42737e-19)
(1.26734 -0.0673517 6.15437e-19)
(0.0598604 0.0192101 -7.97395e-20)
(0.198753 0.0483623 -4.40153e-19)
(0.352152 0.05697 2.08995e-19)
(0.507659 0.0548547 5.12156e-19)
(0.657661 0.0466469 -2.67254e-19)
(0.797111 0.0347852 -2.56275e-19)
(0.92247 0.0211368 -4.20135e-19)
(1.03136 0.00699499 -1.81198e-19)
(1.12183 -0.00669713 -3.62769e-20)
(1.19106 -0.0192833 6.08135e-19)
(0.0429831 0.0163818 1.35787e-19)
(0.154021 0.0457505 -6.00448e-19)
(0.284793 0.0593213 9.95838e-19)
(0.422772 0.0640625 -5.36418e-19)
(0.560384 0.0630752 3.38805e-19)
(0.692529 0.0579062 -4.09228e-19)
(0.815444 0.0498398 4.44603e-19)
(0.926367 0.0398887 3.74585e-19)
(1.02269 0.0293729 7.69513e-19)
(1.10052 0.019907 -1.10985e-18)
(0.0286046 0.0121858 -4.21264e-19)
(0.114487 0.0391936 7.62822e-19)
(0.223259 0.0555222 1.09059e-20)
(0.342731 0.0653549 -2.56954e-19)
(0.465688 0.0702765 -1.33425e-19)
(0.587305 0.0708894 1.01933e-19)
(0.704018 0.0677688 -7.13014e-19)
(0.813245 0.0614601 5.21765e-19)
(0.912345 0.0536016 -6.62791e-19)
(0.996845 0.0474931 -2.50625e-19)
(0.016841 0.00722073 7.27407e-19)
(0.0807067 0.0301075 -2.03565e-19)
(0.168689 0.0474595 -3.70563e-19)
(0.26931 0.0608464 9.75702e-19)
(0.375874 0.0704157 -9.31877e-19)
(0.483955 0.0758059 5.05063e-19)
(0.590389 0.0767448 5.17353e-19)
(0.693177 0.0729667 1.32985e-19)
(0.790435 0.0659445 1.33454e-19)
(0.878355 0.0615041 -1.59851e-19)
(0.00771729 0.00210638 -6.97011e-19)
(0.0529666 0.0199776 5.94928e-19)
(0.121878 0.0372159 -5.07867e-19)
(0.203979 0.0531029 6.17897e-19)
(0.293093 0.0665571 -1.7957e-19)
(0.385028 0.0763633 -6.02888e-19)
(0.476677 0.0813973 1.7055e-19)
(0.566173 0.0802193 -2.63483e-19)
(0.652576 0.0725716 -2.9556e-19)
(0.735287 0.0653809 -7.7128e-19)
(0.00115292 -0.00258456 -8.71715e-19)
(0.0313019 0.0101538 6.20855e-19)
(0.0833649 0.0266917 -1.17075e-18)
(0.148177 0.0445585 2.03041e-19)
(0.220128 0.06193 -7.61645e-19)
(0.295109 0.0773669 -4.43967e-19)
(0.369568 0.0899269 1.0357e-18)
(0.440556 0.0986835 -1.37946e-18)
(0.506118 0.102417 2.58957e-19)
(0.562207 0.10411 -3.44309e-19)
(-0.00307767 -0.00642919 4.29265e-19)
(0.0154239 0.00158039 1.6163e-19)
(0.0532751 0.0170206 -4.47833e-20)
(0.102998 0.0361699 4.2844e-19)
(0.15989 0.0567284 1.22021e-18)
(0.220462 0.0771405 4.07427e-19)
(0.281775 0.0964866 4.11179e-19)
(0.341595 0.114014 -1.37775e-19)
(0.398633 0.128419 -1.25192e-18)
(0.449089 0.139363 2.69471e-19)
(-0.0053593 -0.00918797 -1.20663e-19)
(0.00461888 -0.00519625 3.42666e-19)
(0.0309079 0.00878282 -8.61356e-20)
(0.0679199 0.0282135 5.86946e-19)
(0.112001 0.0504299 -1.31815e-18)
(0.160399 0.0736538 1.05775e-19)
(0.210846 0.0966453 -5.88028e-19)
(0.261605 0.11824 8.40369e-19)
(0.311203 0.136833 -2.40235e-19)
(0.355894 0.150829 -2.45873e-20)
(-0.00616299 -0.0107784 -8.24907e-20)
(-0.00208915 -0.00992259 -4.11922e-19)
(0.0150536 0.00230117 9.88306e-19)
(0.0415703 0.020965 -5.04743e-19)
(0.0748361 0.0431754 3.67445e-20)
(0.112766 0.0669491 1.52427e-19)
(0.153606 0.0907326 -1.27661e-19)
(0.195898 0.113003 1.69106e-19)
(0.238003 0.131997 5.62811e-19)
(0.276846 0.145866 1.04385e-19)
(-0.0059609 -0.0112336 -1.83863e-19)
(-0.00573194 -0.0125629 -1.811e-19)
(0.00436672 -0.00227678 -7.71448e-19)
(0.0223992 0.0147126 3.94035e-19)
(0.046689 0.0354797 -7.83714e-19)
(0.0757331 0.0579693 1.74561e-19)
(0.108191 0.0804947 1.9058e-19)
(0.1428 0.101436 -1.88886e-19)
(0.177893 0.119116 -1.16803e-19)
(0.21124 0.131741 -4.28559e-19)
(-0.00517524 -0.010663 1.42241e-19)
(-0.00727264 -0.0132436 -3.02398e-20)
(-0.00245033 -0.00496245 1.47286e-21)
(0.00889042 0.0096505 -3.5087e-19)
(0.0259006 0.0278518 8.62155e-19)
(0.0475703 0.0476825 -1.30035e-19)
(0.0728934 0.0675118 -3.11484e-19)
(0.100765 0.0858286 3.72394e-19)
(0.129576 0.101191 -1.24228e-19)
(0.157886 0.112016 5.54775e-19)
(-0.00415463 -0.00922158 -2.65997e-20)
(-0.00753663 -0.0122039 -1.37882e-19)
(-0.00653668 -0.00590314 -5.1564e-20)
(-0.000299696 0.00584051 -6.37936e-20)
(0.0110065 0.0206666 -1.32849e-19)
(0.0267731 0.0368731 -3.99211e-19)
(0.046261 0.0530417 4.83548e-19)
(0.0685021 0.0679015 2.70644e-19)
(0.0919811 0.0803117 -5.07304e-20)
(0.115904 0.0889885 -3.35554e-19)
(-0.00316792 -0.00708826 1.51003e-19)
(-0.00717959 -0.00975967 2.34279e-20)
(-0.00881203 -0.00535959 1.518e-19)
(-0.00625845 0.00320054 -1.503e-20)
(0.000833799 0.014111 1.28588e-19)
(0.0121621 0.0260598 1.38847e-19)
(0.0271912 0.0379574 1.97387e-19)
(0.0450647 0.0488529 -5.45332e-19)
(0.0643611 0.0579285 -9.6664e-20)
(0.0847658 0.064247 1.40591e-19)
(-0.00240781 -0.00445435 -7.6299e-20)
(-0.00668221 -0.00627826 -9.55933e-20)
(-0.00995817 -0.00368554 -4.33014e-20)
(-0.00979224 0.00151021 2.06601e-19)
(-0.00548069 0.00817334 9.65738e-20)
(0.00288108 0.0154784 1.90636e-20)
(0.0148966 0.0227423 -4.02255e-20)
(0.0297887 0.0293796 -2.95143e-20)
(0.0462081 0.0349001 2.45212e-19)
(0.0641538 0.0387357 -1.3542e-19)
(-0.00199784 -0.00151764 3.87901e-20)
(-0.00635722 -0.00216126 4.28103e-20)
(-0.010422 -0.0013043 -3.47228e-20)
(-0.01143 0.000437499 -3.05408e-20)
(-0.0085008 0.00267729 -3.05656e-20)
(-0.00162513 0.00513365 -4.63389e-20)
(0.00887089 0.00757426 1.99095e-21)
(0.0222515 0.00980167 6.0268e-20)
(0.0372061 0.0116531 -5.79131e-20)
(0.0538864 0.0129383 8.35208e-20)
(0.277059 -0.0171104 2.25988e-21)
(0.606142 -0.0125575 -9.90882e-22)
(0.841472 -0.00665386 -2.08879e-24)
(0.926158 -0.0026852 4.79418e-23)
(0.967146 -0.00117866 1.34138e-23)
(0.983396 -0.000507788 -7.69772e-24)
(0.991455 -0.000246048 -1.07953e-23)
(0.995375 -0.000120613 3.48746e-24)
(0.997352 -6.59743e-05 -2.88399e-25)
(0.99871 -2.74862e-05 4.14244e-24)
(0.295829 -0.0512414 6.7202e-21)
(0.612367 -0.037334 2.11252e-21)
(0.843539 -0.0198609 3.29513e-22)
(0.926904 -0.00802562 -8.85353e-22)
(0.967372 -0.00352011 -3.65383e-23)
(0.983476 -0.00151588 4.52925e-23)
(0.991484 -0.000731129 -4.1561e-23)
(0.995387 -0.000358996 -1.07039e-23)
(0.997358 -0.000198425 -2.03312e-23)
(0.998712 -8.16825e-05 -3.66553e-24)
(0.332314 -0.0850737 1.03981e-21)
(0.624696 -0.0610927 -1.12377e-21)
(0.847611 -0.0327739 -3.3579e-22)
(0.928381 -0.013287 8.22647e-22)
(0.96782 -0.0058328 -5.12114e-23)
(0.983637 -0.0025153 2.89547e-23)
(0.991541 -0.00121296 1.37004e-23)
(0.995412 -0.000596164 -3.92685e-24)
(0.99737 -0.000330267 1.37121e-23)
(0.998717 -0.000135654 -5.14597e-24)
(0.384516 -0.118344 -8.67566e-21)
(0.642874 -0.0832616 -4.1486e-21)
(0.853572 -0.0452075 7.19166e-22)
(0.930557 -0.0184203 -5.37295e-22)
(0.968486 -0.00809874 6.30843e-22)
(0.983876 -0.00350048 -2.30367e-22)
(0.991627 -0.00168941 1.11868e-23)
(0.99545 -0.00083129 -1.69688e-23)
(0.997388 -0.000461082 1.64651e-23)
(0.998725 -0.000189245 2.06743e-24)
(0.449671 -0.150626 2.05149e-20)
(0.666472 -0.103389 -5.14728e-21)
(0.861242 -0.056988 -5.0219e-22)
(0.93338 -0.0233816 1.36459e-21)
(0.96936 -0.0103016 -4.2715e-22)
(0.984192 -0.00446612 -1.70991e-22)
(0.99174 -0.00215839 -1.22325e-22)
(0.995499 -0.00106357 -2.78306e-23)
(0.997412 -0.000590471 -3.86497e-23)
(0.998735 -0.000242309 -9.92755e-24)
(0.524545 -0.181167 -9.4453e-21)
(0.694874 -0.1211 1.19511e-20)
(0.87038 -0.0679492 -1.051e-23)
(0.936779 -0.0281313 -1.61981e-21)
(0.970429 -0.012427 3.14289e-22)
(0.98458 -0.00540736 2.40556e-22)
(0.991881 -0.00261794 1.31928e-22)
(0.995561 -0.00129221 3.39005e-23)
(0.997441 -0.000718026 1.62917e-23)
(0.998747 -0.000294696 1.27737e-23)
(0.605779 -0.209135 -5.54429e-22)
(0.727268 -0.136144 -6.16152e-21)
(0.880688 -0.077959 1.36384e-22)
(0.940661 -0.0326376 5.80133e-22)
(0.97167 -0.0144633 -2.81454e-22)
(0.985035 -0.00631969 7.44558e-23)
(0.992048 -0.00306623 -1.30054e-22)
(0.995634 -0.00151644 -3.87672e-23)
(0.997477 -0.000843368 6.29255e-24)
(0.998761 -0.000346259 4.6307e-24)
(0.690224 -0.234923 1.99197e-20)
(0.762688 -0.148937 -1.91569e-22)
(0.891822 -0.0870482 -9.64993e-22)
(0.944913 -0.0368999 1.10946e-21)
(0.973056 -0.0164039 -4.76425e-22)