/*--------------------------------*- C++ -*----------------------------------*\
  =========                 |
  \\      /  F ield         | OpenFOAM: The Open Source CFD Toolbox
   \\    /   O peration     | Website:  https://openfoam.org
    \\  /    A nd           | Version:  6.0
     \\/     M anipulation  |
\*---------------------------------------------------------------------------*/
FoamFile
{
    version     2.0;
    format      ascii;
    class       volScalarField;
    location    "12";
    object      p;
}
// * * * * * * * * * * * * * * * * * * * * * * * * * * * * * * * * * * * * * //

dimensions      [0 2 -2 0 0 0 0];

internalField   nonuniform List<scalar> 
2000
(
-0.359815
-0.365687
-0.36733
-0.366606
-0.364684
-0.361939
-0.358652
-0.355119
-0.351628
-0.347864
-0.362552
-0.368002
-0.369303
-0.368276
-0.366065
-0.363045
-0.359495
-0.3557
-0.351953
-0.34807
-0.368043
-0.372628
-0.373235
-0.371597
-0.368803
-0.365226
-0.36114
-0.356806
-0.352528
-0.348401
-0.376326
-0.379563
-0.379104
-0.376538
-0.372861
-0.368436
-0.363523
-0.358342
-0.353214
-0.348697
-0.38746
-0.388805
-0.38688
-0.383058
-0.378194
-0.372625
-0.366578
-0.360195
-0.353813
-0.348702
-0.401505
-0.400336
-0.396521
-0.391118
-0.384773
-0.37777
-0.37027
-0.362278
-0.354113
-0.348084
-0.418492
-0.414114
-0.407966
-0.400674
-0.392588
-0.38391
-0.374694
-0.36471
-0.354112
-0.346581
-0.438364
-0.430037
-0.421123
-0.411666
-0.401627
-0.391088
-0.379962
-0.367618
-0.353563
-0.343035
-0.460906
-0.44793
-0.435876
-0.424051
-0.411927
-0.399397
-0.386058
-0.370384
-0.350172
-0.332765
-0.485681
-0.467529
-0.452122
-0.437976
-0.42411
-0.410322
-0.395854
-0.378069
-0.352894
-0.32881
-0.512004
-0.488406
-0.469592
-0.453349
-0.438536
-0.42552
-0.414638
-0.406519
-0.40644
-0.425729
-0.539047
-0.509981
-0.487668
-0.469064
-0.452639
-0.438845
-0.428152
-0.42161
-0.424337
-0.441354
-0.566085
-0.531793
-0.506071
-0.484997
-0.466542
-0.451062
-0.43892
-0.430828
-0.429888
-0.437449
-0.592464
-0.553365
-0.524482
-0.500965
-0.480232
-0.462461
-0.447807
-0.436522
-0.430078
-0.428478
-0.617429
-0.574023
-0.542271
-0.516317
-0.492998
-0.472291
-0.454155
-0.438466
-0.425647
-0.415756
-0.639983
-0.592828
-0.558486
-0.530039
-0.503777
-0.479545
-0.457225
-0.43651
-0.417237
-0.400192
-0.658837
-0.608563
-0.571892
-0.540844
-0.511277
-0.483051
-0.456135
-0.430231
-0.40493
-0.38203
-0.672428
-0.619771
-0.581024
-0.547246
-0.51407
-0.481553
-0.44992
-0.41903
-0.388442
-0.361035
-0.678991
-0.624811
-0.584258
-0.54765
-0.510681
-0.473798
-0.437621
-0.402246
-0.367313
-0.33671
-0.676662
-0.621942
-0.579899
-0.540447
-0.49968
-0.458617
-0.418357
-0.379245
-0.341033
-0.308469
-0.663585
-0.609424
-0.566279
-0.524111
-0.47978
-0.435013
-0.391404
-0.349506
-0.309159
-0.275782
-0.63803
-0.585618
-0.541863
-0.497308
-0.449929
-0.402231
-0.356261
-0.312699
-0.271406
-0.238284
-0.598528
-0.549122
-0.505381
-0.459006
-0.409394
-0.359829
-0.312707
-0.268732
-0.227715
-0.195841
-0.543987
-0.498881
-0.455925
-0.40856
-0.357828
-0.307713
-0.260827
-0.217791
-0.178293
-0.148597
-0.473812
-0.434304
-0.393056
-0.345779
-0.295292
-0.246139
-0.201002
-0.160329
-0.123619
-0.0969825
-0.388007
-0.355363
-0.316872
-0.270962
-0.222252
-0.175674
-0.133835
-0.0969661
-0.06433
-0.0416217
-0.287266
-0.262669
-0.228062
-0.184913
-0.139572
-0.0971617
-0.0601011
-0.0284034
-0.00114765
0.0166576
-0.173036
-0.157518
-0.127917
-0.0889268
-0.04849
-0.0117467
0.0191421
0.0442398
0.0643855
0.0758244
-0.0475321
-0.041886
-0.0182915
0.0153209
0.0496067
0.0795173
0.103035
0.119749
0.129745
0.13216
0.0862869
0.08158
0.0983971
0.125797
0.153394
0.176454
0.193002
0.201423
0.200435
0.193741
0.224842
0.209612
0.219043
0.239606
0.260414
0.27758
0.28983
0.29535
0.294332
0.308289
0.364237
0.338562
0.340034
0.352893
0.365955
0.375966
0.382052
0.383322
0.382269
0.395227
0.500527
0.464758
0.457958
0.462537
0.467218
0.469321
0.468279
0.463676
0.458
0.463129
0.629867
0.584592
0.569527
0.565641
0.561757
0.555782
0.547457
0.536633
0.525385
0.52256
0.748596
0.694626
0.671648
0.659544
0.647383
0.633639
0.61833
0.601497
0.584831
0.574895
0.853331
0.791694
0.761502
0.741854
0.722143
0.701363
0.679773
0.657559
0.636043
0.619892
0.941057
0.872992
0.836605
0.81046
0.784288
0.757529
0.730642
0.703925
0.678346
0.656988
1.00922
0.936152
0.894864
0.863575
0.832315
0.800876
0.769868
0.739672
0.710945
0.685527
1.05582
0.979323
0.934645
0.899797
0.865031
0.830379
0.796557
0.763996
0.733123
0.704918
1.07947
1.00123
0.954823
0.918155
0.881602
0.845318
0.810069
0.776312
0.744351
0.714727
1.07947
1.00124
0.954824
0.918156
0.881603
0.845319
0.81007
0.776313
0.744352
0.714727
1.05582
0.979327
0.934649
0.8998
0.865034
0.830382
0.79656
0.763998
0.733125
0.70492
1.00923
0.936158
0.89487
0.863581
0.83232
0.80088
0.769873
0.739676
0.710949
0.685531
0.941066
0.873
0.836613
0.810468
0.784295
0.757535
0.730648
0.703931
0.678352
0.656994
0.853342
0.791705
0.761512
0.741864
0.722152
0.701371
0.679781
0.657567
0.636051
0.619899
0.74861
0.694639
0.67166
0.659556
0.647394
0.633649
0.61834
0.601507
0.58484
0.574903
0.629883
0.584607
0.569542
0.565655
0.56177
0.555794
0.547469
0.536645
0.525396
0.52257
0.500545
0.464775
0.457975
0.462553
0.467233
0.469335
0.468293
0.463689
0.458012
0.463141
0.364257
0.338581
0.340053
0.352911
0.365972
0.375983
0.382068
0.383337
0.382283
0.395241
0.224865
0.209634
0.219064
0.239626
0.260433
0.277598
0.289848
0.295366
0.294349
0.308305
0.0863112
0.0816039
0.0984202
0.125819
0.153415
0.176473
0.193021
0.201442
0.200453
0.19376
-0.0475059
-0.0418602
-0.0182665
0.0153448
0.0496295
0.0795389
0.103056
0.119769
0.129764
0.13218
-0.173008
-0.15749
-0.12789
-0.0889012
-0.0484656
-0.0117234
0.0191643
0.044261
0.0644059
0.0758445
-0.287237
-0.26264
-0.228033
-0.184886
-0.139546
-0.097137
-0.0600776
-0.028381
-0.00112608
0.0166786
-0.387975
-0.355332
-0.316842
-0.270934
-0.222225
-0.175648
-0.133811
-0.0969424
-0.0643073
-0.0415998
-0.473779
-0.434272
-0.393024
-0.345749
-0.295263
-0.246112
-0.200976
-0.160304
-0.123595
-0.0969596
-0.543953
-0.498847
-0.455892
-0.408528
-0.357797
-0.307684
-0.2608
-0.217765
-0.178268
-0.148573
-0.598493
-0.549087
-0.505347
-0.458973
-0.409362
-0.359799
-0.312678
-0.268705
-0.227688
-0.195816
-0.637994
-0.585583
-0.541828
-0.497274
-0.449896
-0.4022
-0.356231
-0.31267
-0.271378
-0.238258
-0.663548
-0.609388
-0.566243
-0.524076
-0.479746
-0.43498
-0.391372
-0.349476
-0.30913
-0.275755
-0.676624
-0.621905
-0.579862
-0.540411
-0.499645
-0.458583
-0.418325
-0.379214
-0.341004
-0.308441
-0.678953
-0.624773
-0.584221
-0.547614
-0.510645
-0.473763
-0.437588
-0.402214
-0.367282
-0.33668
-0.672389
-0.619733
-0.580987
-0.547209
-0.514034
-0.481518
-0.449886
-0.418997
-0.38841
-0.361005
-0.658798
-0.608525
-0.571855
-0.540807
-0.511241
-0.483016
-0.4561
-0.430198
-0.404897
-0.381999
-0.639944
-0.59279
-0.558448
-0.530002
-0.50374
-0.479509
-0.45719
-0.436476
-0.417204
-0.40016
-0.61739
-0.573985
-0.542233
-0.51628
-0.492961
-0.472255
-0.454119
-0.438431
-0.425613
-0.415724
-0.592425
-0.553327
-0.524445
-0.500928
-0.480196
-0.462425
-0.447771
-0.436487
-0.430044
-0.428445
-0.566046
-0.531755
-0.506034
-0.484961
-0.466506
-0.451026
-0.438884
-0.430792
-0.429852
-0.437415
-0.539008
-0.509944
-0.487631
-0.469028
-0.452604
-0.43881
-0.428116
-0.421574
-0.424301
-0.441319
-0.511966
-0.488369
-0.469557
-0.453314
-0.438501
-0.425485
-0.414602
-0.406482
-0.406403
-0.425692
-0.485645
-0.467494
-0.452088
-0.437942
-0.424076
-0.410288
-0.395818
-0.378032
-0.352856
-0.32877
-0.460871
-0.447897
-0.435843
-0.424018
-0.411895
-0.399363
-0.386024
-0.370349
-0.350134
-0.332726
-0.438331
-0.430005
-0.421093
-0.411636
-0.401596
-0.391057
-0.37993
-0.367584
-0.353527
-0.342999
-0.418462
-0.414085
-0.407938
-0.400646
-0.39256
-0.383881
-0.374664
-0.364679
-0.35408
-0.346547
-0.401478
-0.400311
-0.396496
-0.391093
-0.384748
-0.377744
-0.370244
-0.36225
-0.354084
-0.348054
-0.387437
-0.388783
-0.386859
-0.383037
-0.378173
-0.372603
-0.366555
-0.360171
-0.353788
-0.348676
-0.376308
-0.379546
-0.379087
-0.376521
-0.372844
-0.368418
-0.363505
-0.358323
-0.353194
-0.348677
-0.368029
-0.372615
-0.373222
-0.371585
-0.368791
-0.365213
-0.361126
-0.356792
-0.352513
-0.348386
-0.362544
-0.367994
-0.369295
-0.368269
-0.366058
-0.363037
-0.359487
-0.355691
-0.351944
-0.348061
-0.359812
-0.365684
-0.367327
-0.366604
-0.364681
-0.361936
-0.35865
-0.355116
-0.351624
-0.34786
-0.300979
-0.133996
-0.0876234
-0.0350281
-0.0216579
-0.0083819
-0.00334688
0.00109507
0.00102696
0.00391151
-0.302236
-0.134568
-0.0879217
-0.0352639
-0.0217654
-0.00847768
-0.00340634
0.00105356
0.00100295
0.00388478
-0.304677
-0.135698
-0.0885151
-0.0357363
-0.0219776
-0.0086651
-0.00352206
0.000972721
0.00095614
0.00383158
-0.30816
-0.13736
-0.0893883
-0.0364432
-0.0222905
-0.00894087
-0.00369196
0.000853799
0.000887727
0.00375246
-0.312434
-0.139506
-0.0905094
-0.0373768
-0.0226971
-0.00929959
-0.0039127
0.000698648
0.000799538
0.00364818
-0.31714
-0.142057
-0.0918213
-0.0385154
-0.0231846
-0.00973241
-0.00417935
0.000509931
0.000693799
0.00351982
-0.322142
-0.145076
-0.0933224
-0.0398459
-0.0237462
-0.0102305
-0.0044872
0.000291365
0.000572239
0.00336991
-0.327965
-0.149224
-0.0952773
-0.0414679
-0.024423
-0.0108052
-0.00484068
4.49309e-05
0.000434735
0.00320258
-0.332872
-0.154896
-0.0978699
-0.0435553
-0.0252757
-0.0114905
-0.0052531
-0.000236431
0.000284756
0.00301364
-0.325137
-0.157421
-0.0990883
-0.0454329
-0.0259927
-0.0121791
-0.00567102
-0.000558538
0.000149869
0.00277032
-0.258562
-0.149573
-0.0955733
-0.049076
-0.0271015
-0.0141038
-0.00693076
-0.00177522
-0.000242012
0.00172787
-0.199595
-0.140279
-0.0892487
-0.0503325
-0.0289317
-0.0167927
-0.00925681
-0.00379878
-0.00131933
0.000464401
-0.157213
-0.121909
-0.0793476
-0.0483516
-0.0300095
-0.0189307
-0.0113949
-0.00578493
-0.00247868
-0.000500797
-0.11689
-0.100542
-0.0695666
-0.0459293
-0.0306975
-0.020578
-0.0131646
-0.00752676
-0.00356717
-0.00116294
-0.087178
-0.0829342
-0.0625482
-0.0444099
-0.0312801
-0.0218079
-0.0145398
-0.00891778
-0.00450423
-0.00158254
-0.0667775
-0.0698543
-0.0574443
-0.0432572
-0.0315491
-0.022588
-0.0155181
-0.00994116
-0.0052423
-0.00183741
-0.0535475
-0.0604284
-0.0534713
-0.0421931
-0.0315712
-0.0230494
-0.0161887
-0.0106584
-0.00578581
-0.00199117
-0.0451654
-0.0538512
-0.0504255
-0.0412904
-0.0315126
-0.0233256
-0.0166324
-0.0111364
-0.00616057
-0.00208284
-0.0402561
-0.0496732
-0.0483659
-0.0406698
-0.0314653
-0.0234817
-0.0168961
-0.0114243
-0.00639416
-0.00213351
-0.037982
-0.0476335
-0.0473311
-0.0403699
-0.0314522
-0.023551
-0.0170151
-0.0115559
-0.00650781
-0.00215396
-0.228756
-0.256701
-0.28254
-0.306556
-0.329133
-0.350773
-0.372085
-0.393708
-0.416123
-0.440017
-0.0774715
-0.0876133
-0.0967786
-0.105211
-0.113216
-0.121175
-0.129547
-0.138872
-0.14973
-0.163916
-0.054271
-0.0634322
-0.0722092
-0.0805753
-0.0884936
-0.0959197
-0.10281
-0.109138
-0.114901
-0.120221
-0.0275202
-0.0332113
-0.0386967
-0.0439957
-0.0491303
-0.0541241
-0.0590006
-0.0637821
-0.0684687
-0.0729449
-0.02159
-0.025915
-0.0301153
-0.0341875
-0.038128
-0.041933
-0.0455991
-0.0491235
-0.0524868
-0.0556619
-0.016353
-0.0195385
-0.0226642
-0.0257292
-0.028733
-0.0316753
-0.0345557
-0.037373
-0.0401155
-0.0427894
-0.0151005
-0.0176061
-0.0200746
-0.0225022
-0.0248852
-0.0272206
-0.0295062
-0.0317394
-0.0339143
-0.0360458
-0.0142027
-0.0162298
-0.0182394
-0.0202276
-0.0221906
-0.0241251
-0.0260281
-0.0278967
-0.0297275
-0.0315286
-0.0140537
-0.0157981
-0.0175334
-0.0192553
-0.0209595
-0.0226422
-0.0242999
-0.0259295
-0.0275289
-0.0290997
-0.0139667
-0.0155628
-0.0171552
-0.0187402
-0.020314
-0.0218735
-0.0234155
-0.0249371
-0.026437
-0.0279132
0.158046
0.11702
0.0716654
0.0285886
-0.0131633
-0.0540571
-0.0934756
-0.130838
-0.165879
-0.198514
0.107917
0.0819999
0.0552328
0.0324152
0.012308
-0.00635586
-0.0236571
-0.0393851
-0.053514
-0.0661593
0.0640868
0.0483996
0.0334792
0.0205973
0.0087705
-0.00267314
-0.0138026
-0.0245303
-0.0348335
-0.0447392
0.0441066
0.0350529
0.0264579
0.0187796
0.011542
0.00447743
-0.00241043
-0.00906312
-0.0154597
-0.0216075
0.0287936
0.022863
0.0171534
0.0118925
0.00682999
0.00183672
-0.00307971
-0.00788802
-0.0125759
-0.0171431
0.0187205
0.0148528
0.0110352
0.00742491
0.00390913
0.000421018
-0.00303749
-0.00644972
-0.00980749
-0.0131089
0.0111633
0.00845507
0.00572424
0.00307235
0.000451148
-0.00217159
-0.00479378
-0.0074043
-0.00999534
-0.0125621
0.00609196
0.00411627
0.002093
8.26864e-05
-0.00193136
-0.0039624
-0.00600793
-0.00806044
-0.0101136
-0.0121625
0.00283278
0.00125655
-0.00036702
-0.00200941
-0.00367539
-0.00536792
-0.00708308
-0.00881471
-0.0105571
-0.0123051
0.00127262
-0.000129396
-0.00157356
-0.00304586
-0.0045468
-0.00607526
-0.00762689
-0.00919652
-0.0107793
-0.0123708
0.325803
0.325099
0.323543
0.320655
0.315653
0.307298
0.293818
0.272817
0.241659
0.196972
0.236052
0.234934
0.232294
0.227702
0.220821
0.211223
0.198336
0.181503
0.159975
0.133196
0.1654
0.164271
0.161603
0.157076
0.150584
0.142017
0.131187
0.11788
0.101688
0.0826962
0.113978
0.113093
0.110992
0.107431
0.102395
0.0959079
0.0879641
0.0785732
0.0676576
0.0555523
0.077822
0.0771787
0.0756425
0.0730341
0.0693607
0.064675
0.0590112
0.0524077
0.0448451
0.0365316
0.0528007
0.0523388
0.0512339
0.049358
0.0467243
0.0433842
0.0393794
0.034754
0.0295259
0.0238414
0.0357804
0.0354436
0.0346376
0.0332694
0.0313508
0.0289218
0.0260164
0.0226674
0.0188945
0.0147815
0.0245953
0.0243404
0.0237303
0.0226948
0.0212433
0.0194072
0.0172133
0.0146867
0.0118481
0.00874946
0.0178274
0.0176208
0.0171267
0.0162881
0.0151126
0.0136249
0.0118465
0.00979631
0.00749219
0.00496554
0.0146411
0.0144565
0.014016
0.0132689
0.0122214
0.0108954
0.00930978
0.00748071
0.00542517
0.00316599
0.475662
0.477414
0.483743
0.494883
0.510725
0.531575
0.557899
0.590222
0.629083
0.67473
0.473421
0.475147
0.481396
0.49238
0.507974
0.528446
0.554206
0.585691
0.623303
0.667136
0.468993
0.470674
0.47677
0.48745
0.502558
0.522289
0.546937
0.576768
0.61191
0.652157
0.462477
0.464102
0.469988
0.480236
0.494643
0.513297
0.536323
0.563729
0.595226
0.630199
0.454011
0.455586
0.461223
0.470934
0.484455
0.501739
0.522686
0.546962
0.573716
0.601849
0.443765
0.445312
0.450681
0.459774
0.472254
0.487913
0.506385
0.526915
0.547951
0.567842
0.431934
0.433521
0.438642
0.447072
0.458399
0.47223
0.487891
0.50413
0.518608
0.529045
0.418725
0.420538
0.425546
0.433386
0.443587
0.455539
0.468189
0.479648
0.486687
0.486252
0.404206
0.406495
0.411582
0.418956
0.428136
0.43829
0.447918
0.454304
0.453061
0.438952
0.388017
0.39045
0.395108
0.401352
0.408714
0.416243
0.422165
0.423258
0.414754
0.387002
0.388029
0.390461
0.39512
0.401364
0.408726
0.416256
0.422179
0.423272
0.414768
0.387016
0.404217
0.406506
0.411593
0.418967
0.428147
0.438301
0.44793
0.454316
0.453074
0.438965
0.418735
0.420548
0.425557
0.433396
0.443598
0.45555
0.4682
0.479659
0.486698
0.486263
0.431943
0.43353
0.438652
0.447081
0.458409
0.47224
0.487901
0.504139
0.518617
0.529054
0.443773
0.445321
0.450689
0.459782
0.472262
0.487921
0.506393
0.526923
0.547958
0.56785
0.454018
0.455594
0.46123
0.470941
0.484462
0.501746
0.522692
0.546968
0.573722
0.601855
0.462482
0.464108
0.469993
0.480241
0.494648
0.513302
0.536328
0.563733
0.59523
0.630204
0.468997
0.470678
0.476774
0.487454
0.502562
0.522292
0.54694
0.576771
0.611913
0.65216
0.473424
0.47515
0.481399
0.492382
0.507976
0.528449
0.554208
0.585692
0.623305
0.667138
0.475663
0.477414
0.483744
0.494883
0.510726
0.531576
0.5579
0.590223
0.629084
0.674731
0.0146555
0.014471
0.0140304
0.0132832
0.0122357
0.0109096
0.00932388
0.00749466
0.00543896
0.0031796
0.0178419
0.0176353
0.0171412
0.0163026
0.015127
0.0136393
0.0118608
0.00981038
0.00750609
0.00497923
0.02461
0.024355
0.023745
0.0227095
0.0212579
0.0194216
0.0172276
0.0147009
0.0118621
0.00876314
0.0357952
0.0354584
0.0346524
0.0332842
0.0313654
0.0289364
0.0260308
0.0226816
0.0189084
0.0147951
0.0528156
0.0523538
0.0512489
0.0493729
0.0467391
0.0433989
0.0393939
0.0347683
0.0295401
0.0238553
0.0778371
0.0771938
0.0756576
0.0730491
0.0693757
0.0646899
0.059026
0.0524224
0.0448596
0.036546
0.113993
0.113108
0.111007
0.107447
0.10241
0.0959231
0.0879793
0.0785884
0.0676729
0.0555676
0.165415
0.164286
0.161618
0.157092
0.150599
0.142033
0.131203
0.117896
0.101704
0.0827127
0.236067
0.234948
0.232309
0.227717
0.220837
0.211239
0.198352
0.18152
0.159992
0.133214
0.325816
0.325113
0.323556
0.320669
0.315667
0.307313
0.293833
0.272834
0.241676
0.196991
0.00128599
-0.000116293
-0.00156077
-0.00303337
-0.00453463
-0.00606344
-0.00761545
-0.00918551
-0.0107688
-0.0123607
0.00284621
0.00126971
-0.000354152
-0.00199685
-0.00366315
-0.00535604
-0.00707159
-0.00880364
-0.0105465
-0.0122949
0.00610538
0.00412943
0.00210587
9.52709e-05
-0.00191907
-0.00395043
-0.0059963
-0.00804915
-0.0101027
-0.012152
0.0111767
0.00846812
0.00573702
0.00308488
0.00046344
-0.00215956
-0.00478203
-0.00739285
-0.00998421
-0.0125513
0.0187341
0.0148661
0.0110483
0.00743775
0.00392176
0.000433415
-0.00302535
-0.00643786
-0.00979592
-0.0130976
0.0288078
0.022877
0.0171672
0.0119061
0.00684344
0.00184999
-0.00306663
-0.00787514
-0.0125633
-0.0171307
0.0441218
0.035068
0.0264728
0.0187944
0.0115566
0.00449195
-0.00239608
-0.00904896
-0.0154458
-0.0215939
0.0641036
0.0484164
0.0334959
0.0206139
0.00878691
-0.00265693
-0.0137867
-0.0245146
-0.0348181
-0.0447241
0.107936
0.0820187
0.0552516
0.0324339
0.0123264
-0.00633777
-0.0236392
-0.0393674
-0.0534965
-0.0661419
0.158067
0.117041
0.0716856
0.0286086
-0.0131433
-0.0540368
-0.0934549
-0.130817
-0.165857
-0.198492
-0.013957
-0.0155536
-0.0171465
-0.0187318
-0.020306
-0.0218658
-0.0234082
-0.0249301
-0.0264302
-0.0279066
-0.014044
-0.0157887
-0.0175245
-0.0192468
-0.0209515
-0.0226346
-0.0242926
-0.0259225
-0.0275221
-0.029093
-0.0141926
-0.0162201
-0.0182301
-0.0202187
-0.0221821
-0.0241169
-0.0260203
-0.0278892
-0.0297202
-0.0315215
-0.01509
-0.0175959
-0.0200648
-0.0224926
-0.0248759
-0.0272117
-0.0294976
-0.0317311
-0.0339063
-0.036038
-0.016342
-0.0195278
-0.0226538
-0.025719
-0.0287231
-0.0316657
-0.0345464
-0.0373639
-0.0401067
-0.0427809
-0.0215779
-0.0259033
-0.0301039
-0.0341764
-0.0381171
-0.0419224
-0.0455887
-0.0491134
-0.052477
-0.0556524
-0.0275069
-0.0331984
-0.0386842
-0.0439834
-0.0491182
-0.0541123
-0.0589891
-0.0637709
-0.0684579
-0.0729345
-0.0542562
-0.0634176
-0.0721946
-0.0805609
-0.0884795
-0.0959058
-0.102797
-0.109125
-0.114888
-0.120209
-0.0774542
-0.0875964
-0.096762
-0.105194
-0.113199
-0.121159
-0.12953
-0.138855
-0.149714
-0.163899
-0.228733
-0.256677
-0.282515
-0.30653
-0.329107
-0.350745
-0.372056
-0.393677
-0.41609
-0.439982
-0.037976
-0.0476303
-0.0473294
-0.0403678
-0.0314478
-0.0235449
-0.0170094
-0.0115517
-0.00650575
-0.00215089
-0.0402501
-0.0496703
-0.0483647
-0.040668
-0.0314608
-0.0234752
-0.0168901
-0.01142
-0.006392
-0.00213043
-0.0451594
-0.0538488
-0.0504252
-0.041289
-0.0315077
-0.0233185
-0.0166256
-0.0111316
-0.00615813
-0.00207981
-0.0535413
-0.0604269
-0.0534726
-0.0421923
-0.0315656
-0.0230409
-0.0161805
-0.0106527
-0.00578289
-0.00198821
-0.0667711
-0.0698542
-0.0574482
-0.0432575
-0.0315423
-0.022577
-0.0155075
-0.00993369
-0.0052386
-0.00183459
-0.0871713
-0.0829363
-0.0625559
-0.0444117
-0.0312713
-0.0217929
-0.0145252
-0.00890755
-0.00449939
-0.00158002
-0.116883
-0.100549
-0.0695798
-0.0459324
-0.0306851
-0.0205568
-0.0131442
-0.0075126
-0.00356094
-0.00116094
-0.157205
-0.121924
-0.0793712
-0.048357
-0.0299917
-0.0189006
-0.0113668
-0.00576592
-0.00247102
-0.000499607
-0.199581
-0.140304
-0.0892892
-0.0503446
-0.0289096
-0.0167534
-0.0092204
-0.00377487
-0.00131036
0.000464584
-0.258535
-0.149602
-0.095628
-0.0490977
-0.0270821
-0.014062
-0.00689124
-0.0017491
-0.000232146
0.00172731
-0.325108
-0.157445
-0.0991389
-0.0454542
-0.0259803
-0.0121473
-0.00564015
-0.000537372
0.000158567
0.00277042
-0.332843
-0.15492
-0.0979187
-0.0435756
-0.0252645
-0.0114611
-0.00522464
-0.000216829
0.000292891
0.0030138
-0.327939
-0.149248
-0.0953236
-0.0414865
-0.0244124
-0.0107779
-0.00481467
6.27935e-05
0.000442089
0.00320271
-0.32212
-0.145099
-0.0933655
-0.039863
-0.0237367
-0.010206
-0.00446398
0.000307289
0.000578748
0.00337006
-0.317121
-0.142078
-0.0918599
-0.0385305
-0.0231762
-0.00971057
-0.00415897
0.000523897
0.000699506
0.00351992
-0.312419
-0.139525
-0.0905427
-0.0373897
-0.0226901
-0.00928101
-0.00389556
0.000710433
0.000804348
0.00364824
-0.308148
-0.137375
-0.0894154
-0.0364537
-0.022285
-0.00892587
-0.00367832
0.000863256
0.000891579
0.0037525
-0.304669
-0.135709
-0.0885351
-0.0357442
-0.0219737
-0.00865405
-0.00351218
0.000979649
0.000958938
0.00383159
-0.302231
-0.134574
-0.087934
-0.0352688
-0.0217631
-0.00847081
-0.0034003
0.00105786
0.00100468
0.00388476
-0.300977
-0.133998
-0.0876275
-0.0350298
-0.0216572
-0.00837965
-0.00334491
0.00109648
0.00102753
0.00391152
)
;

boundaryField
{
    inlet
    {
        type            zeroGradient;
    }
    outlet
    {
        type            fixedValue;
        value           uniform 0;
    }
    cylinder
    {
        type            zeroGradient;
    }
    top
    {
        type            symmetryPlane;
    }
    bottom
    {
        type            symmetryPlane;
    }
    defaultFaces
    {
        type            empty;
    }
}


// ************************************************************************* //
