/*--------------------------------*- C++ -*----------------------------------*\
  =========                 |
  \\      /  F ield         | OpenFOAM: The Open Source CFD Toolbox
   \\    /   O peration     | Website:  https://openfoam.org
    \\  /    A nd           | Version:  6.0
     \\/     M anipulation  |
\*---------------------------------------------------------------------------*/
FoamFile
{
    version     2.0;
    format      ascii;
    class       surfaceScalarField;
    location    "12";
    object      phi;
}
// * * * * * * * * * * * * * * * * * * * * * * * * * * * * * * * * * * * * * //

dimensions      [0 3 -1 0 0 0 0];

internalField   nonuniform List<scalar> 
3880
(
-1.79618e-05
1.79813e-05
-1.94697e-08
-5.33539e-05
3.54332e-05
-4.11643e-08
-9.49642e-05
4.16622e-05
-5.18212e-08
-0.000135702
4.07929e-05
-5.47414e-08
-0.000171194
3.55438e-05
-5.19889e-08
-0.000199024
2.78749e-05
-4.4893e-08
-0.000218264
1.92742e-05
-3.43917e-08
-0.000229164
1.09216e-05
-2.11122e-08
-0.000232955
3.79604e-06
-5.60878e-09
-1.31913e-06
1.19382e-08
-0.000231648
-1.72748e-05
3.52561e-05
-5.06776e-05
6.8836e-05
-8.91369e-05
8.01214e-05
-0.000125675
7.73312e-05
-0.000155959
6.58278e-05
-0.000177539
4.94546e-05
-0.000189397
3.11328e-05
-0.000191685
1.32091e-05
-0.000185574
-2.3146e-06
-1.37824e-05
-0.000173111
-1.58668e-05
5.11229e-05
-4.52125e-05
9.81816e-05
-7.72865e-05
0.000112195
-0.000105382
0.000105426
-0.00012529
8.5736e-05
-0.000134529
5.86935e-05
-0.000131922
2.85263e-05
-0.000117411
-1.30243e-06
-9.20282e-05
-2.76971e-05
-4.79384e-05
-5.78722e-05
-1.36521e-05
6.4775e-05
-3.66818e-05
0.000121211
-5.8915e-05
0.000134429
-7.4154e-05
0.000120665
-7.84911e-05
9.00731e-05
-6.9498e-05
4.97004e-05
-4.58236e-05
4.85184e-06
-7.09004e-06
-4.0036e-05
4.59389e-05
-8.07261e-05
-0.000113142
0.000111143
-1.04696e-05
7.52446e-05
-2.45749e-05
0.000135317
-3.30671e-05
0.000142921
-3.05981e-05
0.000118196
-1.38686e-05
7.33436e-05
1.92546e-05
1.65771e-05
7.01817e-05
-4.60752e-05
0.000139668
-0.000109522
0.000227415
-0.000168474
-0.000217124
0.000331397
-6.07051e-06
8.13152e-05
-8.11166e-06
0.000137358
1.77733e-06
0.000133032
2.76786e-05
9.22952e-05
7.18301e-05
2.91921e-05
0.0001356
-4.71927e-05
0.000220069
-0.000130544
0.000326233
-0.000215686
0.000454492
-0.000296733
-0.000365713
0.000603081
-1.4578e-07
8.14609e-05
1.36741e-05
0.000123538
4.75914e-05
9.91146e-05
0.000104034
3.58526e-05
0.000183657
-5.04314e-05
0.000286348
-0.000149884
0.000412012
-0.000256207
0.000561181
-0.000364856
0.000734905
-0.000470457
-0.000563047
0.000932239
7.58569e-06
7.38752e-05
4.16559e-05
8.94675e-05
0.00010628
3.44905e-05
0.00020206
-5.99278e-05
0.000327709
-0.00017608
0.000480849
-0.000303023
0.000658848
-0.000434206
0.000859967
-0.000565975
0.00108462
-0.000695111
-0.00081453
0.0013361
1.72301e-05
5.66452e-05
7.61402e-05
3.05574e-05
0.000178716
-6.80852e-05
0.000324043
-0.000205255
0.00050917
-0.000361207
0.000729324
-0.000523177
0.000978212
-0.000683094
0.00124898
-0.000836747
0.00153781
-0.000983941
-0.0011352
0.00185848
2.85215e-05
2.81237e-05
0.00011621
-5.71307e-05
0.000263249
-0.000215125
0.000468219
-0.000410225
0.000728308
-0.000621296
0.00103903
-0.000833896
0.00139355
-0.00103762
0.00178105
-0.00122425
0.00218577
-0.00138865
-0.00153463
0.0025852
4.06486e-05
-1.25249e-05
0.000159019
-0.000175501
0.000353457
-0.000409562
0.000622647
-0.000679414
0.000965908
-0.000964558
0.00138386
-0.00125185
0.00187966
-0.00153342
0.00246229
-0.00180688
0.00315451
-0.00208087
-0.0023934
0.00401327
5.25367e-05
-6.50616e-05
0.000200592
-0.000323557
0.000439316
-0.000648286
0.000765115
-0.00100521
0.00117521
-0.00137465
0.00166763
-0.00174427
0.00224119
-0.00210698
0.00289491
-0.0024606
0.00362322
-0.00280917
-0.0031615
0.00439133
6.36691e-05
-0.000128731
0.000238886
-0.000498774
0.000516121
-0.000925521
0.000887259
-0.00137635
0.00134442
-0.00183182
0.00187935
-0.0022792
0.00248275
-0.00271037
0.00314273
-0.00312058
0.0038407
-0.00350714
-0.00386379
0.00454299
7.40629e-05
-0.000202794
0.000273618
-0.000698329
0.000583317
-0.00123522
0.000989253
-0.00178229
0.00147743
-0.00231999
0.00203311
-0.00283489
0.00264043
-0.00331769
0.00328161
-0.00376176
0.00393539
-0.00416093
-0.00450392
0.00457552
8.38569e-05
-0.00028665
0.000304921
-0.000919393
0.000641146
-0.00157145
0.00107222
-0.00221336
0.00157799
-0.00282576
0.00213817
-0.00339506
0.00273247
-0.003912
0.00334078
-0.00437006
0.00394299
-0.00476314
-0.00508031
0.00451938
9.30366e-05
-0.000379687
0.000332523
-0.00115888
0.000689018
-0.00192794
0.00113558
-0.00265993
0.00164636
-0.00333654
0.00219671
-0.00394542
0.00276388
-0.00447917
0.00332759
-0.00493377
0.00387044
-0.00530599
-0.00558859
0.00437872
0.000101356
-0.000481043
0.00035554
-0.00141306
0.000725217
-0.00229762
0.00117694
-0.00311165
0.00167993
-0.00383953
0.0022066
-0.00447209
0.00273344
-0.005006
0.00324164
-0.00544197
0.00371746
-0.00578181
-0.00602401
0.00415288
0.000108387
-0.00058943
0.000372628
-0.0016773
0.000747332
-0.00267232
0.00119304
-0.00355736
0.00167517
-0.00432165
0.00216474
-0.00496166
0.00263912
-0.00548038
0.00308229
-0.00588514
0.00348477
-0.00618429
-0.00638304
0.00384381
0.000113605
-0.000703035
0.000382282
-0.00194598
0.000752867
-0.00304291
0.00118083
-0.00398532
0.00162925
-0.00477007
0.00206939
-0.00540181
0.00248098
-0.00589197
0.00285178
-0.00625594
0.00317679
-0.0065093
-0.00666414
0.0034579
0.000116483
-0.000819518
0.000383097
-0.0022126
0.000739759
-0.00339957
0.00113826
-0.00438382
0.00154105
-0.00517286
0.00192127
-0.00578203
0.00226219
-0.00623289
0.00255589
-0.00654964
0.00280175
-0.00675516
-0.0068678
0.00300541
0.000116559
-0.000936077
0.000373978
-0.00247001
0.000706711
-0.0037323
0.00106467
-0.00474178
0.0014115
-0.00551968
0.00172364
-0.00609417
0.00198872
-0.00649798
0.00220328
-0.0067642
0.00237056
-0.00692244
-0.00699625
0.00249901
0.000113434
-0.00104951
0.000354169
-0.00271075
0.000653232
-0.00403136
0.000960745
-0.0050493
0.00124328
-0.00580222
0.00148174
-0.00633263
0.00166848
-0.00668471
0.0018042
-0.00689993
0.00189532
-0.00701355
-0.00705301
0.00195207
0.00010685
-0.00115636
0.000323394
-0.00292729
0.000579752
-0.00428772
0.000828461
-0.00529801
0.0010406
-0.00601436
0.00120225
-0.00649428
0.00131046
-0.00679292
0.00136954
-0.00695901
0.00138816
-0.00703218
-0.00704238
0.00137753
9.66641e-05
-0.00125303
0.000281781
-0.00311241
0.00048743
-0.00449337
0.000670727
-0.0054813
0.000808517
-0.00615215
0.00089239
-0.00657815
0.000923726
-0.00682426
0.000909638
-0.00694492
0.000860216
-0.00698276
-0.00696902
0.000786862
8.28588e-05
-0.00133588
0.00022985
-0.0032594
0.000378035
-0.00464155
0.000491067
-0.00559433
0.000552445
-0.00621353
0.000559268
-0.00658497
0.000516646
-0.00678164
0.00043363
-0.0068619
0.000320887
-0.00687001
-0.00683768
0.00018954
6.55528e-05
-0.00140144
0.000168488
-0.00336234
0.000253821
-0.00472689
0.000293361
-0.00563387
0.00027776
-0.00619793
0.000209367
-0.00651658
9.63514e-05
-0.00666862
-5.11365e-05
-0.00671442
-0.000222593
-0.00669856
-0.00665289
-0.000407383
4.50173e-05
-0.00144645
9.89561e-05
-0.00341628
0.000117491
-0.00474542
8.17521e-05
-0.00559814
-1.03465e-05
-0.00610583
-0.000151635
-0.00637529
-0.000331499
-0.00648876
-0.000539351
-0.00650656
-0.000765462
-0.00647245
-0.00641843
-0.000999919
2.17021e-05
-0.00146816
2.29221e-05
-0.0034175
-2.77728e-05
-0.00469473
-0.000139309
-0.0054866
-0.000306781
-0.00593836
-0.000518745
-0.00616333
-0.000762607
-0.00624489
-0.00102772
-0.00624145
-0.00130565
-0.00619452
-0.00613476
-0.00158932
-3.72291e-06
-0.00146443
-5.74593e-05
-0.00336376
-0.00017819
-0.004574
-0.000364903
-0.00529989
-0.000606455
-0.0056968
-0.000887917
-0.00588186
-0.00119505
-0.00593777
-0.001517
-0.0059195
-0.00184675
-0.00586477
-0.00579489
-0.00218662
-3.03038e-05
-0.00143413
-0.000139371
-0.00325469
-0.00032892
-0.00438445
-0.000588669
-0.00504014
-0.000902739
-0.00538273
-0.00125449
-0.00553011
-0.00162939
-0.00556287
-0.00201702
-0.00553186
-0.00241345
-0.00546834
-0.00540722
-0.00280112
-5.68081e-05
-0.00137732
-0.000219298
-0.0030922
-0.000473564
-0.00413018
-0.000800704
-0.004713
-0.00118154
-0.0050019
-0.00160014
-0.00511151
-0.00204518
-0.00511783
-0.0025094
-0.00506764
-0.00299191
-0.00498584
-0.00487048
-0.00352865
-8.21616e-05
-0.00129516
-0.000294199
-0.00288017
-0.000606377
-0.003818
-0.000990899
-0.00432848
-0.00142418
-0.00456861
-0.00188816
-0.00464754
-0.00236982
-0.00463616
-0.0028602
-0.00457727
-0.0033531
-0.00449293
-0.00439124
-0.00383235
-0.000105728
-0.00118943
-0.0003627
-0.00262319
-0.000726007
-0.0034547
-0.00115958
-0.0038949
-0.00163586
-0.00409233
-0.00213513
-0.00414827
-0.00264394
-0.00412736
-0.0031533
-0.00406791
-0.00365602
-0.00399021
-0.00390474
-0.00414252
-0.000127164
-0.00106227
-0.000424216
-0.00232614
-0.000832352
-0.00304656
-0.00130833
-0.00341893
-0.00182157
-0.00357909
-0.00235162
-0.00361823
-0.00288539
-0.00359358
-0.00341473
-0.00353857
-0.00393408
-0.00347086
-0.00339996
-0.00443886
-0.00014621
-0.000916059
-0.000478317
-0.00199403
-0.000925236
-0.00259964
-0.00143773
-0.00290643
-0.00198303
-0.00303378
-0.00254051
-0.00306075
-0.00309787
-0.00303622
-0.00364813
-0.00298831
-0.0041873
-0.00293169
-0.00287416
-0.0047131
-0.000162618
-0.00075344
-0.000524546
-0.00163211
-0.00100423
-0.00211996
-0.00154756
-0.0023631
-0.00212021
-0.00246114
-0.00270167
-0.00247928
-0.0032805
-0.00245739
-0.00385079
-0.00241803
-0.00440971
-0.00237277
-0.00232771
-0.00495616
-0.00017614
-0.0005773
-0.000562396
-0.00124585
-0.00106868
-0.00161368
-0.00163708
-0.0017947
-0.00223216
-0.00186606
-0.00283366
-0.00187779
-0.00343088
-0.00186017
-0.00401875
-0.00183015
-0.00459524
-0.00179628
-0.00176302
-0.00515993
-0.000186535
-0.000390766
-0.000591349
-0.000841036
-0.00111786
-0.00108717
-0.00170534
-0.00120722
-0.00231762
-0.00125378
-0.00293467
-0.00126074
-0.00354637
-0.00124847
-0.00414827
-0.00122825
-0.00473884
-0.00120571
-0.00118378
-0.00531807
-0.000193593
-0.000197172
-0.000610943
-0.000423687
-0.00115108
-0.000547026
-0.00175144
-0.000606865
-0.00237537
-0.000629845
-0.00300304
-0.000633075
-0.00362472
-0.000626787
-0.00423635
-0.000616622
-0.00483669
-0.000605366
-0.000594476
-0.005426
-0.000197163
-9.20964e-09
-0.000620831
-1.88921e-08
-0.00116783
-2.34237e-08
-0.00177467
-2.51053e-08
-0.00240449
-2.53407e-08
-0.00303754
-2.49128e-08
-0.00366431
-2.4213e-08
-0.0042809
-2.34137e-08
-0.00488625
-2.25978e-08
-2.17905e-08
-0.0054807
-0.000197163
0.000197154
-0.000620831
0.000423649
-0.00116783
0.000546979
-0.00177467
0.000606815
-0.00240449
0.000629794
-0.00303754
0.000633025
-0.00366431
0.000626738
-0.0042809
0.000616575
-0.00488625
0.000605321
0.000594433
-0.0054807
-0.000193593
0.000390747
-0.000610943
0.000840998
-0.00115108
0.00108712
-0.00175144
0.00120717
-0.00237537
0.00125373
-0.00300304
0.00126069
-0.00362472
0.00124842
-0.00423635
0.0012282
-0.00483669
0.00120566
0.00118374
-0.005426
-0.000186535
0.000577282
-0.00059135
0.00124581
-0.00111786
0.00161363
-0.00170534
0.00179465
-0.00231762
0.00186601
-0.00293467
0.00187774
-0.00354637
0.00186012
-0.00414827
0.00183011
-0.00473884
0.00179623
0.00176298
-0.00531807
-0.00017614
0.000753422
-0.000562397
0.00163207
-0.00106868
0.00211991
-0.00163708
0.00236305
-0.00223216
0.00246109
-0.00283366
0.00247923
-0.00343088
0.00245734
-0.00401875
0.00241798
-0.00459524
0.00237272
0.00232766
-0.00515993
-0.000162619
0.00091604
-0.000524546
0.001994
-0.00100423
0.00259959
-0.00154756
0.00290638
-0.00212021
0.00303373
-0.00270167
0.0030607
-0.0032805
0.00303617
-0.00385079
0.00298827
-0.00440971
0.00293165
0.00287412
-0.00495616
-0.00014621
0.00106225
-0.000478317
0.0023261
-0.000925236
0.00304651
-0.00143773
0.00341888
-0.00198303
0.00357903
-0.00254051
0.00361818
-0.00309787
0.00359354
-0.00364813
0.00353852
-0.0041873
0.00347082
0.00339992
-0.0047131
-0.000127164
0.00118941
-0.000424217
0.00262316
-0.000832352
0.00345465
-0.00130833
0.00389485
-0.00182157
0.00409228
-0.00235162
0.00414822
-0.00288539
0.00412731
-0.00341473
0.00406786
-0.00393408
0.00399016
0.0039047
-0.00443886
-0.000105728
0.00129514
-0.000362701
0.00288013
-0.000726008
0.00381796
-0.00115958
0.00432842
-0.00163586
0.00456856
-0.00213513
0.00464749
-0.00264394
0.00463612
-0.0031533
0.00457722
-0.00365602
0.00449289
0.0043912
-0.00414252
-8.21618e-05
0.0013773
-0.0002942
0.00309217
-0.000606377
0.00413013
-0.000990899
0.00471295
-0.00142418
0.00500185
-0.00188816
0.00511146
-0.00236982
0.00511778
-0.00286019
0.00506759
-0.0033531
0.00498579
0.00487044
-0.00383235
-5.68084e-05
0.00143411
-0.000219298
0.00325466
-0.000473565
0.0043844
-0.000800704
0.00504009
-0.00118154
0.00538268
-0.00160014
0.00553006
-0.00204518
0.00556282
-0.0025094
0.00553181
-0.00299191
0.0054683
0.00540718
-0.00352864
-3.03042e-05
0.00146442
-0.000139371
0.00336372
-0.000328921
0.00457395
-0.00058867
0.00529983
-0.000902739
0.00569675
-0.00125449
0.00588181
-0.00162939
0.00593772
-0.00201702
0.00591945
-0.00241345
0.00586472
0.00579484
-0.00280111
-3.72334e-06
0.00146814
-5.74602e-05
0.00341746
-0.000178191
0.00469468
-0.000364904
0.00548655
-0.000606455
0.0059383
-0.000887917
0.00616327
-0.00119504
0.00624484
-0.001517
0.0062414
-0.00184674
0.00619447
0.00613471
-0.00218661
2.17016e-05
0.00144644
2.2921e-05
0.00341624
-2.77741e-05
0.00474538
-0.00013931
0.00559808
-0.000306781
0.00610577
-0.000518745
0.00637524
-0.000762605
0.0064887
-0.00102772
0.00650651
-0.00130565
0.0064724
0.00641839
-0.00158932
4.50167e-05
0.00140142
9.89548e-05
0.0033623
0.000117489
0.00472684
8.17508e-05
0.00563382
-1.03469e-05
0.00619787
-0.000151634
0.00651652
-0.000331497
0.00666857
-0.000539347
0.00671436
-0.000765457
0.00669851
0.00665284
-0.000999912
6.55522e-05
0.00133587
0.000168487
0.00325937
0.000253819
0.00464151
0.00029336
0.00559428
0.00027776
0.00621347
0.000209368
0.00658491
9.63544e-05
0.00678158
-5.11312e-05
0.00686185
-0.000222586
0.00686996
0.00683763
-0.000407374
8.2858e-05
0.00125301
0.000229849
0.00311238
0.000378032
0.00449333
0.000491064
0.00548125
0.000552444
0.00615209
0.000559269
0.00657809
0.00051665
0.0068242
0.000433636
0.00694486
0.000320896
0.0069827
0.00696897
0.000189552
9.66633e-05
0.00115635
0.000281779
0.00292726
0.000487427
0.00428768
0.000670724
0.00529795
0.000808516
0.0060143
0.00089239
0.00649422
0.000923729
0.00679286
0.000909645
0.00695895
0.000860227
0.00703212
0.00704232
0.000786877
0.000106849
0.0010495
0.000323392
0.00271072
0.000579748
0.00403132
0.000828457
0.00504924
0.0010406
0.00580216
0.00120225
0.00633257
0.00131046
0.00668465
0.00136955
0.00689986
0.00138818
0.00701349
0.00705295
0.00137755
0.000113433
0.000936067
0.000354166
0.00246999
0.000653228
0.00373226
0.000960741
0.00474173
0.00124328
0.00551962
0.00148174
0.00609411
0.00166848
0.00649791
0.00180421
0.00676413
0.00189533
0.00692237
0.00699619
0.00195209
0.000116558
0.000819508
0.000373975
0.00221257
0.000706706
0.00339953
0.00106467
0.00438377
0.00141149
0.0051728
0.00172363
0.00578196
0.00198872
0.00623282
0.00220328
0.00654957
0.00237057
0.00675509
0.00686773
0.00249903
0.000116482
0.000703026
0.000383094
0.00194596
0.000739753
0.00304287
0.00113825
0.00398527
0.00154104
0.00477001
0.00192126
0.00540174
0.00226219
0.0058919
0.0025559
0.00625586
0.00280176
0.00650922
0.00666407
0.00300543
0.000113604
0.000589423
0.000382278
0.00167728
0.00075286
0.00267229
0.00118082
0.00355731
0.00162924
0.00432159
0.00206938
0.00496159
0.00248098
0.0054803
0.00285178
0.00588506
0.0031768
0.0061842
0.00638296
0.00345791
0.000108385
0.000481037
0.000372624
0.00141304
0.000747324
0.00229759
0.00119303
0.00311161
0.00167516
0.00383947
0.00216473
0.00447202
0.00263911
0.00500592
0.00308229
0.00544188
0.00348478
0.00578171
0.00602391
0.00384382
0.000101355
0.000379682
0.000355535
0.00115886
0.000725209
0.00192791
0.00117693
0.00265988
0.00167992
0.00333648
0.00220659
0.00394535
0.00273343
0.00447908
0.00324163
0.00493367
0.00371746
0.00530588
0.00558849
0.00415289
9.30351e-05
0.000286647
0.000332518
0.000919381
0.000689009
0.00157142
0.00113557
0.00221332
0.00164634
0.00282571
0.00219669
0.00339499
0.00276387
0.00391191
0.00332757
0.00436996
0.00387043
0.00476303
0.0050802
0.00437872
8.38553e-05
0.000202792
0.000304915
0.000698321
0.000641136
0.0012352
0.0010722
0.00178226
0.00157797
0.00231994
0.00213814
0.00283482
0.00273245
0.0033176
0.00334076
0.00376166
0.00394297
0.00416081
0.0045038
0.00451937
7.40611e-05
0.000128731
0.000273612
0.00049877
0.000583305
0.000925509
0.000989235
0.00137633
0.0014774
0.00183177
0.00203308
0.00227914
0.0026404
0.00271029
0.00328158
0.00312048
0.00393536
0.00350703
0.00386366
0.0045755
6.36669e-05
6.50641e-05
0.000238879
0.000323558
0.000516107
0.000648281
0.000887237
0.0010052
0.00134439
0.00137462
0.00187932
0.00174421
0.00248271
0.0021069
0.00314269
0.0024605
0.00384066
0.00280905
0.00316137
0.00454295
5.25341e-05
1.253e-05
0.000200583
0.000175509
0.000439299
0.000409565
0.000765088
0.000679406
0.00117518
0.000964532
0.00166759
0.0012518
0.00224114
0.00153335
0.00289486
0.00180678
0.00362317
0.00208074
0.00239326
0.00439128
4.06453e-05
-2.81153e-05
0.000159008
5.71461e-05
0.000353436
0.000215138
0.000622613
0.000410228
0.000965863
0.000621283
0.0013838
0.00083386
0.0018796
0.00103756
0.00246221
0.00122416
0.00315442
0.00138853
0.00153448
0.0040132
2.85176e-05
-5.6633e-05
0.000116197
-3.05333e-05
0.000263224
6.81106e-05
0.00046818
0.000205272
0.000728254
0.000361209
0.00103896
0.000523158
0.00139347
0.000683049
0.00178095
0.000836673
0.00218565
0.000983835
0.00113506
0.00258507
1.72258e-05
-7.38588e-05
7.61265e-05
-8.94339e-05
0.000178689
-3.44522e-05
0.000324001
5.99608e-05
0.000509111
0.0001761
0.000729246
0.000303023
0.000978115
0.00043418
0.00124887
0.000565919
0.00153768
0.000695023
0.000814406
0.00185834
7.58128e-06
-8.14401e-05
4.16418e-05
-0.000123494
0.000106253
-9.90631e-05
0.000202017
-3.5804e-05
0.000327649
5.04683e-05
0.00048077
0.000149902
0.00065875
0.000256201
0.00085985
0.000364819
0.00108449
0.000470387
0.000562939
0.00133595
-1.50103e-07
-8.129e-05
1.36604e-05
-0.000137305
4.7565e-05
-0.000132968
0.000103993
-9.22316e-05
0.0001836
-2.91387e-05
0.000286273
4.72285e-05
0.000411918
0.000130556
0.000561069
0.000215668
0.000734775
0.000296682
0.000365624
0.000932091
-6.07451e-06
-7.52154e-05
-8.12429e-06
-0.000135255
1.75315e-06
-0.000142845
2.76409e-05
-0.000118119
7.17776e-05
-7.32753e-05
0.000135532
-1.65255e-05
0.000219984
4.61035e-05
0.000326131
0.000109521
0.000454373
0.000168439
0.000217053
0.000602944
-1.04731e-05
-6.47424e-05
-2.45858e-05
-0.000121142
-3.3088e-05
-0.000134343
-3.06306e-05
-0.000120577
-1.39137e-05
-8.99922e-05
1.9196e-05
-4.96353e-05
7.01089e-05
-4.80933e-06
0.00013958
4.00501e-05
0.000227312
8.07073e-05
0.000113087
0.000331278
-1.36549e-05
-5.10874e-05
-3.66905e-05
-9.81068e-05
-5.89317e-05
-0.000112102
-7.418e-05
-0.000105329
-7.85272e-05
-8.56449e-05
-6.95449e-05
-5.86175e-05
-4.58818e-05
-2.84724e-05
-7.16032e-06
1.32856e-06
4.5856e-05
2.76909e-05
4.78961e-05
0.000111047
-1.58688e-05
-3.52186e-05
-4.52187e-05
-6.87569e-05
-7.72984e-05
-8.00221e-05
-0.0001054
-7.72268e-05
-0.000125316
-6.57294e-05
-0.000134562
-4.93708e-05
-0.000131964
-3.10706e-05
-0.000117462
-1.31742e-05
-9.20885e-05
2.31783e-06
1.375e-05
-5.79423e-05
-1.7276e-05
-1.79426e-05
-5.06812e-05
-3.53516e-05
-8.91437e-05
-4.15595e-05
-0.000125686
-4.06846e-05
-0.000155974
-3.54412e-05
-0.000177558
-2.77866e-05
-0.000189422
-1.9207e-05
-0.000191715
-1.08812e-05
-0.00018561
-3.78697e-06
1.29297e-06
-0.000173153
-1.79621e-05
-5.3355e-05
-9.49663e-05
-0.000135706
-0.000171199
-0.00019903
-0.000218272
-0.000229174
-0.000232967
-0.000231662
0.000217108
-0.000452313
3.55799e-06
0.00138636
-0.00117421
4.9619e-06
0.0025968
-0.00120804
-2.40557e-06
0.00341706
-0.000811481
-8.77205e-06
0.00413662
-0.000710278
-9.28017e-06
0.0046818
-0.000540534
-4.65158e-06
0.00516475
-0.00048614
3.19414e-06
0.0055108
-0.000354093
8.04089e-06
0.00585217
-0.000354114
1.27421e-05
-0.000226434
8.91826e-06
0.000329885
-0.000955309
0.00146957
-0.0023139
0.00265334
-0.00239181
0.00345637
-0.00161451
0.0041634
-0.00141731
0.00470091
-0.00107804
0.0051785
-0.000963732
0.00552197
-0.000697565
0.00586169
-0.000693836
-0.000444714
0.000548033
-0.00156121
0.00163017
-0.00339604
0.00276203
-0.00352367
0.00353178
-0.00238425
0.0042146
-0.00210013
0.00473734
-0.00160078
0.0052047
-0.00143109
0.00554336
-0.00103622
0.00588007
-0.00103054
-0.000664693
0.000857245
-0.00230732
0.00185678
-0.00439557
0.00291438
-0.00458127
0.00363728
-0.00310716
0.00428611
-0.00274897
0.00478837
-0.00210303
0.00524167
-0.00188439
0.00557399
-0.00136855
0.00590683
-0.00136338
-0.000887547
0.00123735
-0.00321327
0.00213353
-0.00529175
0.00309849
-0.00554623
0.00376435
-0.00377302
0.00437196
-0.00335658
0.00484985
-0.00258092
0.00528662
-0.00232116
0.00561204
-0.00169397
0.00594085
-0.0016922
-0.00111481
0.00166368
-0.00427387
0.00244124
-0.00606932
0.00330015
-0.00640514
0.00390283
-0.0043757
0.00446506
-0.0039188
0.00491688
-0.00303274
0.00533633
-0.00274061
0.00565541
-0.00201304
0.0059809
-0.0020177
-0.00134843
0.00210763
-0.00544926
0.00275821
-0.0067199
0.00350365
-0.00715057
0.00404157
-0.00491362
0.00455759
-0.00443483
0.00498399
-0.00345915
0.00538713
-0.00314375
0.00570167
-0.00232758
0.00602548
-0.00234151
-0.00159085
0.00253847
-0.00665163
0.00306103
-0.00724245
0.00369269
-0.00778223
0.0041691
-0.00539004
0.00464159
-0.00490731
0.00504559
-0.00386315
0.00543521
-0.00353337
0.00574827
-0.00264064
0.00607297
-0.00266621
-0.00184498
0.0029385
-0.00773165
0.00333065
-0.00763459
0.00385316
-0.00830474
0.00427495
-0.00581184
0.0047096
-0.00534196
0.0050963
-0.00424984
0.00547685
-0.00391392
0.00579263
-0.00295642
0.00612171
-0.00299529
-0.00211415
0.00331247
-0.00845893
0.0035657
-0.00788782
0.00397439
-0.00871343
0.00435186
-0.00618931
0.00475505
-0.00574515
0.00513141
-0.0046262
0.00550836
-0.00429087
0.00583257
-0.00328063
0.00616955
-0.00333228
-0.00240296
0.0435265
-0.00129329
-0.0506922
0.039521
-0.00388233
0.0376365
-0.00682888
0.037717
-0.00626984
0.0379322
-0.00596035
0.038486
-0.00517994
0.0390875
-0.00489244
0.0396791
-0.00387221
0.040177
-0.00383013
-0.00294169
0.0523951
0.00291921
-0.0566076
0.0502962
-0.00178342
0.0478092
-0.00434183
0.0463553
-0.00481601
0.045306
-0.00491099
0.0446521
-0.00452611
0.0441552
-0.00439549
0.0438401
-0.0035571
0.0434201
-0.0034101
-0.00274959
0.0538553
0.00417009
-0.0551062
0.052548
-0.000476109
0.0509203
-0.00271416
0.0495468
-0.00344247
0.0484011
-0.00376532
0.0475086
-0.0036336
0.046689
-0.00357587
0.0460521
-0.00292018
0.0452809
-0.00263896
-0.00219948
0.0519757
0.00407458
-0.0518802
0.051486
1.36194e-05
0.0505688
-0.00179703
0.0495875
-0.0024611
0.0486704
-0.00284823
0.0478958
-0.00285904
0.0471302
-0.00281021
0.0465066
-0.00229657
0.045767
-0.00189937
-0.00160061
0.0499144
0.00344558
-0.0492854
0.0496949
0.00023311
0.0491609
-0.00126309
0.0484987
-0.00179887
0.0478084
-0.00215797
0.0471878
-0.00223838
0.0465566
-0.00217899
0.0460357
-0.00177568
0.0454581
-0.00132182
-0.00109756
0.0482154
0.00269632
-0.0474661
0.0481528
0.000295658
0.0477881
-0.000898362
0.047308
-0.00131882
0.0467662
-0.00161612
0.0462484
-0.00172058
0.0457251
-0.00165566
0.0452941
-0.00134475
0.0448745
-0.000902228
-0.000721654
0.0470081
0.00195601
-0.0462678
0.0470203
0.000283439
0.0467394
-0.000617419
0.0463561
-0.000935515
0.0459004
-0.00116048
0.0454394
-0.00125955
0.0449839
-0.00120015
0.0446114
-0.00097226
0.0443064
-0.000597223
-0.000454376
0.0461945
0.00126554
-0.045504
0.0462622
0.000215715
0.0460309
-0.000386075
0.045697
-0.000601605
0.0452881
-0.000751583
0.044856
-0.000827467
0.0444391
-0.000783297
0.0441005
-0.000633645
0.0438678
-0.000364526
-0.000264234
0.0456983
0.000620256
-0.045053
0.0458017
0.000112331
0.0456028
-0.00018713
0.0452937
-0.00029252
0.0449088
-0.000366679
0.0444913
-0.000410035
0.0440953
-0.000387313
0.0437752
-0.000313483
0.0435831
-0.00017244
-0.0001215
0.0454635
-0.0448433
0.0455759
0.0453887
0.0450962
0.0447295
0.0443195
0.0439322
0.0436187
0.0434463
0.0568124
0.00228823
-0.0560953
0.0573727
0.0028976
0.0577278
0.00348877
0.0578279
0.00405273
0.0576263
0.00458032
0.0570829
0.00506278
0.056166
0.00549242
0.0548458
0.00586315
0.053067
0.00617014
0.00638815
0.051404
0.0016795
-0.0507953
0.0520581
0.00224356
0.0527435
0.0028033
0.0534426
0.00335369
0.0541339
0.00388903
0.0547935
0.00440317
0.0553962
0.00488969
0.0559171
0.00534227
0.056332
0.00575522
0.00611253
0.0480843
0.00120587
-0.0476106
0.0486389
0.00168897
0.0492713
0.00217089
0.0499762
0.00264878
0.0507457
0.00311951
0.0515692
0.00357964
0.0524336
0.00402535
0.0533233
0.00445252
0.0542219
0.00485665
0.00522822
0.0454797
0.000880983
-0.0451548
0.0458846
0.00128404
0.0463702
0.00168533
0.0469364
0.00208263
0.0475822
0.00247368
0.0483057
0.00285616
0.0491033
0.00322768
0.0499701
0.00358576
0.0508991
0.0039276
0.00424717
0.0438879
0.000642956
-0.0436499
0.0441999
0.000972046
0.044586
0.00129924
0.045046
0.00162266
0.0455792
0.00194046
0.0461846
0.00225078
0.0468605
0.00255176
0.0476047
0.00284151
0.0484144
0.00311796
0.00337619
0.0427903
0.000462589
-0.04261
0.0430406
0.000721832
0.0433605
0.000979284
0.0437497
0.00123343
0.0442074
0.00148276
0.0447324
0.0017258
0.0453231
0.00196107
0.0459775
0.00218711
0.0466932
0.0024023
0.00260326
0.0420958
0.000319584
-0.0419528
0.0423056
0.000512057
0.0425818
0.000703098
0.0429236
0.000891549
0.0433301
0.00107628
0.0437998
0.00125615
0.0443308
0.00143004
0.044921
0.00159687
0.0455679
0.00175542
0.0019034
0.0416435
0.000200691
-0.0415246
0.0418274
0.000328159
0.0420758
0.000454655
0.042388
0.000579405
0.0427626
0.000701644
0.0431981
0.00082061
0.0436926
0.000935559
0.0442437
0.00104575
0.0448488
0.0011504
0.00124815
0.0413787
9.65275e-05
-0.0412746
0.0415468
0.000160056
0.0417784
0.000223115
0.0420725
0.000285315
0.0424278
0.000346272
0.0428428
0.000405601
0.0433155
0.000462925
0.0438434
0.000517872
0.0444237
0.000570051
0.000618821
0.0412532
-0.0411567
0.0414133
0.0416364
0.0419217
0.042268
0.0426736
0.0431365
0.0436544
0.0442244
0.0481259
-0.00335889
-0.0475681
0.0488401
-0.00290086
0.0496638
-0.00241293
0.0505569
-0.00189311
0.051492
-0.00134242
0.0524503
-0.000768745
0.0534137
-0.000176567
0.0543608
0.000430442
0.0552653
0.00104756
0.00166904
0.0479927
-0.00341209
-0.0479395
0.048089
-0.00299719
0.048228
-0.00255193
0.0484155
-0.00208066
0.0486577
-0.00158458
0.0489587
-0.00106973
0.049322
-0.000539866
0.0497497
2.70103e-06
0.0502418
0.000555491
0.00111555
0.0468984
-0.00315243
-0.047158
0.046694
-0.00279284
0.0465502
-0.0024081
0.0464722
-0.00200264
0.0464662
-0.00157857
0.0465357
-0.00113929
0.0466832
-0.000687312
0.0469105
-0.000224643
0.0472194
0.000246637
0.000724273
0.0455786
-0.00277578
-0.0459553
0.0452597
-0.00247395
0.0450021
-0.00215047
0.0448092
-0.0018098
0.0446845
-0.00145384
0.0446302
-0.00108501
0.0446483
-0.000705396
0.0447406
-0.000316941
0.0449089
7.83442e-05
0.000478368
0.0446543
-0.0023534
-0.0450767
0.0442856
-0.00210528
0.0439752
-0.00184004
0.0437262
-0.00156075
0.0435413
-0.00126902
0.043423
-0.00096671
0.0433732
-0.000655551
0.0433935
-0.000337239
0.0434853
-1.35168e-05
0.000313825
0.0439825
-0.00190343
-0.0444325
0.0435844
-0.00170719
0.0432421
-0.00149766
0.0429584
-0.00127709
0.0427361
-0.00104672
0.0425773
-0.00080795
0.042484
-0.000562177
0.0424575
-0.00031079
0.0424992
-5.5218e-05
0.000203074
0.0435511
-0.00143834
-0.0440162
0.0431363
-0.0012924
0.0427754
-0.00113678
0.0424713
-0.000972945
0.0422264
-0.000801822
0.0420429
-0.000624427
0.0419225
-0.000441795
0.0418667
-0.000254983
0.0418765
-6.5071e-05
0.000126829
0.0432718
-0.000963102
-0.0437471
0.042846
-0.000866524
0.0424728
-0.000763569
0.042155
-0.000655165
0.0418951
-0.000541919
0.0416951
-0.000424493
0.0415569
-0.000303571
0.0414818
-0.000179858
0.0414708
-5.4079e-05
7.3024e-05
0.0431107
-0.000482377
-0.0435914
0.0426786
-0.000434408
0.0422983
-0.000383275
0.0419725
-0.000329415
0.0417037
-0.000273128
0.041494
-0.000214738
0.041345
-0.000154582
0.0412582
-9.3012e-05
0.0412345
-3.03876e-05
3.2919e-05
0.0430367
-0.0435191
0.0426023
0.0422191
0.0418896
0.0416165
0.0414018
0.0412472
0.0411542
0.0411238
0.0429476
0.00017434
-0.00019299
0.0429918
0.000520391
-0.000564653
0.0430669
0.000871167
-0.000946186
0.0431902
0.00123483
-0.00135819
0.043392
0.00161673
-0.00181851
0.0437158
0.0020211
-0.00234492
0.0442206
0.00245002
-0.00295478
0.0449782
0.00290594
-0.00366358
0.046083
0.00336477
-0.00446957
0.00391611
-0.0054012
0.0429657
0.000137526
0.0430732
0.000412954
0.0432546
0.000689715
0.0435205
0.000968966
0.0438857
0.00125151
0.0443692
0.00153758
0.044993
0.00182621
0.0457815
0.0021175
0.0467504
0.00239583
0.00272706
0.0429666
9.99022e-05
0.0430779
0.000301586
0.0432629
0.000504784
0.0435254
0.000706464
0.0438711
0.000905723
0.0443075
0.00110126
0.0448427
0.00129096
0.0454871
0.00147312
0.0462452
0.00163776
0.0018142
0.0429586
7.02079e-05
0.0430475
0.000212676
0.0431958
0.000356477
0.0434043
0.000498008
0.043674
0.000636058
0.0440059
0.000769326
0.0444006
0.000896231
0.0448582
0.00101556
0.0453736
0.00112231
0.00123258
0.0429506
4.85844e-05
0.0430159
0.000147324
0.0431254
0.000246967
0.0432788
0.00034461
0.0434757
0.000439192
0.0437154
0.000529655
0.0439967
0.000614854
0.0443184
0.000693852
0.0446769
0.000763861
0.000832779
0.0429445
3.30493e-05
0.0429916
0.000100226
0.0430705
0.000167983
0.0431809
0.000234262
0.0433218
0.000298285
0.0434921
0.00035931
0.0436904
0.000416592
0.0439147
0.000469533
0.0441619
0.000516662
0.000562208
0.0429403
2.17191e-05
0.0429746
6.58551e-05
0.0430323
0.00011035
0.0431127
0.000153843
0.0432152
0.00019581
0.0433387
0.000235759
0.0434821
0.00027321
0.0436438
0.000307773
0.0438219
0.000338619
0.000367887
0.0429375
1.3143e-05
0.0429635
3.98382e-05
0.0430071
6.67367e-05
0.043068
9.30279e-05
0.0431454
0.000118397
0.0432386
0.000142551
0.0433466
0.000165213
0.0434682
0.000186156
0.0436019
0.000204946
0.000222671
0.0429359
6.1939e-06
0.0429569
1.8775e-05
0.0429922
3.14411e-05
0.0430414
4.38213e-05
0.0431041
5.5769e-05
0.0431795
6.7148e-05