/*--------------------------------*- C++ -*----------------------------------*\
  =========                 |
  \\      /  F ield         | OpenFOAM: The Open Source CFD Toolbox
   \\    /   O peration     | Website:  https://openfoam.org
    \\  /    A nd           | Version:  6.0
     \\/     M anipulation  |
\*---------------------------------------------------------------------------*/
FoamFile
{
    version     2.0;
    format      ascii;
    class       volVectorField;
    location    "12";
    object      U;
}
// * * * * * * * * * * * * * * * * * * * * * * * * * * * * * * * * * * * * * //

dimensions      [0 1 -1 0 0 0 0];

internalField   nonuniform List<vector> 
2000
(
(-0.0019932 0.00174094 5.922e-20)
(-0.00761139 0.00329905 7.02888e-20)
(-0.0152796 0.00364657 -6.69978e-20)
(-0.0222148 0.00330741 -1.36699e-19)
(-0.0274713 0.00259336 -9.54924e-20)
(-0.0308996 0.00170866 1.27227e-19)
(-0.032601 0.000799618 7.41197e-20)
(-0.0328489 -2.6236e-05 -2.99787e-20)
(-0.0320802 -0.00068895 -7.48606e-20)
(-0.0305959 -0.001124 5.45763e-20)
(-0.00249067 0.00512051 -1.46753e-19)
(-0.00835361 0.00965707 2.02485e-19)
(-0.0156587 0.0106294 2.01842e-20)
(-0.0218806 0.00958369 -1.1728e-19)
(-0.0262116 0.00743653 5.61107e-19)
(-0.0285787 0.00478746 -2.46966e-19)
(-0.0291314 0.00206713 -2.6723e-19)
(-0.0281696 -0.000403928 3.22342e-19)
(-0.0261467 -0.00238169 -3.17983e-19)
(-0.0234422 -0.00367186 1.60329e-19)
(-0.00343405 0.00821859 2.43791e-20)
(-0.00969611 0.0153525 8.63226e-21)
(-0.016202 0.0167613 6.06531e-19)
(-0.0209451 0.0149395 2.12731e-19)
(-0.0233927 0.0113536 4.21595e-20)
(-0.0236237 0.00695938 3.49055e-19)
(-0.021881 0.00244629 -6.63074e-19)
(-0.0185134 -0.0016593 1.43804e-20)
(-0.0140038 -0.00493675 -3.92207e-19)
(-0.00889533 -0.00705949 4.32137e-19)
(-0.0047173 0.0108532 -4.58269e-20)
(-0.0113473 0.0199693 2.63358e-19)
(-0.0164675 0.0215319 -7.67543e-19)
(-0.018856 0.0188565 -9.9281e-20)
(-0.0183922 0.013866 -5.65049e-19)
(-0.0153793 0.00780316 5.85249e-19)
(-0.0101945 0.00156733 -6.20873e-19)
(-0.00324991 -0.0041276 4.36082e-19)
(0.00493656 -0.00866639 1.8333e-19)
(0.0135613 -0.0115859 -2.0728e-19)
(-0.00617204 0.012848 -5.09388e-19)
(-0.0128494 0.0231264 4.54069e-21)
(-0.0157625 0.0245113 9.44857e-19)
(-0.014745 0.0209534 2.8342e-19)
(-0.0102233 0.0146987 -9.01109e-19)
(-0.00279631 0.00717473 5.60323e-19)
(0.00698599 -0.000590396 6.35562e-19)
(0.0186437 -0.0077374 -5.66707e-19)
(0.031635 -0.0134419 4.04197e-19)
(0.0447847 -0.0171017 9.91868e-20)
(-0.00755637 0.0140322 6.96692e-20)
(-0.0135588 0.0244886 1.28891e-20)
(-0.0131205 0.0253722 -1.20711e-18)
(-0.00739537 0.0210221 -6.75633e-19)
(0.00251282 0.0138397 8.06214e-19)
(0.0156351 0.00530423 -9.44359e-19)
(0.0312046 -0.00354975 1.08273e-18)
(0.0486745 -0.0118066 -9.33543e-20)
(0.06752 -0.0184484 -3.04664e-19)
(0.0860785 -0.0227477 -8.86095e-19)
(-0.00854333 0.0142441 -1.51113e-19)
(-0.0126361 0.0237802 -2.75985e-19)
(-0.00729682 0.0239044 -3.39246e-19)
(0.00476582 0.0190367 7.24357e-19)
(0.0216533 0.0115505 1.34447e-18)
(0.0419463 0.00282824 -2.77803e-19)
(0.0645952 -0.00625624 -6.77227e-19)
(0.0889705 -0.0149043 2.06524e-19)
(0.114649 -0.022006 -1.30243e-18)
(0.139404 -0.0267609 1.42988e-18)
(-0.00871717 0.013345 9.23955e-19)
(-0.00906133 0.0208105 -5.03947e-19)
(0.00318799 0.0200229 9.85434e-19)
(0.0236045 0.01513 -1.61057e-18)
(0.0494071 0.00831143 -7.70149e-19)
(0.0786392 0.000733875 -1.06731e-18)
(0.10986 -0.00706896 3.0997e-19)
(0.14228 -0.0146821 -8.65014e-19)
(0.17571 -0.0211304 1.88397e-18)
(0.20746 -0.0257251 5.27872e-19)
(-0.00758882 0.0112495 6.73542e-20)
(-0.00169573 0.0155163 8.20939e-19)
(0.0199369 0.013774 1.63202e-18)
(0.0511306 0.00952417 4.99545e-19)
(0.0881886 0.00465859 1.47852e-18)
(0.128524 0.000144249 8.11507e-20)
(0.170114 -0.00382001 -1.34427e-21)
(0.211746 -0.00727347 5.9695e-19)
(0.25348 -0.00954485 4.8498e-19)
(0.292725 -0.0110521 -1.57134e-18)
(-0.00464605 0.007971 -5.46089e-19)
(0.0105871 0.00802157 -9.15287e-19)
(0.0444743 0.00533241 -1.33205e-18)
(0.089265 0.00236146 3.09937e-20)
(0.140486 0.000668815 -6.8006e-19)
(0.195023 0.00122126 1.07224e-18)
(0.250286 0.00434842 -2.95437e-18)
(0.304322 0.0102803 1.32722e-18)
(0.35647 0.0196297 5.00603e-19)
(0.403968 0.028264 1.57146e-18)
(0.00054757 0.00368071 2.73281e-19)
(0.0286561 -0.00126603 -1.04545e-18)
(0.0777937 -0.00491547 9.34084e-19)
(0.13903 -0.00635278 -3.62806e-19)
(0.207518 -0.00458272 3.94703e-19)
(0.280276 0.0013196 8.60229e-19)
(0.355448 0.0120939 -1.15498e-18)
(0.432602 0.0286897 1.50528e-19)
(0.512686 0.0503942 -5.53874e-19)
(0.597986 0.0672679 1.11919e-18)
(0.00825676 -0.00124405 3.90559e-19)
(0.0529013 -0.0114984 -9.46718e-19)
(0.119895 -0.015983 1.29139e-18)
(0.199405 -0.0159146 -8.05139e-19)
(0.286216 -0.011417 -2.95319e-19)
(0.37725 -0.00235146 1.74899e-19)
(0.470673 0.0111954 9.05583e-20)
(0.56589 0.0289199 1.22835e-18)
(0.662521 0.0481319 3.53825e-19)
(0.758235 0.0601752 1.50813e-18)
(0.0185894 -0.00624132 -3.48174e-19)
(0.0833607 -0.0213216 1.223e-18)
(0.1703 -0.0259008 -1.02201e-18)
(0.268891 -0.0236918 -1.20022e-18)
(0.373435 -0.0161824 1.67945e-18)
(0.480415 -0.00416758 -1.27807e-18)
(0.587409 0.0114232 3.37525e-19)
(0.692836 0.029485 -2.00156e-18)
(0.794896 0.0473573 1.49913e-18)
(0.889584 0.0597287 7.48653e-20)
(0.0315515 -0.0106834 -4.53207e-19)
(0.119833 -0.0291791 -4.38585e-19)
(0.22831 -0.0323804 -9.34931e-19)
(0.346061 -0.0266848 1.13336e-18)
(0.466943 -0.0150266 -5.73893e-20)
(0.586972 0.000895584 7.34205e-19)
(0.703189 0.0194807 1.34026e-18)
(0.813339 0.039236 -4.11839e-19)
(0.915043 0.0580847 -1.45643e-18)
(1.00429 0.0730386 2.89157e-18)
(0.0470721 -0.0139622 -2.33986e-19)
(0.161873 -0.0335701 -2.7929e-19)
(0.292916 -0.0333149 5.03953e-19)
(0.429248 -0.0223675 -9.3757e-19)
(0.564489 -0.00513105 1.59999e-19)
(0.69441 0.0158416 1.42739e-19)
(0.815873 0.0384014 6.25903e-20)
(0.926523 0.0608469 -9.94958e-21)
(1.02416 0.0816892 -1.53567e-19)
(1.10542 0.0993286 -2.4465e-18)
(0.0649909 -0.0155154 9.50011e-19)
(0.208742 -0.0331711 -6.63211e-19)
(0.362674 -0.0269945 8.43582e-21)
(0.516288 -0.00893561 -1.01291e-18)
(0.663317 0.0151657 -3.63176e-19)
(0.799667 0.0419821 3.39332e-19)
(0.922493 0.0689396 2.64095e-19)
(1.0299 0.0942518 -9.41111e-19)
(1.12044 0.116966 7.69864e-19)
(1.19175 0.136281 -1.01027e-18)
(0.0850264 -0.0148317 4.09647e-19)
(0.259372 -0.0268936 -3.64486e-19)
(0.435677 -0.0122029 1.51636e-18)
(0.604516 0.0146176 1.5511e-19)
(0.760218 0.0464078 3.55857e-19)
(0.899313 0.079214 1.58898e-18)
(1.01977 0.110218 -2.42576e-19)
(1.12068 0.137719 2.22331e-19)
(1.20171 0.161323 9.22859e-20)
(1.26181 0.180709 -1.12757e-19)
(0.106746 -0.0114608 2.8598e-19)
(0.312349 -0.0139254 6.88819e-19)
(0.509611 0.0117428 -7.39277e-19)
(0.690912 0.0485226 -2.50921e-19)
(0.851778 0.0881792 -3.10176e-19)
(0.989926 0.126388 4.80358e-19)
(1.10466 0.160356 -2.50403e-19)
(1.19647 0.188712 6.74078e-19)
(1.2664 0.211716 2.27474e-19)
(1.31483 0.229381 -3.70618e-19)
(0.129553 -0.00503969 -3.08272e-19)
(0.365951 0.00622129 2.74366e-19)
(0.581863 0.0449699 -5.86096e-19)
(0.772309 0.09229 2.53147e-19)
(0.934681 0.139284 -2.62915e-19)
(1.06846 0.181638 -3.28653e-19)
(1.17473 0.21694 -2.64605e-19)
(1.25566 0.244436 2.9603e-19)
(1.31378 0.265167 -5.59699e-19)
(1.35091 0.279441 3.38302e-19)
(0.152694 0.00467026 -1.09832e-19)
(0.418211 0.0336545 -2.15239e-19)
(0.64968 0.0870361 1.02516e-19)
(0.845627 0.144778 6.24956e-21)
(1.00598 0.197917 8.52807e-20)
(1.1325 0.242644 1.17365e-19)
(1.22837 0.277338 1.0913e-19)
(1.29757 0.302154 -1.44663e-19)
(1.34404 0.319027 1.23726e-19)
(1.37092 0.328565 -1.93892e-19)
(0.175286 0.0177426 -6.36236e-20)
(0.467027 0.0680531 -2.38918e-20)
(0.71035 0.13693 9.53602e-20)
(0.908091 0.204277 -4.38144e-20)
(1.06332 0.261828 1.17389e-19)
(1.18043 0.30685 -1.51697e-19)
(1.26487 0.338927 3.50965e-20)
(1.32234 0.359372 3.76807e-20)
(1.35806 0.371078 -1.60058e-20)
(1.37624 0.374961 6.03025e-20)
(0.196364 0.0340507 -6.86734e-20)
(0.510287 0.108636 -3.11297e-19)
(0.761374 0.193103 -2.17626e-20)
(0.957413 0.26861 6.51525e-21)
(1.10503 0.328477 -4.07262e-19)
(1.21144 0.371634 5.36039e-20)
(1.2843 0.399237 -4.58282e-20)
(1.33085 0.413923 -1.11481e-19)
(1.35725 0.419534 2.34132e-19)
(1.36855 0.417294 -4.27795e-19)
(0.214938 0.0532429 -3.32811e-20)
(0.546008 0.154164 6.3126e-19)
(0.800637 0.253527 1.01731e-19)
(0.991921 0.335253 -5.57014e-19)
(1.13022 0.395179 -4.53415e-20)
(1.22552 0.43444 -5.37957e-19)
(1.28743 0.456031 3.9576e-19)
(1.32443 0.463973 -1.44894e-19)
(1.34331 0.462987 2.57587e-19)
(1.34966 0.454574 -1.91666e-19)
(0.230055 0.0747341 -2.09664e-19)
(0.572471 0.202968 2.01808e-19)
(0.826536 0.315793 -1.45707e-19)
(1.01064 0.401468 1.09619e-18)
(1.13873 0.459235 5.43129e-19)
(1.22332 0.492866 -1.26706e-19)
(1.27558 0.507335 4.29393e-19)
(1.30481 0.508001 -2.83336e-19)
(1.31811 0.50032 -8.06168e-20)
(1.32138 0.486044 5.28966e-19)
(0.240871 0.0977147 -3.63714e-19)
(0.58834 0.253025 4.65391e-19)
(0.838076 0.377228 -9.1645e-19)
(1.01329 0.464436 1.29695e-19)
(1.13113 0.518043 2.92142e-19)
(1.20609 0.544726 -4.44224e-19)
(1.25044 0.551442 -5.28968e-19)
(1.27391 0.54474 2.35293e-19)
(1.2836 0.530625 -2.8658e-19)
(1.28551 0.511091 3.56553e-19)
(0.246708 0.121177 -9.1794e-20)
(0.592755 0.302049 -4.73762e-19)
(0.834911 0.435034 2.61263e-19)
(1.0003 0.521389 4.45555e-19)
(1.10853 0.569181 -2.66685e-19)
(1.1755 0.588078 -2.01732e-19)
(1.21401 0.586885 -1.23212e-19)
(1.23378 0.573115 -6.07131e-20)
(1.24173 0.553116 8.28958e-21)
(1.24378 0.529143 1.47425e-19)
(0.247111 0.14396 6.96398e-20)
(0.585393 0.347619 -4.05301e-19)
(0.817351 0.48644 6.78634e-19)
(0.972689 0.569741 -4.00832e-19)
(1.07256 0.610492 1.20229e-19)
(1.13354 0.621245 -1.68307e-19)
(1.1684 0.612414 1.8214e-19)
(1.1865 0.592185 4.85217e-20)
(1.1944 0.56702 -3.96884e-20)
(1.19788 0.539527 8.09384e-20)
(0.241899 0.164816 -1.84779e-19)
(0.566502 0.387319 3.63442e-19)
(0.786319 0.528853 -1.45979e-20)
(0.931977 0.607203 -8.26694e-20)
(1.02515 0.640155 -2.06144e-19)
(1.08237 0.642864 2.92972e-20)
(1.11587 0.627037 2.96977e-20)
(1.13429 0.601202 -1.26703e-19)
(1.14376 0.571638 1.44888e-19)
(1.14988 0.54146 1.34313e-19)
(0.231196 0.182489 5.94244e-20)
(0.536892 0.4189 -8.76289e-20)
(0.74327 0.560006 1.05574e-20)
(0.880048 0.631872 5.01948e-20)
(0.968369 0.656684 3.99671e-20)
(1.02413 0.65179 -1.22182e-19)
(1.05862 0.629857 -2.77381e-19)
(1.0796 0.599451 -1.16207e-19)
(1.09277 0.566338 -1.50271e-19)
(1.10314 0.534351 1.22759e-19)
(0.215447 0.195825 9.01223e-20)
(0.497901 0.440452 -1.51007e-19)
(0.690084 0.578126 1.46926e-19)
(0.818943 0.642353 -2.90208e-19)
(0.90411 0.658952 6.90428e-20)
(0.960363 0.646857 4.89116e-19)
(0.99791 0.619286 -1.50626e-19)
(1.02376 0.58454 1.75395e-19)
(1.04326 0.547773 2.60408e-19)
(1.05954 0.514738 9.50539e-19)
(0.195424 0.203886 6.53281e-19)
(0.451351 0.450594 -4.40743e-19)
(0.629021 0.582163 1.08162e-18)
(0.750833 0.638135 -1.84666e-19)
(0.833966 0.646893 9.33753e-19)
(0.891621 0.62809 5.85833e-19)
(0.932847 0.594688 -1.37425e-18)
(0.964074 0.553759 2.09228e-18)
(0.989925 0.507717 -4.43357e-19)
(1.00675 0.460776 8.75481e-19)
(0.172189 0.20602 -3.61753e-19)
(0.399511 0.448525 -2.61172e-19)
(0.562803 0.571801 2.56536e-19)
(0.678392 0.619694 -6.23302e-19)
(0.76014 0.622139 -1.94817e-18)
(0.819172 0.599039 -7.85813e-19)
(0.863147 0.563163 -7.04965e-19)
(0.897545 0.521654 3.44223e-19)
(0.925523 0.478023 2.85382e-18)
(0.942981 0.437217 -5.92883e-19)
(0.147001 0.20185 1.93381e-19)
(0.344968 0.433888 -7.86044e-19)
(0.49457 0.547016 1.72203e-19)
(0.605043 0.587325 -1.25486e-18)
(0.686452 0.585139 2.74375e-18)
(0.747685 0.559983 -3.19394e-19)
(0.794965 0.524072 1.49763e-18)
(0.832788 0.484197 -2.14203e-18)
(0.863688 0.44386 6.73367e-19)
(0.884971 0.407343 1.0449e-19)
(0.121198 0.191267 1.42872e-19)
(0.290347 0.406756 8.65619e-19)
(0.427379 0.508105 -2.54793e-18)
(0.53389 0.541398 1.23823e-18)
(0.615954 0.536095 -2.82228e-21)
(0.680213 0.510671 -4.18061e-19)
(0.731523 0.476434 5.27852e-19)
(0.773544 0.439585 -5.22777e-19)
(0.808459 0.403278 -1.79491e-18)
(0.834523 0.370765 -4.92954e-19)
(0.0961067 0.174427 4.6993e-19)
(0.238172 0.367647 5.27165e-19)
(0.364057 0.455794 2.17504e-18)
(0.467661 0.482659 -1.21042e-18)
(0.551093 0.4756 2.49439e-18)
(0.618834 0.451405 -5.36917e-19)
(0.67448 0.420151 -5.6672e-19)
(0.720959 0.387277 6.7022e-19)
(0.76018 0.355464 4.36783e-19)
(0.791104 0.327051 1.58241e-18)
(0.0729854 0.151745 -4.78175e-19)
(0.190766 0.317517 1.56537e-19)
(0.307145 0.391257 4.26097e-20)
(0.408728 0.412271 1.23571e-18)
(0.493916 0.404674 -3.0839e-18)
(0.565212 0.383002 5.24433e-19)
(0.625087 0.355837 1.15554e-18)
(0.675836 0.32774 -1.39659e-18)
(0.719145 0.300877 4.91773e-19)
(0.754595 0.276846 -2.28191e-18)
(0.0529743 0.123884 1.02016e-19)
(0.150188 0.257734 5.49879e-19)
(0.258843 0.316087 2.1381e-19)
(0.3591 0.331788 2.89935e-19)
(0.446116 0.324704 5.54867e-19)
(0.52069 0.30665 1.65052e-18)
(0.584344 0.284505 -2.02001e-18)
(0.638842 0.261878 -1.13676e-18)
(0.685704 0.240421 1.88281e-19)
(0.725076 0.221161 1.48107e-18)
(0.0370497 0.091732 -6.17217e-19)
(0.118165 0.19003 -7.3143e-20)
(0.220969 0.232242 -6.14079e-19)
(0.320415 0.243092 8.75522e-20)
(0.409056 0.237384 -5.25264e-19)
(0.486343 0.223832 -5.99634e-19)
(0.553054 0.207458 -8.93246e-19)
(0.610547 0.190869 2.40529e-18)
(0.660226 0.175222 4.14441e-19)
(0.702715 0.161128 -6.31901e-19)
(0.0259847 0.0563675 3.32813e-19)
(0.096044 0.11644 4.39625e-19)
(0.194925 0.141978 1.72853e-19)
(0.29392 0.148336 -9.33864e-19)
(0.383769 0.144647 -4.34536e-19)
(0.462985 0.136248 -9.3609e-20)
(0.53184 0.126197 1.82691e-19)
(0.591412 0.116069 1.46711e-19)
(0.643037 0.106548 -1.13274e-18)
(0.687687 0.097949 6.50072e-19)
(0.020315 0.0190148 -1.7334e-19)
(0.0847485 0.039224 -1.97062e-19)
(0.181662 0.0477721 1.56961e-19)
(0.28046 0.0498657 1.39309e-19)
(0.37095 0.0485913 1.42747e-19)
(0.451168 0.0457468 2.18159e-19)
(0.521125 0.0423581 -1.15444e-20)
(0.581761 0.0389527 -2.85917e-19)
(0.634379 0.0357561 2.71326e-19)
(0.680136 0.0328651 -4.0813e-19)
(0.0203149 -0.0190111 -1.74463e-19)
(0.0847482 -0.0392164 -1.87762e-19)
(0.181661 -0.0477627 1.72979e-19)
(0.28046 -0.0498556 3.38511e-19)
(0.370949 -0.0485811 2.2541e-19)
(0.451167 -0.0457368 -2.96945e-19)
(0.521125 -0.0423484 -1.6118e-19)
(0.58176 -0.0389433 7.0369e-20)
(0.634379 -0.0357471 1.57946e-19)
(0.680135 -0.0328564 -9.40185e-20)
(0.0259843 -0.0563639 4.16231e-19)
(0.0960431 -0.116433 -5.28609e-19)
(0.194924 -0.141969 -4.3857e-20)
(0.293919 -0.148326 2.92717e-19)
(0.383768 -0.144637 -1.32259e-18)
(0.462984 -0.136238 5.64877e-19)
(0.531839 -0.126187 5.82667e-19)
(0.591411 -0.11606 -6.87611e-19)
(0.643036 -0.106539 6.56392e-19)
(0.687686 -0.0979403 -2.88326e-19)
(0.037049 -0.0917284 -7.19879e-20)
(0.118164 -0.190023 -9.07277e-21)
(0.220967 -0.232233 -1.4264e-18)
(0.320413 -0.243082 -4.53213e-19)
(0.409054 -0.237374 -4.72585e-20)
(0.486341 -0.223823 -7.45364e-19)
(0.553052 -0.207448 1.3883e-18)
(0.610545 -0.19086 -4.90402e-20)
(0.660224 -0.175213 7.9217e-19)
(0.702713 -0.16112 -6.95798e-19)
(0.0529733 -0.12388 1.2148e-19)
(0.150186 -0.257727 -5.61229e-19)
(0.25884 -0.316078 1.72777e-18)
(0.359097 -0.331778 2.44653e-19)
(0.446113 -0.324694 1.20087e-18)
(0.520688 -0.306641 -1.173e-18)
(0.584341 -0.284496 1.23107e-18)
(0.63884 -0.261869 -8.87802e-19)
(0.685701 -0.240412 -3.90089e-19)
(0.725074 -0.221152 3.30639e-19)
(0.0729842 -0.151742 1.08263e-18)
(0.190764 -0.31751 2.84442e-21)
(0.307141 -0.391248 -1.81787e-18)
(0.408724 -0.412262 -5.26937e-19)
(0.493912 -0.404664 1.75088e-18)
(0.565209 -0.382993 -1.02523e-18)
(0.625084 -0.355828 -1.18662e-18)
(0.675833 -0.327731 1.06772e-18)
(0.719142 -0.300869 -7.26203e-19)
(0.754592 -0.276838 -1.56693e-19)
(0.0961052 -0.174424 -1.6174e-19)
(0.238169 -0.36764 -7.43394e-21)
(0.364053 -0.455785 1.96893e-18)
(0.467657 -0.48265 1.12899e-18)
(0.551089 -0.475591 -1.3308e-18)
(0.61883 -0.451396 1.61186e-18)
(0.674476 -0.420142 -1.74675e-18)
(0.720955 -0.387268 1.74424e-19)
(0.760176 -0.355456 5.20671e-19)
(0.791101 -0.327044 1.20249e-18)
(0.121196 -0.191264 1.83946e-19)
(0.290344 -0.40675 2.95408e-19)
(0.427374 -0.508096 3.20188e-19)
(0.533885 -0.541389 -1.03778e-18)
(0.615949 -0.536086 -1.8463e-18)
(0.680208 -0.510662 3.89037e-19)
(0.731519 -0.476425 1.12777e-18)
(0.773539 -0.439577 -3.22506e-19)
(0.808454 -0.403271 1.93797e-18)
(0.834519 -0.370758 -1.89026e-18)
(0.146999 -0.201847 -1.03988e-18)
(0.344964 -0.433882 3.96385e-19)
(0.494565 -0.547009 -1.07733e-18)
(0.605037 -0.587317 1.74064e-18)
(0.686446 -0.585131 8.70649e-19)
(0.74768 -0.559974 1.2292e-18)
(0.79496 -0.524064 -2.82944e-19)
(0.832783 -0.484189 1.1218e-18)
(0.863683 -0.443853 -2.37334e-18)
(0.884967 -0.407336 -6.19048e-19)
(0.172186 -0.206017 6.34754e-20)
(0.399507 -0.448519 -6.94328e-19)
(0.562797 -0.571794 -1.1036e-18)
(0.678385 -0.619686 -4.71329e-19)
(0.760134 -0.622131 -1.33024e-18)
(0.819165 -0.599031 -1.36922e-19)
(0.863141 -0.563155 1.18236e-19)
(0.897539 -0.521647 -5.1845e-19)
(0.925517 -0.478016 -5.82096e-19)
(0.942976 -0.437211 1.53362e-18)
(0.195422 -0.203884 3.23827e-19)
(0.451346 -0.450589 4.48128e-19)
(0.629015 -0.582156 8.08133e-19)
(0.750826 -0.638127 3.75333e-20)
(0.833959 -0.646885 5.43212e-19)
(0.891614 -0.628082 -7.39904e-19)
(0.93284 -0.594681 2.26473e-18)
(0.964068 -0.553752 -9.98525e-19)
(0.989918 -0.50771 -4.92675e-19)
(1.00674 -0.46077 -1.48775e-18)
(0.215444 -0.195823 -1.26162e-19)
(0.497895 -0.440447 2.10881e-19)
(0.690077 -0.57812 -2.18501e-19)
(0.818935 -0.642346 1.2057e-19)
(0.904103 -0.658945 -1.4321e-19)
(0.960356 -0.64685 -3.69914e-19)
(0.997903 -0.619279 4.85996e-19)
(1.02375 -0.584534 -1.64016e-19)
(1.04325 -0.547767 2.4688e-19)
(1.05954 -0.514733 -5.40251e-19)
(0.231193 -0.182487 4.12133e-22)
(0.536887 -0.418895 -1.26253e-19)
(0.743262 -0.56 4.93823e-20)
(0.88004 -0.631865 1.26359e-19)
(0.96836 -0.656678 -7.20962e-20)
(1.02412 -0.651783 2.15685e-20)
(1.05861 -0.629851 -1.5086e-20)
(1.07959 -0.599445 -3.53501e-19)
(1.09277 -0.566332 -1.69129e-19)
(1.10313 -0.534346 -5.20581e-19)
(0.241897 -0.164814 -1.02843e-19)
(0.566496 -0.387315 3.64149e-19)
(0.786311 -0.528848 -2.32864e-19)
(0.931969 -0.607197 -1.03103e-19)
(1.02514 -0.640149 7.20214e-20)
(1.08236 -0.642858 4.15287e-20)
(1.11586 -0.627031 8.33298e-22)
(1.13429 -0.601196 2.44565e-19)
(1.14375 -0.571633 -2.16907e-19)
(1.14987 -0.541456 -1.49868e-21)
(0.247108 -0.143959 -2.45144e-19)
(0.585387 -0.347615 -1.57138e-19)
(0.817343 -0.486435 -3.88046e-19)
(0.97268 -0.569735 4.42971e-19)
(1.07255 -0.610486 -3.20827e-20)
(1.13353 -0.621239 1.52973e-19)
(1.16839 -0.612409 1.85324e-19)
(1.1865 -0.592181 -6.56053e-20)
(1.19439 -0.567016 1.551e-20)
(1.19787 -0.539523 -8.25526e-20)
(0.246705 -0.121176 -1.65229e-19)
(0.592749 -0.302046 -2.12116e-19)
(0.834903 -0.43503 3.22277e-19)
(1.00029 -0.521384 -4.88492e-19)
(1.10852 -0.569176 8.5531e-20)
(1.17549 -0.588073 4.47656e-20)
(1.214 -0.586881 9.36254e-20)
(1.23377 -0.573111 -6.04818e-20)
(1.24172 -0.553112 -7.60053e-20)
(1.24377 -0.52914 -3.03303e-19)
(0.240869 -0.0977137 6.88675e-19)
(0.588334 -0.253023 -5.3794e-19)
(0.838068 -0.377225 2.47099e-20)
(1.01328 -0.464432 -6.94687e-19)
(1.13112 -0.518038 -2.03774e-19)
(1.20608 -0.544722 1.63774e-19)
(1.25043 -0.551438 1.21023e-19)
(1.2739 -0.544736 -4.0504e-19)
(1.28359 -0.530623 1.87169e-19)
(1.2855 -0.511089 -3.31244e-19)
(0.230053 -0.0747333 3.40463e-19)
(0.572465 -0.202966 -3.36826e-19)
(0.826528 -0.31579 1.21419e-18)
(1.01063 -0.401464 9.79116e-20)
(1.13872 -0.459232 2.7611e-19)
(1.22331 -0.492863 9.94021e-19)
(1.27557 -0.507332 -2.04324e-19)
(1.3048 -0.507999 5.43694e-20)
(1.3181 -0.500318 -2.57001e-20)
(1.32137 -0.486043 -5.21615e-20)
(0.214935 -0.0532423 2.61857e-19)
(0.546002 -0.154162 5.96732e-19)
(0.800629 -0.253525 -6.10129e-19)
(0.991911 -0.335251 -1.86425e-19)
(1.1302 -0.395176 -1.98459e-19)
(1.22551 -0.434437 3.87877e-19)
(1.28742 -0.456028 -1.84103e-19)
(1.32442 -0.463972 4.36425e-19)
(1.34329 -0.462986 1.07319e-19)
(1.34965 -0.454574 -1.88149e-19)
(0.196362 -0.0340503 -2.82949e-19)
(0.510281 -0.108635 2.62813e-19)
(0.761366 -0.193102 -5.4049e-19)
(0.957403 -0.268608 2.26738e-19)
(1.10502 -0.328475 -2.27645e-19)
(1.21143 -0.371632 -2.71527e-19)
(1.28428 -0.399236 -2.11597e-19)
(1.33083 -0.413922 2.33885e-19)
(1.35723 -0.419534 -4.09287e-19)
(1.36854 -0.417295 2.58969e-19)
(0.175284 -0.0177424 -1.05896e-19)
(0.467022 -0.0680524 -2.08197e-19)
(0.710342 -0.136929 9.79746e-20)
(0.90808 -0.204276 7.14611e-21)
(1.06331 -0.261827 7.82457e-20)
(1.18042 -0.306849 1.12402e-19)
(1.26485 -0.338926 9.62576e-20)
(1.32233 -0.359372 -1.30119e-19)
(1.35805 -0.371078 1.06786e-19)
(1.37623 -0.374963 -1.68959e-19)
(0.152692 -0.00467022 -6.67283e-20)
(0.418206 -0.0336542 -2.69031e-20)
(0.649672 -0.0870354 1.00588e-19)
(0.845616 -0.144778 -4.53074e-20)
(1.00597 -0.197917 1.27311e-19)
(1.13249 -0.242643 -1.61102e-19)
(1.22836 -0.277338 4.12454e-20)
(1.29755 -0.302155 3.55708e-20)
(1.34402 -0.319029 -1.29673e-20)
(1.37091 -0.328568 5.88048e-20)
(0.129552 0.00503961 -8.00083e-20)
(0.365947 -0.00622129 -3.39928e-19)
(0.581855 -0.0449697 -2.75248e-20)
(0.772299 -0.0922897 1.09817e-20)
(0.934669 -0.139284 -4.73403e-19)
(1.06844 -0.181638 4.99875e-20)
(1.17471 -0.216941 -5.29633e-20)
(1.25564 -0.244438 -1.44632e-19)
(1.31377 -0.26517 3.21195e-19)
(1.35089 -0.279445 -5.84785e-19)
(0.106745 0.0114606 -4.54003e-20)
(0.312345 0.0139252 7.29334e-19)
(0.509604 -0.0117429 9.75703e-20)
(0.690902 -0.0485228 -6.5985e-19)
(0.851766 -0.0881795 -7.88035e-20)
(0.989911 -0.126389 -7.46261e-19)
(1.10465 -0.160358 5.80928e-19)
(1.19645 -0.188715 -2.36439e-19)
(1.26638 -0.21172 4.47982e-19)
(1.31481 -0.229385 -3.96254e-19)
(0.0850253 0.0148315 -2.56872e-19)
(0.259368 0.0268933 2.99896e-19)
(0.435671 0.0122025 -2.09647e-19)
(0.604507 -0.0146181 1.4492e-18)
(0.760206 -0.0464087 7.68224e-19)
(0.899298 -0.0792156 -2.01451e-19)
(1.01976 -0.11022 7.83568e-19)
(1.12066 -0.137722 -5.13031e-19)
(1.20169 -0.161328 -1.65925e-19)
(1.26179 -0.180715 1.19439e-18)
(0.0649901 0.0155153 -4.75249e-19)
(0.208739 0.0331708 7.10469e-19)
(0.362668 0.0269941 -1.34897e-18)
(0.516279 0.00893491 2.33704e-19)
(0.663306 -0.015167 5.83788e-19)
(0.799652 -0.0419842 -7.33253e-19)
(0.922476 -0.0689428 -1.30081e-18)
(1.02988 -0.0942563 6.97487e-19)
(1.12042 -0.116972 -9.0827e-19)
(1.19173 -0.136288 1.45364e-18)
(0.0470716 0.0139621 -1.17427e-19)
(0.16187 0.0335699 -7.15417e-19)
(0.292911 0.0333146 3.53077e-19)
(0.429241 0.0223668 8.85584e-19)
(0.564479 0.00512964 -4.75601e-19)
(0.694396 -0.0158441 -4.70043e-19)
(0.815856 -0.0384052 -7.98026e-19)
(0.926503 -0.0608523 -3.6589e-19)
(1.02414 -0.0816962 -8.79704e-20)
(1.1054 -0.0993368 1.45182e-18)
(0.0315513 0.0106834 1.97666e-19)
(0.119831 0.0291793 -9.72902e-19)
(0.228307 0.0323805 1.66604e-18)
(0.346055 0.0266844 -9.27683e-19)
(0.466934 0.0150253 6.02323e-19)
(0.586959 -0.000898147 -7.49545e-19)
(0.703172 -0.019485 8.35107e-19)
(0.813319 -0.0392423 7.29686e-19)
(0.915021 -0.0580929 1.5937e-18)
(1.00426 -0.0730481 -2.63474e-18)
(0.0185895 0.00624162 -6.14136e-19)
(0.08336 0.0213223 1.23493e-18)
(0.170297 0.0259016 1.68169e-20)
(0.268885 0.0236922 -4.45182e-19)
(0.373426 0.0161818 -2.36018e-19)
(0.480402 0.00416539 1.89452e-19)
(0.587392 -0.0114275 -1.34535e-18)
(0.692815 -0.0294916 1.03925e-18)
(0.794873 -0.0473663 -1.33952e-18)
(0.88956 -0.0597392 -6.10626e-19)
(0.00825719 0.00124469 1.05804e-18)
(0.0529013 0.0114999 -3.30063e-19)
(0.119893 0.0159849 -6.20611e-19)
(0.199401 0.0159162 1.68605e-18)
(0.286207 0.0114175 -1.65734e-18)
(0.377237 0.00235027 9.26723e-19)
(0.470656 -0.011199 9.87622e-19)
(0.565869 -0.0289263 2.70294e-19)
(0.662497 -0.0481411 2.80929e-19)
(0.758209 -0.0601864 -3.97722e-19)
(0.000548334 -0.00367959 -1.01269e-18)
(0.0286568 0.00126863 9.63664e-19)
(0.0777927 0.00491889 -8.53306e-19)
(0.139026 0.00635612 1.07177e-18)
(0.20751 0.00458508 -3.20178e-19)
(0.280264 -0.00131904 -1.11376e-18)
(0.355431 -0.0120958 3.19348e-19)
(0.432581 -0.0286947 -5.26572e-19)
(0.51266 -0.0504025 -6.23334e-19)
(0.597958 -0.067279 -1.94211e-18)
(-0.00464494 -0.00796925 -1.26712e-18)
(0.0105885 -0.00801757 1.00788e-18)
(0.0444742 -0.0053271 -1.97647e-18)
(0.089262 -0.00235594 3.53666e-19)
(0.14048 -0.000664133 -1.37118e-18)
(0.195012 -0.00121833 -8.23279e-19)
(0.25027 -0.00434803 1.97127e-18)
(0.304301 -0.010283 -2.69688e-18)
(0.356443 -0.0196362 5.19201e-19)
(0.403937 -0.0282746 -8.59347e-19)
(-0.00758739 -0.011247 6.24413e-19)
(-0.00169359 -0.0155106 2.6492e-19)
(0.0199377 -0.0137665 -7.93359e-20)
(0.0511287 -0.00951621 7.51805e-19)
(0.088183 -0.00465137 2.20969e-18)
(0.128514 -0.0001388 7.63451e-19)
(0.1701 0.00382281 7.89492e-19)
(0.211725 0.00727284 -2.7286e-19)
(0.253455 0.0095401 -2.55277e-18)
(0.292694 0.0110426 6.46727e-19)
(-0.00871546 -0.0133417 -1.76671e-19)
(-0.00905862 -0.020803 5.62633e-19)
(0.00318956 -0.0200131 -1.47466e-19)
(0.0236035 -0.0151195 1.04118e-18)
(0.0494028 -0.00830168 -2.40765e-18)
(0.0786307 -0.000726013 2.04831e-19)
(0.109847 0.0070739 -1.1474e-18)
(0.142262 0.0146832 1.69025e-18)
(0.175686 0.0211268 -4.93704e-19)
(0.207432 0.0257162 -7.06049e-20)
(-0.00854145 -0.0142399 -1.20219e-19)
(-0.012633 -0.0237709 -6.76529e-19)
(-0.00729463 -0.0238923 1.70304e-18)
(0.00476577 -0.0190238 -8.97755e-19)
(0.0216502 -0.0115383 6.28556e-20)
(0.0419394 -0.00281813 2.88243e-19)
(0.0645841 0.00626313 -2.64131e-19)
(0.0889548 0.014907 3.42845e-19)
(0.114629 0.0220034 1.18957e-18)
(0.139379 0.0267525 3.11655e-19)
(-0.00755445 -0.0140271 -2.70135e-19)
(-0.0135556 -0.0244775 -3.00579e-19)
(-0.013118 -0.0253579 -1.33403e-18)
(-0.00739473 -0.0210068 7.10652e-19)
(0.00251075 -0.0138252 -1.46622e-18)
(0.0156298 -0.00529206 3.33025e-19)
(0.0311956 0.00355841 3.74643e-19)
(0.0486614 0.0118106 -3.96503e-19)
(0.0675027 0.018447 -2.56723e-19)
(0.0860568 0.02274 -1.15318e-18)
(-0.00617021 -0.0128421 2.11348e-19)
(-0.0128462 -0.0231136 -4.97965e-20)
(-0.0157598 -0.0244949 8.87042e-22)
(-0.014744 -0.020936 -6.41772e-19)
(-0.0102245 -0.0146823 1.62461e-18)
(-0.00280023 -0.00716074 -2.53455e-19)
(0.00697894 0.000600644 -6.32817e-19)
(0.0186333 0.00774278 7.74641e-19)
(0.031621 0.0134415 -2.72398e-19)
(0.0447669 0.0170947 1.50529e-18)
(-0.0047157 -0.0108465 -3.9698e-20)
(-0.0113445 -0.0199551 -2.32656e-19)
(-0.016465 -0.0215139 -9.18234e-20)
(-0.0188548 -0.0188374 -1.17338e-19)
(-0.0183928 -0.0138479 -2.5218e-19)
(-0.015382 -0.00778763 -7.92129e-19)
(-0.0101997 -0.00155574 9.90998e-19)
(-0.0032578 0.00413411 5.79127e-19)
(0.00492588 0.0086669 -1.03675e-19)
(0.0135475 0.0115797 -9.23283e-19)
(-0.00343281 -0.00821136 2.25522e-19)
(-0.00969391 -0.0153372 3.93322e-20)
(-0.0162 -0.0167419 2.6651e-19)
(-0.0209439 -0.014919 -3.0574e-20)
(-0.0233928 -0.0113341 2.42665e-19)
(-0.0236254 -0.00694265 2.73866e-19)
(-0.0218845 -0.00243364 4.10748e-19)
(-0.0185188 0.00166672 -1.16364e-18)
(-0.0140113 0.00493803 -2.14846e-19)
(-0.008905 0.00705389 3.84938e-19)
(-0.00248987 -0.00511289 -1.13927e-19)
(-0.00835219 -0.00964098 -1.61849e-19)
(-0.0156574 -0.0106091 -7.77898e-20)
(-0.0218798 -0.00956225 3.8064e-19)
(-0.0262114 -0.00741617 1.84751e-19)
(-0.0285795 -0.0047699 3.78985e-20)
(-0.0291332 -0.00205374 -8.21526e-20)
(-0.0281727 0.000412009 -6.37523e-20)
(-0.026151 0.00238356 5.47298e-19)
(-0.0234479 0.00366675 -3.72652e-19)
(-0.00199292 -0.00173316 5.80877e-20)
(-0.00761089 -0.0032826 7.22327e-20)
(-0.0152791 -0.00362585 -6.15703e-20)
(-0.0222144 -0.00328552 -5.63101e-20)
(-0.0274711 -0.00257258 -5.8386e-20)
(-0.0308997 -0.00169072 -9.31794e-20)
(-0.0326015 -0.00078588 2.98374e-21)
(-0.0328498 3.46567e-05 1.29303e-19)
(-0.0320815 0.000691161 -1.29859e-19)
(-0.0305978 0.00111919 2.36244e-19)
(-0.00577384 -0.00277419 1.7166e-20)
(0.0684984 -0.00686373 1.06069e-20)
(0.287928 -0.00695148 1.489e-21)
(0.39583 -0.00471042 -1.00952e-21)
(0.509825 -0.00415048 -7.58735e-23)
(0.599658 -0.00325899 1.68412e-22)
(0.668702 -0.00302123 1.26455e-22)
(0.74566 -0.00234246 -5.06207e-25)
(0.779367 -0.00238131 -9.79642e-24)
(0.858186 -0.00168211 4.41592e-22)
(0.0112429 -0.00854987 2.69705e-20)
(0.0839751 -0.0203157 9.71155e-22)
(0.299617 -0.0207498 -1.90262e-20)
(0.404787 -0.0142198 1.59579e-20)
(0.516649 -0.012574 1.00785e-21)
(0.604902 -0.00982128 -6.27613e-22)
(0.672837 -0.00894392 5.6448e-22)
(0.748657 -0.00681323 -5.52253e-23)
(0.781827 -0.0068287 -2.81646e-22)
(0.859643 -0.00482746 -4.01525e-22)
(0.044949 -0.0152135 2.80131e-20)
(0.11443 -0.033281 -3.79683e-20)
(0.32255 -0.0340803 1.93244e-20)
(0.422365 -0.0234128 -1.33454e-20)
(0.530028 -0.0207472 9.4087e-22)
(0.615174 -0.016206 -7.12146e-22)
(0.680925 -0.0147206 -1.8401e-22)
(0.754516 -0.0111783 -6.06518e-23)
(0.786632 -0.0111814 2.05511e-22)
(0.862484 -0.00791241 -5.8039e-22)
(0.0946977 -0.0232457 -4.27847e-20)
(0.158887 -0.0454567 -5.21669e-20)
(0.355841 -0.0466519 -2.47942e-20)
(0.447904 -0.0320958 1.35698e-20)
(0.549471 -0.0285163 -1.65435e-20)
(0.63013 -0.0223039 4.28123e-21)
(0.692725 -0.0202612 -1.56086e-22)
(0.76309 -0.0153725 -9.636e-23)
(0.793686 -0.0153803 1.87459e-22)
(0.866679 -0.0108988 2.19546e-22)
(0.159494 -0.032917 1.19368e-19)
(0.215948 -0.0565516 7.69674e-20)
(0.398225 -0.0581951 2.79923e-20)
(0.480449 -0.0400974 -2.69395e-20)
(0.574257 -0.0357443 1.35949e-20)
(0.649245 -0.0280181 3.57605e-21)
(0.707842 -0.025485 1.89711e-21)
(0.774116 -0.0193372 -8.49551e-23)
(0.80279 -0.0193713 -5.25257e-22)
(0.872119 -0.0137515 -1.13396e-21)
(0.237982 -0.0441467 -5.32077e-20)
(0.283856 -0.0662455 3.96301e-20)
(0.448136 -0.0684496 5.01669e-21)
(0.518833 -0.0472652 3.02898e-20)
(0.60351 -0.0423139 -6.81817e-21)
(0.671883 -0.0332664 -4.13747e-21)
(0.725808 -0.0303232 -1.95949e-21)
(0.787284 -0.0230225 3.38504e-22)
(0.813714 -0.0231066 1.66723e-22)
(0.878689 -0.0164392 1.2662e-21)
(0.328453 -0.0566419 -3.98239e-20)
(0.360563 -0.0742678 -1.06089e-19)
(0.503799 -0.0772058 -1.84885e-20)
(0.56173 -0.0534748 -1.65144e-20)
(0.636242 -0.0481326 8.05329e-21)
(0.697323 -0.0379835 -2.09055e-21)
(0.746081 -0.0347213 2.53798e-21)
(0.802231 -0.0263883 1.01809e-22)
(0.826185 -0.0265471 5.98764e-23)
(0.886245 -0.0189344 4.79194e-22)