/*--------------------------------*- C++ -*----------------------------------*\
  =========                 |
  \\      /  F ield         | OpenFOAM: The Open Source CFD Toolbox
   \\    /   O peration     | Website:  https://openfoam.org
    \\  /    A nd           | Version:  6.0
     \\/     M anipulation  |
\*---------------------------------------------------------------------------*/
FoamFile
{
    version     2.0;
    format      ascii;
    class       volScalarField;
    location    "13";
    object      p;
}
// * * * * * * * * * * * * * * * * * * * * * * * * * * * * * * * * * * * * * //

dimensions      [0 2 -2 0 0 0 0];

internalField   nonuniform List<scalar> 
62000
(
0.0826756
0.083263
0.0838781
0.0844848
0.0850677
0.0856424
0.0861668
0.0866606
0.0870835
0.0874553
0.0877364
0.0879479
0.0880534
0.0880748
0.0879815
0.0877942
0.087489
0.0870839
0.0865598
0.0859312
0.0851813
0.0843209
0.0833322
0.0822222
0.0809696
0.0795764
0.0780187
0.0762966
0.0743881
0.0722955
0.0700001
0.0674918
0.0647743
0.0618615
0.0587883
0.0556114
0.0524248
0.0493605
0.0466068
0.0444057
0.0430776
0.0430049
0.044646
0.0485377
0.0553974
0.0658185
0.0800127
0.0970369
0.114519
0.128501
0.13502
0.132443
0.122818
0.110198
0.0990258
0.0885381
0.077796
0.0621586
0.0409943
0.0992571
0.0822253
0.0827149
0.0832376
0.0837436
0.0842289
0.0847166
0.0851725
0.0856197
0.086025
0.0864093
0.0867366
0.0870262
0.0872409
0.0873974
0.0874601
0.0874428
0.0873145
0.0870853
0.0867302
0.086256
0.0856434
0.0848957
0.0839976
0.0829485
0.0817346
0.0803488
0.0787768
0.0770086
0.0750358
0.0728578
0.0704695
0.0678675
0.0650498
0.0620383
0.05887
0.0556119
0.0523584
0.0492468
0.0464596
0.0442375
0.0428889
0.0427906
0.0443866
0.0482159
0.0550278
0.0655067
0.080035
0.0979055
0.116966
0.133265
0.1425
0.142365
0.134308
0.122216
0.110979
0.10032
0.08951
0.0727408
0.0525055
-0.0109783
0.0737147
0.0739619
0.0742456
0.0745684
0.0749155
0.0753165
0.0757392
0.0762078
0.0766885
0.077202
0.0777079
0.0782255
0.07871
0.0791779
0.0795834
0.0799393
0.0802023
0.0803807
0.0804362
0.0803723
0.0801587
0.0797946
0.079258
0.0785452
0.0776412
0.0765373
0.0752213
0.0736821
0.0719183
0.069934
0.0677388
0.0653286
0.0627117
0.0599092
0.056964
0.0539438
0.0509425
0.0480879
0.0455484
0.0435401
0.0423399
0.0422813
0.0437492
0.0472298
0.0534516
0.0631299
0.0767695
0.0938979
0.112644
0.1292
0.139076
0.139295
0.13042
0.115798
0.100518
0.085965
0.0731972
0.0577663
0.0379668
-0.00110764
0.06162
0.0614777
0.0613601
0.061295
0.0612862
0.0613642
0.0615201
0.0617797
0.0621273
0.062583
0.0631192
0.0637497
0.0644362
0.0651859
0.0659536
0.0667403
0.0674983
0.0682232
0.068868
0.0694245
0.0698508
0.0701357
0.0702458
0.0701694
0.0698829
0.0693735
0.0686235
0.0676197
0.0663593
0.0648541
0.0631113
0.0611408
0.0589505
0.0565666
0.0540356
0.0514268
0.0488304
0.0463651
0.0441816
0.0424701
0.0414715
0.0414698
0.0427784
0.0458199
0.0512915
0.0599362
0.072397
0.0884948
0.106765
0.123727
0.134912
0.136763
0.128839
0.113616
0.0958861
0.0782028
0.0633704
0.0485675
0.0295124
-0.00692043
0.0502043
0.0498631
0.049505
0.0491576
0.0488218
0.048531
0.0482828
0.048114
0.048023
0.0480471
0.0481771
0.0484465
0.0488348
0.0493661
0.0500079
0.0507719
0.0516157
0.0525375
0.0534878
0.0544532
0.0553826
0.0562541
0.0570211
0.0576584
0.0581289
0.0584057
0.0584598
0.058265
0.0578104
0.0570959
0.0561314
0.0549145
0.0534555
0.0517776
0.0499256
0.0479647
0.0459775
0.0440697
0.0423726
0.041049
0.0403059
0.0403775
0.041508
0.0440495
0.0486544
0.0560787
0.0671003
0.0818596
0.0993845
0.116699
0.129615
0.134258
0.12926
0.115963
0.098378
0.0792727
0.0625361
0.0465211
0.025779
-0.0115498
0.0424451
0.0420743
0.0416578
0.041202
0.040708
0.040194
0.0396567
0.0391234
0.0385961
0.0381108
0.0376722
0.0373219
0.0370632
0.0369376
0.0369421
0.0371101
0.0374278
0.0379134
0.0385388
0.0393034
0.0401671
0.0411116
0.0420901
0.0430729
0.0440141
0.0448764
0.045616
0.0461925
0.0465768
0.0467573
0.0467201
0.046456
0.0459574
0.0452361
0.0443242
0.0432722
0.0421442
0.0410227
0.040009
0.0392296
0.0388475
0.0390367
0.039962
0.041885
0.0453744
0.0511552
0.06009
0.0726001
0.0882126
0.104561
0.117969
0.124567
0.122358
0.111658
0.0954554
0.0760721
0.0579185
0.0408012
0.0179301
-0.020047
0.0365344
0.0362814
0.0359873
0.0356468
0.0352516
0.0348115
0.0343086
0.0337586
0.0331477
0.0325005
0.0318089
0.0311094
0.0304016
0.0297332
0.0291113
0.0285884
0.0281737
0.0279144
0.0278126
0.0278992
0.0281636
0.0286137
0.0292244
0.0299824
0.0308527
0.0318023
0.0327876
0.0337606
0.0346842
0.0355279
0.0362683
0.0368702
0.0373098
0.0375776
0.0376838
0.0376535
0.037521
0.037333
0.0371481
0.0370417
0.0371166
0.0374678
0.0381634
0.03935
0.0414731
0.0451743
0.0513322
0.0605655
0.0728389
0.0864184
0.098288
0.104901
0.10401
0.0951729
0.0805072
0.0617388
0.0436104
0.0274243
0.00449888
-0.0304876
0.0318825
0.0317539
0.0315962
0.0313954
0.03115
0.030864
0.0305204
0.0301245
0.0296565
0.0291245
0.0285087
0.0278251
0.0270601
0.0262429
0.0253729
0.024494
0.0236197
0.0228042
0.0220684
0.0214653
0.0210144
0.0207554
0.0206965
0.0208569
0.0212306
0.0218094
0.0225678
0.0234708
0.024485
0.0255829
0.0267279
0.0278785
0.0289916
0.0300383
0.0310045
0.0318861
0.0326822
0.0333973
0.0340386
0.0346215
0.0351756
0.0357028
0.0361629
0.0365751
0.0372388
0.0386796
0.0417272
0.0471083
0.0551195
0.0645988
0.073242
0.0780267
0.0768163
0.068822
0.0555133
0.0381004
0.021534
0.00860368
-0.0116923
-0.041444
0.0274902
0.0274779
0.0274496
0.0273909
0.0273006
0.0271869
0.0270321
0.0268439
0.0265991
0.0263034
0.0259276
0.0254783
0.0249259
0.0242839
0.0235316
0.0226959
0.0217732
0.0208066
0.0198116
0.0188435
0.0179322
0.0171353
0.016486
0.0160332
0.0158036
0.0158214
0.0160928
0.0166087
0.0173591
0.0183281
0.0194934
0.0208094
0.0222303
0.023715
0.0252314
0.0267508
0.0282405
0.0296643
0.03098
0.032143
0.0331084
0.0337836
0.0340221
0.0337214
0.0330362
0.0323649
0.0324477
0.0340358
0.0376424
0.042577
0.0472
0.0491092
0.0465095
0.0385443
0.0263586
0.0108194
-0.00295355
-0.0112154
-0.0277391
-0.05192
0.0236436
0.0237291
0.0238008
0.0238404
0.0238544
0.0238515
0.0238222
0.023776
0.0236969
0.0235912
0.0234342
0.0232281
0.0229419
0.0225769
0.0221028
0.0215271
0.0208297
0.0200319
0.0191319
0.0181689
0.0171636
0.0161704
0.015228
0.0143984
0.0137283
0.0132683
0.0130528
0.0131035
0.0134376
0.0140681
0.0149883
0.0161715
0.017577
0.0191648
0.0208954
0.0227265
0.0246025
0.0264573
0.028208
0.029762
0.031007
0.0317715
0.0318148
0.0309381
0.0291622
0.0267759
0.0243965
0.0227521
0.0224472
0.0231394
0.0237488
0.0224744
0.0179822
0.00959276
-0.00170692
-0.0152609
-0.0259155
-0.0293171
-0.0421077
-0.061642
0.0198865
0.0200612
0.0202267
0.0203638
0.0204771
0.020579
0.0206593
0.0207329
0.0207852
0.0208296
0.0208437
0.0208364
0.0207772
0.0206704
0.0204807
0.0202109
0.0198284
0.0193406
0.0187274
0.0180089
0.0171868
0.0162992
0.015374
0.0144676
0.0136295
0.0129195
0.0123891
0.0120804
0.0120372
0.0122948
0.0128759
0.0137707
0.0149573
0.0164054
0.0180804
0.0199367
0.0219099
0.0239154
0.0258474
0.0275774
0.0289484
0.0297255
0.029606
0.028315
0.0257749
0.0221714
0.0180055
0.0139273
0.010551
0.00775988
0.00490079
0.000697495
-0.00571472
-0.0147719
-0.0254649
-0.0372552
-0.0450093
-0.0442638
-0.0543645
-0.0706681
0.0164866
0.0167508
0.0170035
0.0172216
0.0174137
0.0175906
0.0177468
0.0178972
0.018033
0.0181689
0.0182901
0.0184083
0.0185009
0.0185748
0.0186006
0.0185801
0.0184805
0.0183016
0.0180139
0.0176226
0.0171124
0.0165024
0.0158022
0.0150523
0.0142905
0.0135717
0.0129473
0.0124684
0.0121905
0.0121698
0.0124452
0.0130311
0.013923
0.0151067
0.0165598
0.0182431
0.0200948
0.0220254
0.0239211
0.025636
0.0269879
0.0277047
0.0274483
0.0258997
0.022906
0.0185761
0.0132895
0.00760692
0.00207087
-0.00331467
-0.00890442
-0.0155632
-0.0237298
-0.0335374
-0.0439356
-0.0544577
-0.0600891
-0.0563598
-0.0648335
-0.0792721
0.0130821
0.0134258
0.0137624
0.0140675
0.0143465
0.0146113
0.0148535
0.01509
0.0153103
0.015533
0.0157434
0.015959
0.0161602
0.0163613
0.0165373
0.0166964
0.0168088
0.0168767
0.016868
0.0167825
0.0165948
0.0163099
0.015921
0.0154501
0.0149185
0.0143657
0.0138335
0.0133669
0.0130242
0.0128653
0.0129441
0.0132863
0.0139039
0.0148
0.0159642
0.0173729
0.0189707
0.0206775
0.022381
0.0239372
0.0251543
0.0257495
0.0253742
0.0236914
0.0204991
0.0158416
0.00999521
0.00341048
-0.00347794
-0.0106215
-0.0181917
-0.0267513
-0.0363958
-0.0470133
-0.057446
-0.0672671
-0.0715595
-0.0660585
-0.074032
-0.0876881
0.00992578
0.0103533
0.0107717
0.011153
0.0115059
0.0118402
0.0121505
0.0124518
0.0127366
0.0130218
0.0132965
0.0135781
0.013852
0.0141343
0.0144067
0.0146812
0.0149353
0.0151744
0.0153709
0.015524
0.0156062
0.0156152
0.0155335
0.0153693
0.015127
0.0148302
0.0145039
0.0141818
0.0139119
0.0137533
0.0137577
0.0139589
0.0143774
0.0150269
0.0159118
0.0170209
0.0183131
0.0197206
0.0211443
0.0224512
0.023457
0.0238863
0.023401
0.0216681
0.0184517
0.0137521
0.00774477
0.000783107
-0.00684325
-0.0150924
-0.0240421
-0.0340505
-0.0449482
-0.056392
-0.0671642
-0.0768633
-0.0806832
-0.0744524
-0.082585
-0.0962239
0.00673966
0.00723409
0.00772443
0.00818246
0.00861327
0.00902804
0.00941769
0.00979847
0.0101596
0.0105197
0.0108653
0.0112164
0.0115575
0.0119089
0.0122538
0.0126101
0.012959
0.0133127
0.0136482
0.0139695
0.014251
0.0144898
0.0146644
0.0147743
0.0148132
0.0147897
0.0147144
0.0146049
0.0144972
0.0144375
0.0144749
0.0146357
0.0149458
0.015422
0.0160802
0.0169186
0.0179114
0.019004
0.0201167
0.0211329
0.0218871
0.0221232
0.0215304
0.0197901
0.0166512
0.012073
0.00615271
-0.000859269
-0.0088124
-0.0177065
-0.0275851
-0.0386775
-0.0506277
-0.062942
-0.0743159
-0.0843529
-0.0882712
-0.082069
-0.0909439
-0.105053
0.00373098
0.00430183
0.00486671
0.00539468
0.00589368
0.00637335
0.00682723
0.00726988
0.00769258
0.00811181
0.00851628
0.00892348
0.00932045
0.00972591
0.0101264
0.0105404
0.010954
0.0113824
0.0118083
0.0122403
0.0126574
0.0130592
0.0134251
0.0137519
0.0140269
0.01425
0.014419
0.014539
0.0146303
0.0147292
0.0148682
0.0150708
0.0153534
0.0157361
0.0162361
0.0168617
0.0175958
0.0184002
0.0192109
0.0199347
0.020425
0.0204582
0.0197524
0.0180191
0.0149901
0.0106046
0.0048772
-0.00201506
-0.0100716
-0.0193435
-0.0298854
-0.0418494
-0.0547477
-0.0679515
-0.0801265
-0.0908702
-0.095401
-0.0897188
-0.099542
-0.11436
0.000684807
0.00131187
0.00193853
0.0025336
0.00310213
0.00365468
0.00418191
0.00469912
0.00519481
0.00568644
0.00615982
0.0066337
0.00709283
0.00755758
0.00801329
0.0084808
0.00894707
0.00943103
0.00991881
0.0104235
0.0109294
0.01144
0.0119383
0.0124219
0.0128772
0.013299
0.0136783
0.0140089
0.014301
0.0145752
0.0148554
0.0151498
0.0154683
0.0158252
0.0162367
0.0167147
0.0172486
0.0178123
0.0183572
0.0188105
0.0190478
0.0188777
0.0180535
0.0163145
0.0133875
0.0091873
0.0036683
-0.00306597
-0.0111397
-0.0206606
-0.031714
-0.0444107
-0.0581782
-0.0723151
-0.0854337
-0.0971065
-0.102456
-0.097554
-0.108567
-0.124162
-0.00221364
-0.00151799
-0.000825022
-0.000168004
0.000460861
0.00107109
0.00165604
0.00222972
0.00278285
0.00333077
0.00386142
0.00439067
0.00490498
0.00542174
0.00592799
0.00644246
0.00695432
0.0074824
0.00801608
0.0085707
0.009135
0.00971639
0.0103021
0.0108926
0.0114759
0.0120461
0.0125901
0.0130966
0.0135656
0.01401
0.0144399
0.0148527
0.0152476
0.0156292
0.0160109
0.0164023
0.0167974
0.017176
0.0175036
0.0177225
0.0177307
0.0173652
0.0164154
0.014645
0.0117792
0.00771284
0.00234627
-0.00427205
-0.0123783
-0.0221297
-0.0336598
-0.0470559
-0.061684
-0.0767708
-0.0909209
-0.103675
-0.110044
-0.106036
-0.118198
-0.134531
-0.00514409
-0.00440552
-0.00366326
-0.00295075
-0.00226291
-0.00158928
-0.000939307
-0.000298188
0.000322056
0.00093796
0.00153442
0.00212873
0.00270452
0.00328055
0.00384139
0.00440691
0.00496501
0.0055359
0.0061096
0.00670377
0.00731001
0.00793905
0.0085822
0.00924328
0.00991337
0.0105876
0.0112534
0.0118953
0.0125105
0.0131031
0.0136755
0.0142135
0.0147047
0.0151448
0.0155399
0.0158963
0.0162071
0.016456
0.0166163
0.016643
0.016451
0.0159036
0.0148209
0.0129875
0.0101286
0.00611878
0.000817486
-0.00577701
-0.0139843
-0.0240062
-0.0360213
-0.0501069
-0.0655876
-0.0816599
-0.096891
-0.110778
-0.118145
-0.115042
-0.128413
-0.145413
-0.00802004
-0.00721397
-0.00640656
-0.00563349
-0.00488704
-0.00415791
-0.00345266
-0.00275781
-0.00208284
-0.00141321
-0.000761549
-0.000113319
0.000517062
0.0011453
0.00175744
0.00237063
0.0029739
0.00358589
0.00419776
0.00482725
0.00546804
0.00613284
0.00681596
0.0075245
0.00825253
0.00899816
0.00974937
0.0104923
0.0112205
0.0119364
0.0126339
0.0132908
0.0138842
0.0144005
0.0148383
0.015198
0.0154693
0.0156363
0.0156762
0.0155516
0.0151899
0.0144755
0.0132532
0.011324
0.00841073
0.00437229
-0.000970707
-0.00765387
-0.0160641
-0.0264359
-0.0389989
-0.0538209
-0.0701896
-0.087258
-0.103591
-0.118644
-0.127057
-0.124829
-0.139271
-0.156853
-0.010965
-0.0101068
-0.0092427
-0.00840936
-0.00760092
-0.00680791
-0.00603889
-0.00527971
-0.00454177
-0.00380911
-0.00309661
-0.00238796
-0.00169986
-0.00101494
-0.000349449
0.000314808
0.000965113
0.00162071
0.00227192
0.00293724
0.00361091
0.00430707
0.00502206
0.00576537
0.00653416
0.0073289
0.00814074
0.00895618
0.00977087
0.0105838
0.0113863
0.0121488
0.0128407
0.0134402
0.0139381
0.0143277
0.0145938
0.0147176
0.0146768
0.0144376
0.0139346
0.0130686
0.0117023
0.00964712
0.00662238
0.00247297
-0.00301392
-0.00989957
-0.0186186
-0.029428
-0.0425983
-0.0581923
-0.0754681
-0.0935619
-0.111003
-0.1272
-0.136554
-0.135143
-0.150675
-0.168767
-0.013735
-0.0128386
-0.0119353
-0.0110619
-0.0102126
-0.00937727
-0.00856424
-0.00775926
-0.00697353
-0.00619192
-0.00542865
-0.00466901
-0.00392897
-0.00319312
-0.002477
-0.00176422
-0.00106705
-0.000367553
0.000324647
0.00102746
0.00173545
0.00246317
0.00320804
0.0039813
0.00478208
0.00561367
0.00646909
0.00733827
0.00821684
0.00910571
0.00999333
0.0108465
0.0116288
0.0123113
0.0128777
0.0133139
0.0135986
0.0137085
0.0136186
0.013295
0.0126753
0.0116712
0.0101571
0.0079493
0.004761
0.000425924
-0.00530171
-0.0124978
-0.0216319
-0.0329718
-0.0468311
-0.0632632
-0.0814934
-0.100623
-0.11917
-0.136506
-0.146812
-0.146168
-0.162669
-0.181179
-0.0164406
-0.0155164
-0.0145826
-0.0136767
-0.0127931
-0.0119215
-0.0110709
-0.0102265
-0.00940038
-0.00857627
-0.00776975
-0.00696484
-0.00617901
-0.00539577
-0.00463239
-0.00387203
-0.00312847
-0.00238388
-0.00164897
-0.000906155
-0.000161174
0.000600372
0.00137649
0.00217906
0.0030089
0.00387078
0.00476079
0.00567016
0.0065983
0.00754621
0.00850291
0.00943334
0.0102966
0.0110585
0.0116961
0.0121883
0.0125074
0.0126243
0.0125093
0.0121253
0.0114093
0.0102792
0.0086154
0.00623396
0.002841
-0.00174124
-0.00778887
-0.0153863
-0.0250252
-0.0369763
-0.0515842
-0.0688954
-0.0881058
-0.108299
-0.12795
-0.146394
-0.157544
-0.157623
-0.17514
-0.19397
-0.0191432
-0.0181883
-0.0172238
-0.016287
-0.0153721
-0.014468
-0.0135833
-0.012703
-0.0118388
-0.0109752
-0.010127
-0.00927953
-0.00844944
-0.00762167
-0.00681274
-0.00600704
-0.00521793
-0.00442865
-0.00365008
-0.00286553
-0.0020811
-0.0012829
-0.000473111
0.000360516
0.00121933
0.00210986
0.00302947
0.00397298
0.0049407
0.00593717
0.00695191
0.00794867
0.00888431
0.00972025
0.0104281
0.0109805
0.0113434
0.0114811
0.0113577
0.0109309
0.0101343
0.00888758
0.0070719
0.00449968
0.000868225
-0.0040125
-0.0104482
-0.0185254
-0.0287498
-0.0413872
-0.0568147
-0.0750666
-0.095305
-0.116576
-0.137332
-0.156883
-0.168904
-0.169684
-0.188124
-0.207152
-0.0219178
-0.0209279
-0.0199275
-0.0189543
-0.0180029
-0.0170618
-0.0161398
-0.0152215
-0.0143187
-0.0134149
-0.0125258
-0.0116353
-0.0107614
-0.00988779
-0.00903247
-0.00817932
-0.00734286
-0.00650642
-0.00568182
-0.00485281
-0.00402604
-0.00318826
-0.00234174
-0.00147451
-0.000584531
0.000335206
0.00128443
0.00225887
0.00326274
0.00430163
0.00536658
0.0064222
0.00742317
0.0083279
0.00910372
0.00971762
0.0101295
0.0102969
0.010177
0.00972041
0.00885517
0.00749981
0.00553217
0.00275779
-0.00113588
-0.00635261
-0.0132267
-0.0218421
-0.0327138
-0.0460963
-0.0623887
-0.0816154
-0.102908
-0.125288
-0.147153
-0.167793
-0.180604
-0.182076
-0.201497
-0.220603
-0.0247683
-0.0237356
-0.0226925
-0.0216773
-0.0206845
-0.0197023
-0.0187391
-0.0177793
-0.0168342
-0.0158879
-0.0149549
-0.0140205
-0.0131012
-0.0121822
-0.0112803
-0.0103806
-0.00949688
-0.00861341
-0.00774203
-0.00686731
-0.00599624
-0.00511627
-0.00423007
-0.00332582
-0.00240159
-0.00144954
-0.000469432
0.000537343
0.00157557
0.00265425
0.003766
0.00487546
0.0059368
0.00690616
0.00774721
0.00842203
0.00888507
0.0090871
0.00897778
0.00849997
0.00757434
0.00611574
0.00399541
0.00100971
-0.0031652
-0.00874837
-0.016102
-0.0253056
-0.0368796
-0.0510623
-0.0682756
-0.0885299
-0.110921
-0.134432
-0.157419
-0.179163
-0.192816
-0.194987
-0.215312
-0.234383
-0.0276759
-0.0266041
-0.02552
-0.0244626
-0.0234268
-0.022401
-0.0213939
-0.0203899
-0.0194006
-0.018409
-0.0174309
-0.0164499
-0.015484
-0.0145168
-0.0135666
-0.0126175
-0.0116847
-0.0107519
-0.00983193
-0.00890942
-0.0079918
-0.00706702
-0.00613795
-0.00519329
-0.00423099
-0.00324337
-0.00222868
-0.0011881
-0.000113454
0.00100519
0.00216219
0.00332366
0.00444272
0.00547391
0.00637797
0.00711285
0.00762802
0.00786768
0.00777382
0.0072809
0.00630132
0.00474432
0.00247242
-0.00072917
-0.00519651
-0.0111655
-0.019026
-0.0288518
-0.041166
-0.0561897
-0.0743564
-0.0956661
-0.119182
-0.143858
-0.167982
-0.190828
-0.205273
-0.208155
-0.229457
-0.248422
-0.0306103
-0.0294982
-0.0283728
-0.0272739
-0.0261964
-0.0251284
-0.024078
-0.0230299
-0.0219954
-0.0209582
-0.0199331
-0.0189052
-0.0178913
-0.0168764
-0.0158777
-0.0148805
-0.0138988
-0.0129173
-0.0119484
-0.0109774
-0.0100118
-0.00904005
-0.0080654
-0.00707686
-0.00607293
-0.00504546
-0.00399285
-0.00291392
-0.00180044
-0.000639507
0.00056469
0.00177807
0.00295406
0.00404555
0.00501103
0.00580491
0.00637216
0.0066507
0.00657479
0.00607027
0.00504048
0.0033878
0.000964148
-0.00245757
-0.00722675
-0.013598
-0.0219888
-0.0324668
-0.0455571
-0.0614614
-0.080627
-0.103039
-0.127722
-0.153592
-0.178875
-0.202851
-0.218162
-0.221781
-0.244008
-0.262857
-0.0335539
-0.0324067
-0.0312438
-0.030106
-0.0289882
-0.0278788
-0.0267865
-0.0256954
-0.0246175
-0.0235356
-0.0224654
-0.0213909
-0.02033
-0.0192667
-0.0182193
-0.0171724
-0.016141
-0.0151095
-0.0140907
-0.0130698
-0.0120547
-0.0110339
-0.010011
-0.00897556
-0.00792605
-0.00685482
-0.00575915
-0.00463818
-0.00348086
-0.00227396
-0.00102065
0.000246428
0.00147981
0.00263141
0.00365792
0.0045106
0.00513028
0.00544887
0.00539301
0.00487988
0.00380341
0.00205811
-0.000515718
-0.00415814
-0.00923271
-0.0160146
-0.0249492
-0.036097
-0.0499867
-0.0668
-0.086989
-0.110526
-0.136404
-0.163506
-0.189971
-0.215085
-0.231235
-0.235615
-0.258854
-0.277672
-0.0364704
-0.035288
-0.0340894
-0.0329157
-0.0317619
-0.0306159
-0.0294857
-0.0283558
-0.0272374
-0.0261142
-0.0250009
-0.0238828
-0.0227768
-0.0216682
-0.0205743
-0.0194805
-0.0184011
-0.017321
-0.0162529
-0.0151821
-0.0141165
-0.0130451
-0.0119717
-0.0108861
-0.00978739
-0.00866785
-0.00752524
-0.00635683
-0.00515213
-0.00389556
-0.00258934
-0.00126622
2.62879e-05
0.00123919
0.00232734
0.00323915
0.00391163
0.00427094
0.00423622
0.00371603
0.00259463
0.000758046
-0.00196612
-0.00583086
-0.0112151
-0.0184167
-0.0279086
-0.0397455
-0.0544601
-0.0722145
-0.0934663
-0.118172
-0.145286
-0.173654
-0.201332
-0.22762
-0.244696
-0.249875
-0.274084
-0.292966
-0.0393461
-0.0381362
-0.036908
-0.0357033
-0.0345176
-0.0333383
-0.0321742
-0.031009
-0.0298548
-0.0286938
-0.0275421
-0.0263833
-0.0252359
-0.0240834
-0.0229448
-0.0218045
-0.0206777
-0.0195488
-0.018431
-0.0173096
-0.0161924
-0.0150689
-0.0139428
-0.0128045
-0.0116534
-0.0104824
-0.00928844
-0.0080695
-0.00681258
-0.00550224
-0.00413959
-0.00275682
-0.00140215
-0.000125649
0.00102591
0.00199836
0.00272509
0.00312669
0.00311496
0.00258999
0.00142629
-0.000499032
-0.00337126
-0.00745682
-0.013151
-0.0207753
-0.0308309
-0.0433672
-0.0589218
-0.0776389
-0.0999749
-0.125873
-0.154249
-0.183922
-0.212843
-0.240317
-0.258308
-0.264325
-0.289581
-0.308569
-0.0421956
-0.0409562
-0.0396982
-0.0384637
-0.0372482
-0.0360385
-0.034843
-0.0336454
-0.0324569
-0.0312609
-0.0300722
-0.0288756
-0.0276884
-0.0264955
-0.0253146
-0.024131
-0.022959
-0.0217834
-0.0206173
-0.0194458
-0.0182771
-0.0171006
-0.0159207
-0.014728
-0.0135225
-0.012297
-0.0110491
-0.00977495
-0.00846234
-0.00709355
-0.00566945
-0.00422279
-0.00280212
-0.00145885
-0.00024127
0.000793978
0.00157677
0.00202226
0.00203501
0.00150678
0.000302156
-0.00171081
-0.00473076
-0.00903773
-0.0150446
-0.0230976
-0.0337263
-0.0469762
-0.0633913
-0.0830986
-0.106556
-0.133686
-0.16337
-0.194384
-0.224585
-0.253283
-0.272282
-0.279195
-0.305445
-0.324502
-0.0450297
-0.0437647
-0.0424789
-0.0412156
-0.0399703
-0.03873
-0.0375034
-0.0362738
-0.0350531
-0.0338232
-0.0326002
-0.0313672
-0.0301428
-0.0289102
-0.0276885
-0.0264617
-0.0252452
-0.024023
-0.0228088
-0.0215874
-0.0203672
-0.0191377
-0.0179033
-0.0166552
-0.0153935
-0.0141114
-0.0128058
-0.0114735
-0.0101
-0.00866804
-0.00717801
-0.00566267
-0.00417162
-0.00275759
-0.00147033
-0.000368927
0.000473018
0.000965326
0.00100542
0.000476819
-0.000765721
-0.00286349
-0.0060283
-0.0105543
-0.0168729
-0.0253555
-0.0365611
-0.0505308
-0.0678183
-0.0885337
-0.113132
-0.141519
-0.172537
-0.204933
-0.236448
-0.266383
-0.286379
-0.294265
-0.321504
-0.340675
-0.0478437
-0.0465506
-0.0452365
-0.0439454
-0.0426723
-0.0414039
-0.0401484
-0.038889
-0.0376369
-0.0363748
-0.0351177
-0.03385
-0.0325887
-0.0313185
-0.0300573
-0.0287898
-0.0275304
-0.0262636
-0.0250027
-0.0237325
-0.0224614
-0.021179
-0.0198898
-0.0185851
-0.0172656
-0.0159242
-0.0145584
-0.0131634
-0.0117255
-0.0102257
-0.00866467
-0.00707557
-0.00550919
-0.00401951
-0.00265809
-0.00148655
-0.000581929
-3.96911e-05
3.04715e-05
-0.000496078
-0.0017746
-0.00395577
-0.00726491
-0.0120104
-0.018643
-0.0275603
-0.0393512
-0.0540542
-0.0722337
-0.0939839
-0.119759
-0.149444
-0.18184
-0.215657
-0.248529
-0.279741
-0.300812
-0.309773
-0.337828
-0.357277
-0.0506353
-0.0493208
-0.0479833
-0.0466675
-0.0453687
-0.0440736
-0.0427907
-0.0415027
-0.0402215
-0.0389285
-0.0376398
-0.036338
-0.0350417
-0.0337339
-0.0324337
-0.0311248
-0.0298225
-0.0285105
-0.0272027
-0.0258835
-0.0245611
-0.0232254
-0.0218805
-0.020518
-0.0191387
-0.017736
-0.0163065
-0.014846
-0.0133388
-0.0117667
-0.0101293
-0.00846101
-0.00681355
-0.00524274
-0.00380196
-0.00255527
-0.0015832
-0.000986485
-0.000881896
-0.00140222
-0.00271271
-0.00497373
-0.00842384
-0.013386
-0.0203311
-0.0296835
-0.0420627
-0.0575054
-0.0765875
-0.0993901
-0.126362
-0.157369
-0.191172
-0.22645
-0.260716
-0.293223
-0.315343
-0.325475
-0.354337
-0.374266
-0.0534437
-0.0521044
-0.0507416
-0.0494007
-0.0480767
-0.0467557
-0.0454457
-0.0441295
-0.0428181
-0.0414939
-0.0401717
-0.0388356
-0.0375028
-0.0361575
-0.0348179
-0.0334683
-0.0321231
-0.0307665
-0.0294117
-0.0280432
-0.0266691
-0.025279
-0.0238773
-0.0224554
-0.0210145
-0.0195475
-0.0180516
-0.0165209
-0.0149406
-0.0132905
-0.0115711
-0.00981748
-0.00808298
-0.00642526
-0.00489945
-0.00357218
-0.00252756
-0.00187164
-0.00172838
-0.00223873
-0.00357821
-0.00591701
-0.00950725
-0.0146864
-0.0219464
-0.0317394
-0.044716
-0.0609123
-0.0809167
-0.104799
-0.133004
-0.165375
-0.200629
-0.237409
-0.273114
-0.306964
-0.330191
-0.341583
-0.371224
-0.391764
-0.0562844
-0.0549232
-0.053536
-0.0521694
-0.0508183
-0.0494692
-0.0481301
-0.0467838
-0.0454417
-0.0440849
-0.0427293
-0.0413575
-0.039988
-0.0386035
-0.0372232
-0.0358307
-0.0344409
-0.0330376
-0.0316343
-0.030215
-0.0287876
-0.0273417
-0.0258813
-0.024398
-0.0228927
-0.0213587
-0.019792
-0.0181877
-0.0165285
-0.0147954
-0.0129883
-0.0111438
-0.00931632
-0.00756561
-0.00594855
-0.00453439
-0.00341094
-0.00268965
-0.00250175
-0.00299642
-0.00435956
-0.00677155
-0.0104979
-0.015891
-0.0234642
-0.033698
-0.0472758
-0.0642318
-0.08517
-0.110148
-0.139607
-0.173368
-0.210104
-0.248425
-0.285605
-0.320824
-0.345126
-0.357848
-0.388373
-0.409611
-0.0591544
-0.057768
-0.0563549
-0.0549622
-0.0535846
-0.0522082
-0.0508405
-0.049464
-0.0480897
-0.0466994
-0.0453081
-0.0438995
-0.0424909
-0.0410664
-0.039644
-0.0382083
-0.0367731
-0.0353224
-0.0338695
-0.0323982
-0.030916
-0.0294125
-0.0278913
-0.0263439
-0.0247714
-0.0231664
-0.0215258
-0.0198427
-0.018101
-0.0162798
-0.0143801
-0.0124388
-0.0105124
-0.00866217
-0.00694715
-0.00543941
-0.00423059
-0.00343764
-0.00319926
-0.00367302
-0.00505553
-0.0075377
-0.0113989
-0.0170061
-0.0248951
-0.0355761
-0.0497649
-0.0674966
-0.0893901
-0.115494
-0.146242
-0.181435
-0.219699
-0.259603
-0.298308
-0.33495
-0.360382
-0.374504
-0.405913
-0.427886
-0.0620328
-0.0606265
-0.0591906
-0.0577734
-0.0563696
-0.0549653
-0.0535685
-0.0521616
-0.0507558
-0.049332
-0.047906
-0.0464603
-0.0450132
-0.0435476
-0.0420825
-0.0406016
-0.0391194
-0.0376195
-0.0361153
-0.0345901
-0.0330512
-0.031488
-0.0299037
-0.0282898
-0.0266471
-0.0249687
-0.0232502
-0.0214856
-0.0196566
-0.0177434
-0.0157455
-0.0137019
-0.0116701
-0.00971366
-0.00789356
-0.00628479
-0.00498293
-0.00411061
-0.00381414
-0.00425968
-0.00565475
-0.00820122
-0.0121925
-0.0180103
-0.0262134
-0.0373422
-0.0521461
-0.0706615
-0.0935228
-0.12077
-0.152831
-0.189483
-0.229305
-0.270831
-0.311096
-0.349195
-0.375733
-0.39132
-0.423678
-0.446405
-0.0649158
-0.0634856
-0.0620246
-0.0605819
-0.0591522
-0.057721
-0.0562958
-0.0548589
-0.053421
-0.0519638
-0.0505021
-0.0490195
-0.0475333
-0.0460274
-0.04452
-0.0429953
-0.041467
-0.0399188
-0.0383636
-0.0367845
-0.0351884
-0.0335644
-0.0319157
-0.0302335
-0.0285189
-0.0267643
-0.0249658
-0.0231156
-0.0211961
-0.0191853
-0.0170843
-0.0149321
-0.0127883
-0.0107186
-0.0087859
-0.00706826
-0.00566541
-0.00470587
-0.00434389
-0.00475442
-0.0061563
-0.00876277
-0.0128819
-0.0189103
-0.0274308
-0.0390142
-0.0544447
-0.073761
-0.097614
-0.126035
-0.159446
-0.1976
-0.239027
-0.28222
-0.324094
-0.36371
-0.39141
-0.408534
-0.441809
-0.465259
-0.067758
-0.0663086
-0.0648261
-0.0633605
-0.0619063
-0.0604493
-0.0589972
-0.0575322
-0.0560651
-0.0545769
-0.0530829
-0.0515659
-0.0500439
-0.0484997
-0.0469522
-0.0453848
-0.0438116
-0.0422157
-0.0406102
-0.0389775
-0.0373244
-0.0356396
-0.033926
-0.0321746
-0.0303865
-0.0285539
-0.026672
-0.0247335
-0.0227184
-0.0206059
-0.0183956
-0.0161291
-0.0138667
-0.0116763
-0.00962291
-0.0077877
-0.00627479
-0.00521876
-0.00478204
-0.00514866
-0.00654897
-0.00920814
-0.0134492
-0.0196842
-0.0285206
-0.0405594
-0.0566208
-0.0767465
-0.101605
-0.131219
-0.166004
-0.205689
-0.248754
-0.293649
-0.337166
-0.37834
-0.407185
-0.425911
-0.46014
-0.484254
-0.0705188
-0.069052
-0.0675515
-0.066068
-0.0645954
-0.0631188
-0.0616455
-0.0601576
-0.0586652
-0.0571502
-0.0556271
-0.05408
-0.0525256
-0.050948
-0.0493644
-0.0477593
-0.046145
-0.0445053
-0.0428522
-0.0411681
-0.0394592
-0.0377143
-0.0359357
-0.0341143
-0.0322512
-0.0303381
-0.0283706
-0.0263393
-0.0242255
-0.0220057
-0.0196815
-0.0172936
-0.0149053
-0.0125859
-0.010403
-0.008441
-0.00680855
-0.00564655
-0.00512605
-0.00544037
-0.00683191
-0.00953812
-0.0138981
-0.0203395
-0.0294953
-0.0419967
-0.0587009
-0.079656
-0.105548
-0.136388
-0.172585
-0.213844
-0.258595
-0.305238
-0.350451
-0.393246
-0.423291
-0.44369
-0.478836
-0.503504
-0.0732674
-0.0717873
-0.0702721
-0.0687719
-0.0672812
-0.0657847
-0.0642893
-0.0627764
-0.0612582
-0.0597153
-0.0581644
-0.0565876
-0.055003
-0.0533926
-0.0517751
-0.050133
-0.0484795
-0.0467968
-0.0450975
-0.0433629
-0.0415988
-0.0397938
-0.0379496
-0.0360571
-0.0341173
-0.0321216
-0.0300649
-0.0279382
-0.0257201
-0.0233888
-0.0209429
-0.0184272
-0.0159045
-0.0134473
-0.0111253
-0.00902632
-0.00726364
-0.00598483
-0.00536957
-0.00562128
-0.00699384
-0.0097389
-0.0142104
-0.0208546
-0.0303265
-0.0432931
-0.0606416
-0.0824387
-0.109379
-0.141466
-0.179102
-0.221965
-0.268435
-0.316863
-0.363802
-0.408263
-0.439496
-0.461632
-0.497723
-0.522827
-0.0762484
-0.0747158
-0.0731485
-0.0715992
-0.0700611
-0.0685203
-0.0669823
-0.0654299
-0.0638735
-0.0622956
-0.0607102
-0.0591017
-0.0574849
-0.0558434
-0.0541927
-0.0525164
-0.0508251
-0.0491015
-0.0473568
-0.0455723
-0.0437529
-0.0418871
-0.0399763
-0.038011
-0.0359923
-0.0339109
-0.0317617
-0.0295341
-0.0272073
-0.0247565
-0.0221829
-0.0195301
-0.0168642
-0.0142597
-0.0117883
-0.00954146
-0.00763742
-0.00623052
-0.00550985
-0.00568878
-0.00703393
-0.00981045
-0.0143901
-0.0212356
-0.0310282
-0.0444663
-0.0624729
-0.0851321
-0.113152
-0.146523
-0.185636
-0.230148
-0.278386
-0.328647
-0.377365
-0.423557
-0.456034
-0.47997
-0.516973
-0.542412
-0.0790893
-0.0775549
-0.0759796
-0.074417
-0.0728609
-0.0712968
-0.0697319
-0.0681484
-0.0665593
-0.064946
-0.0633257
-0.0616801
-0.0600271
-0.0583474
-0.0566589
-0.0549422
-0.0532093
-0.0514408
-0.0496481
-0.047811
-0.0459342
-0.0440054
-0.0420254
-0.0399845
-0.0378833
-0.0357122
-0.0334651
-0.0311316
-0.0286885
-0.0261122
-0.0234016
-0.0206039
-0.0177853
-0.0150231
-0.0123912
-0.00998462
-0.0079268
-0.00637921
-0.00554032
-0.00563469
-0.00694036
-0.00973921
-0.0144169
-0.021461
-0.0315686
-0.0454844
-0.0641457
-0.0876845
-0.116801
-0.151478
-0.192096
-0.238289
-0.288329
-0.340459
-0.390983
-0.438953
-0.47267
-0.498457
-0.536389
-0.562194
-0.0820384
-0.080472
-0.078864
-0.0772703
-0.0756834
-0.0740898
-0.0724953
-0.0708832
-0.0692647
-0.0676224
-0.0659712
-0.0642948
-0.0626086
-0.0608949
-0.0591692
-0.0574135
-0.0556379
-0.0538232
-0.0519803
-0.0500881
-0.048151
-0.0461561
-0.0441034
-0.0419829
-0.0397948
-0.0375286
-0.0351784
-0.0327319
-0.0301668
-0.0274565
-0.0246023
-0.0216496
-0.0186682
-0.0157371
-0.0129323
-0.0103536
-0.00812842
-0.00642764
-0.00545698
-0.00545632
-0.00671055
-0.00952548
-0.0142928
-0.0215379
-0.0319601
-0.0463678
-0.0656898
-0.0901379
-0.120384
-0.156407
-0.19857
-0.246489
-0.298382
-0.352431
-0.404816
-0.454627
-0.489641
-0.517323
-0.556148
-0.582534
-0.0848764
-0.0833195
-0.0817156
-0.080121
-0.0785282
-0.0769231
-0.0753125
-0.0736792
-0.0720362
-0.0703654
-0.0686838
-0.0669735
-0.0652522
-0.0635003
-0.061735
-0.0599364
-0.0581156
-0.0562519