/*--------------------------------*- C++ -*----------------------------------*\
  =========                 |
  \\      /  F ield         | OpenFOAM: The Open Source CFD Toolbox
   \\    /   O peration     | Website:  https://openfoam.org
    \\  /    A nd           | Version:  6.0
     \\/     M anipulation  |
\*---------------------------------------------------------------------------*/
FoamFile
{
    version     2.0;
    format      ascii;
    class       volVectorField;
    location    "13";
    object      U;
}
// * * * * * * * * * * * * * * * * * * * * * * * * * * * * * * * * * * * * * //

dimensions      [0 1 -1 0 0 0 0];

internalField   nonuniform List<vector> 
62000
(
(0.998533 0.00737823 -1.09795e-18)
(0.998337 0.00705861 -4.53288e-18)
(0.998083 0.00703193 6.04324e-19)
(0.997801 0.00679023 -2.82099e-20)
(0.99757 0.00653071 4.79571e-18)
(0.99736 0.00621264 -5.12854e-19)
(0.997176 0.0058434 -3.20974e-18)
(0.997018 0.00543408 3.22929e-18)
(0.996883 0.00499001 -3.97439e-18)
(0.996771 0.00452238 -2.6682e-18)
(0.996681 0.00403957 1.64798e-18)
(0.996611 0.0035529 4.38773e-18)
(0.996561 0.00306943 -2.76766e-18)
(0.996532 0.0025988 2.81132e-18)
(0.996521 0.00214469 -2.94948e-18)
(0.99653 0.00171391 4.34362e-18)
(0.996557 0.00130694 -5.54915e-18)
(0.996605 0.00092741 1.39555e-18)
(0.996671 0.000573576 5.01248e-19)
(0.996756 0.00024652 3.04934e-19)
(0.99686 -5.6199e-05 -3.58175e-18)
(0.996982 -0.000335301 1.92734e-18)
(0.997121 -0.000592795 -9.15897e-20)
(0.997276 -0.000829707 5.63983e-19)
(0.997445 -0.00104708 -6.24188e-19)
(0.997628 -0.00124469 -2.44115e-18)
(0.997822 -0.00142193 2.54537e-18)
(0.998027 -0.00157685 2.22456e-19)
(0.998238 -0.00170747 2.37109e-19)
(0.998453 -0.00181169 -2.01022e-18)
(0.998666 -0.00188893 1.23045e-18)
(0.998873 -0.00193326 -2.8146e-18)
(0.999072 -0.00194236 -5.9092e-19)
(0.99926 -0.00191283 2.07063e-19)
(0.999432 -0.00184156 3.66807e-19)
(0.999583 -0.00172627 -1.68187e-18)
(0.99971 -0.00156696 3.7172e-19)
(0.999812 -0.00136514 2.59692e-19)
(0.999889 -0.00112378 2.95957e-19)
(0.999942 -0.000844974 -4.02091e-19)
(0.999977 -0.000529153 -2.88086e-19)
(0.999996 -0.000174344 7.79543e-21)
(1 0.000233164 -2.37355e-19)
(0.999989 0.000750965 4.81759e-19)
(0.999913 0.00139822 9.00526e-19)
(0.999701 0.00213414 -1.81825e-18)
(0.999243 0.00279694 4.20215e-18)
(0.998414 0.00307976 7.08197e-18)
(0.997128 0.00256701 -3.40275e-18)
(0.99543 0.000915909 1.23548e-17)
(0.993519 -0.00186413 2.15849e-17)
(0.991702 -0.00532694 3.22753e-17)
(0.990207 -0.00886533 6.2399e-18)
(0.988993 -0.0121763 9.36299e-18)
(0.987778 -0.0158799 1.52792e-17)
(0.986524 -0.0209933 3.47525e-17)
(0.985405 -0.0292809 5.34443e-18)
(0.98498 -0.0446267 5.66493e-17)
(1.01241 0.00654019 -2.50207e-17)
(0.422489 -0.86856 4.15077e-17)
(0.999512 0.00876004 -2.39136e-19)
(0.998921 0.00884511 1.71234e-18)
(0.998364 0.00949357 -7.39614e-19)
(0.997701 0.00990574 8.57622e-19)
(0.997083 0.0103152 2.05457e-18)
(0.996489 0.0106743 -3.10373e-19)
(0.995927 0.0109508 -2.31842e-18)
(0.995412 0.0111444 -1.14419e-19)
(0.994947 0.0112404 1.88846e-18)
(0.994536 0.0112349 -3.21571e-18)
(0.994178 0.0111254 -1.16473e-18)
(0.993873 0.0109156 4.04876e-18)
(0.993618 0.010609 -2.9517e-18)
(0.99341 0.0102156 1.99293e-18)
(0.993245 0.00974185 -2.72855e-18)
(0.993121 0.00920145 1.45855e-18)
(0.993035 0.00860159 -6.03455e-19)
(0.992987 0.00795651 -4.32202e-19)
(0.992974 0.00727182 4.41189e-19)
(0.992997 0.00655996 -2.05746e-20)
(0.993057 0.00582479 9.37931e-19)
(0.993154 0.00507478 -9.29674e-19)
(0.993288 0.00431282 -6.92611e-19)
(0.993462 0.00354452 8.32553e-19)
(0.993675 0.00277254 -2.13693e-18)
(0.993932 0.00200257 -3.38578e-19)
(0.99423 0.00123986 3.79256e-18)
(0.994577 0.000491136 -1.60374e-18)
(0.994963 -0.000234999 3.0899e-18)
(0.995389 -0.000933772 -3.05688e-19)
(0.995838 -0.00158955 -1.7108e-18)
(0.996317 -0.00217593 5.61555e-19)
(0.996821 -0.00267562 1.36887e-19)
(0.997341 -0.0030674 7.40259e-19)
(0.997866 -0.00332867 -1.41422e-18)
(0.99838 -0.0034295 3.89552e-19)
(0.99887 -0.0033407 4.26484e-19)
(0.999318 -0.00303338 -1.84629e-19)
(0.999711 -0.00248603 1.15872e-19)
(1.00003 -0.00168332 5.41079e-20)
(1.00026 -0.000625815 3.6861e-19)
(1.00037 0.00066665 -5.05797e-20)
(1.00035 0.00217753 2.00439e-19)
(1.00014 0.00388219 2.0948e-19)
(0.999619 0.00559811 -1.59031e-18)
(0.998616 0.00695757 1.3273e-18)
(0.996959 0.00737801 -5.75858e-18)
(0.994536 0.00615801 -4.05036e-18)
(0.991417 0.00275361 -1.9922e-18)
(0.987953 -0.0028174 -1.40296e-18)
(0.984694 -0.00967896 -2.39812e-17)
(0.982129 -0.016307 -3.14963e-17)
(0.98031 -0.021635 2.4446e-18)
(0.978788 -0.0258433 -3.83387e-18)
(0.977048 -0.0309667 -1.61551e-17)
(0.975174 -0.0396155 3.54576e-18)
(0.974366 -0.0547446 5.68524e-18)
(0.975911 -0.0748018 -1.28579e-17)
(1.00122 -0.0664561 3.98253e-17)
(1.06192 0.139804 -1.76854e-17)
(1.003 0.00644479 2.17882e-18)
(1.00267 0.00682155 -6.35256e-19)
(1.0023 0.00745395 -3.31377e-19)
(1.00175 0.00806772 -1.47662e-19)
(1.00112 0.00876857 4.64157e-18)
(1.00041 0.00953498 -3.83032e-18)
(0.99964 0.0103184 -1.40925e-18)
(0.998851 0.0111066 9.71504e-19)
(0.998057 0.0118668 2.49387e-18)
(0.997283 0.0125738 1.0078e-18)
(0.996546 0.0132033 -4.21172e-18)
(0.99586 0.0137355 -1.9765e-18)
(0.995234 0.0141517 1.90109e-18)
(0.994677 0.0144409 -7.21579e-19)
(0.99419 0.0145916 2.10593e-19)
(0.993775 0.0146029 3.19604e-18)
(0.99343 0.0144708 -3.16174e-18)
(0.993154 0.0142027 3.07663e-18)
(0.992943 0.0137999 -3.97137e-19)
(0.992796 0.0132758 2.01901e-18)
(0.992709 0.0126348 -1.00383e-18)
(0.992682 0.0118916 -1.54236e-18)
(0.992713 0.0110528 5.5406e-19)
(0.992803 0.0101317 1.94549e-18)
(0.99295 0.00913529 -1.24584e-18)
(0.99316 0.00807758 1.82603e-18)
(0.993432 0.00696876 -2.47501e-19)
(0.993773 0.0058241 -9.71706e-19)
(0.994173 0.00465757 -1.9248e-18)
(0.994631 0.00348229 1.83521e-18)
(0.995133 0.00232604 2.26523e-19)
(0.995687 0.00122678 2.9499e-19)
(0.996289 0.000218763 -1.09574e-18)
(0.99693 -0.000663615 1.19221e-18)
(0.997597 -0.00137757 -3.06585e-20)
(0.99827 -0.00186844 7.20671e-19)
(0.998932 -0.00207897 -7.80712e-20)
(0.999554 -0.00195101 1.88002e-19)
(1.00011 -0.00143786 -3.54996e-19)
(1.00058 -0.000506366 7.59973e-20)
(1.00091 0.000842574 -2.74031e-19)
(1.00107 0.00256885 1.23154e-20)
(1.00104 0.0046391 -3.29608e-19)
(1.00071 0.0068421 -9.74221e-19)
(0.999927 0.00879795 7.80206e-19)
(0.998522 0.00990751 -1.71019e-19)
(0.996342 0.00937354 6.90074e-19)
(0.993357 0.00641967 -3.51485e-18)
(0.989772 0.00072099 3.77509e-19)
(0.986105 -0.00715524 -5.3121e-20)
(0.983023 -0.0155923 -2.60417e-17)
(0.981037 -0.0224066 -1.04348e-17)
(0.980163 -0.0263915 1.61943e-17)
(0.97986 -0.0280249 1.54779e-17)
(0.97971 -0.029837 1.42048e-17)
(0.979516 -0.0352657 -5.58349e-17)
(0.980457 -0.0475325 1.45072e-17)
(0.983931 -0.0634659 -2.51694e-17)
(1.0087 -0.0589491 -4.56547e-17)
(0.910796 -0.137294 -2.20093e-18)
(1.00619 0.00944265 1.21613e-18)
(1.00644 0.00948859 -8.41041e-19)
(1.00659 0.00950058 5.19247e-19)
(1.00656 0.00960359 7.45536e-19)
(1.00636 0.00986125 -1.58687e-18)
(1.00599 0.0102683 -1.52107e-18)
(1.00547 0.0107982 1.19593e-18)
(1.0048 0.0114436 2.08552e-19)
(1.00402 0.012178 3.89027e-19)
(1.00316 0.0129738 -1.53995e-18)
(1.00223 0.0138019 -4.33162e-19)
(1.00127 0.0146309 3.53696e-19)
(1.00031 0.015429 9.72718e-19)
(0.999374 0.0161672 1.11682e-19)
(0.998475 0.016816 1.47614e-18)
(0.997635 0.0173534 -2.77208e-18)
(0.996865 0.0177571 1.09659e-18)
(0.996175 0.0180145 1.20574e-18)
(0.995571 0.0181118 -2.92482e-18)
(0.995057 0.0180477 2.96841e-18)
(0.994634 0.0178153 -3.96599e-19)
(0.994303 0.0174214 -2.75831e-18)
(0.994064 0.0168664 -6.89764e-19)
(0.993916 0.0161604 1.02269e-18)
(0.993859 0.0153081 5.8501e-20)
(0.993894 0.014324 -1.46367e-18)
(0.994022 0.0132182 1.98874e-18)
(0.994245 0.0120105 -9.65315e-19)
(0.994555 0.0107173 2.2686e-19)
(0.994945 0.00935475 2.86304e-19)
(0.995405 0.00795747 1.5788e-19)
(0.995941 0.00657022 2.35979e-19)
(0.996546 0.00523296 6.82356e-20)
(0.997211 0.00398929 -6.49344e-19)
(0.997921 0.00289415 -1.49743e-19)
(0.998653 0.00201661 1.60871e-19)
(0.999387 0.00143175 -1.19745e-18)
(1.00009 0.00121621 -1.58336e-20)
(1.00073 0.00143415 1.86736e-19)
(1.00127 0.00213227 -5.43021e-19)
(1.00165 0.00331197 -8.78121e-20)
(1.00185 0.00492697 -3.54468e-20)
(1.0018 0.00695437 5.99769e-19)
(1.00137 0.00898854 1.62652e-19)
(1.00043 0.0105294 1.33941e-18)
(0.998779 0.0108918 -4.89475e-19)
(0.996286 0.00922685 2.61462e-18)
(0.99293 0.0048132 4.99123e-19)
(0.988922 -0.00246213 1.64656e-17)
(0.984797 -0.0117094 -3.78366e-18)
(0.981248 -0.0209815 4.68566e-17)
(0.978867 -0.027873 4.13278e-17)
(0.97789 -0.0312081 -2.35347e-17)
(0.977985 -0.0315712 1.71704e-17)
(0.979 -0.0315359 2.42276e-17)
(0.98048 -0.0348554 2.31074e-17)
(0.983189 -0.0449368 2.75156e-18)
(0.988851 -0.0599633 6.13021e-18)
(1.00924 -0.0473771 3.32104e-17)
(0.970529 -0.0743388 3.92649e-18)
(1.00724 0.0168745 -9.46328e-19)
(1.00789 0.0164958 -1.7235e-18)
(1.00848 0.0159478 6.16966e-20)
(1.00897 0.0154358 3.09167e-19)
(1.00933 0.0150458 -1.23346e-18)
(1.00954 0.0147896 2.21204e-18)
(1.00957 0.0146737 -2.21969e-19)
(1.00943 0.0147126 1.14452e-18)
(1.00911 0.0149026 4.57248e-19)
(1.00862 0.0152337 -2.6139e-18)
(1.00799 0.0156906 1.19479e-18)
(1.00722 0.0162501 -8.07149e-20)
(1.00635 0.0168844 -1.4139e-21)
(1.00541 0.0175626 1.47269e-18)
(1.00441 0.0182506 -1.39241e-18)
(1.0034 0.0189173 2.67018e-19)
(1.00238 0.0195284 -3.10169e-19)
(1.0014 0.0200576 4.29557e-19)
(1.00046 0.0204763 -6.57632e-19)
(0.999587 0.020767 1.09923e-18)
(0.998789 0.0209077 -1.15268e-18)
(0.998082 0.0208915 1.01943e-18)
(0.997471 0.0207054 1.50464e-18)
(0.996963 0.0203478 -1.56979e-18)
(0.996564 0.0198144 -4.12711e-19)
(0.996278 0.0191115 1.98469e-18)
(0.996108 0.0182423 -1.89392e-18)
(0.996057 0.0172242 7.19994e-19)
(0.996118 0.0160674 -1.53299e-18)
(0.996287 0.0147886 2.02335e-18)
(0.996557 0.0134185 -7.68201e-19)
(0.996932 0.0119985 -1.04873e-18)
(0.997405 0.0105697 -1.93485e-18)
(0.997965 0.00917421 5.63454e-19)
(0.998594 0.00787011 2.07273e-19)
(0.999273 0.00673006 -1.77128e-19)
(0.999975 0.0058358 1.01541e-18)
(1.00067 0.00527153 8.60998e-19)
(1.00131 0.00511046 -1.7563e-19)
(1.00186 0.0054082 3.14879e-19)
(1.00227 0.00617046 -8.70346e-20)
(1.00248 0.0073582 -5.79538e-20)
(1.00241 0.00897315 -5.20871e-19)
(1.00191 0.0104774 -1.03978e-18)
(1.00083 0.0113204 -7.02542e-19)
(0.99902 0.0108377 -1.0971e-18)
(0.996291 0.0082215 -6.52398e-19)
(0.992576 0.00283645 2.186e-18)
(0.988 -0.00531192 5.43516e-19)
(0.983014 -0.0152593 -5.00886e-18)
(0.978269 -0.025084 -4.89822e-18)
(0.974435 -0.0325102 -2.01734e-17)
(0.972076 -0.0365671 -5.66249e-19)
(0.971254 -0.0378941 -1.80757e-17)
(0.972246 -0.0388728 1.15886e-17)
(0.974669 -0.0430574 -4.96787e-18)
(0.979106 -0.0537189 -5.14557e-18)
(0.987912 -0.0692732 -2.6423e-18)
(1.00605 -0.0516914 1.19796e-17)
(0.9653 -0.0626487 -1.71885e-18)
(1.00666 0.0247752 -4.76191e-19)
(1.00733 0.0242211 5.82076e-19)
(1.00801 0.0234879 9.16442e-19)
(1.00872 0.0226816 -1.15604e-19)
(1.00939 0.0219105 -5.82951e-19)
(1.01 0.0211903 -6.22403e-19)
(1.01051 0.0205489 -2.03923e-19)
(1.0109 0.020019 -1.00137e-18)
(1.01115 0.0196206 1.37762e-18)
(1.01124 0.0193664 1.17819e-18)
(1.01116 0.0192634 -1.44043e-18)
(1.01092 0.0193078 7.92136e-19)
(1.01052 0.0194884 -2.59399e-19)
(1.00998 0.0197866 6.10539e-19)
(1.00932 0.0201766 -1.2161e-19)
(1.00855 0.0206305 -3.03155e-19)
(1.0077 0.0211154 -1.48288e-18)
(1.00679 0.0216009 2.26599e-18)
(1.00585 0.0220534 -1.09294e-18)
(1.00491 0.0224464 7.03982e-19)
(1.00398 0.0227492 -1.10549e-18)
(1.00308 0.0229436 7.63346e-19)
(1.00224 0.023006 -6.94423e-19)
(1.00146 0.0229224 -5.03734e-19)
(1.00077 0.0226791 2.18126e-20)
(1.00017 0.0222705 1.67132e-20)
(0.999677 0.0216911 6.42637e-19)
(0.999295 0.020951 1.32961e-18)
(0.999026 0.0200521 -4.06128e-19)
(0.99887 0.0190036 5.31602e-19)
(0.998829 0.0178266 -3.56066e-19)
(0.998907 0.0165567 3.61e-20)
(0.999101 0.0152242 1.99368e-18)
(0.999403 0.0138649 -1.5044e-19)
(0.999797 0.0125305 1.18134e-18)
(1.00027 0.0112874 -6.73366e-19)
(1.00079 0.0102142 -1.51304e-18)
(1.00133 0.00939267 -7.90016e-19)
(1.00186 0.00889696 -1.10431e-19)
(1.00232 0.00878625 2.80779e-20)
(1.00268 0.0090701 9.24757e-20)
(1.00288 0.00972511 2.25375e-21)
(1.0028 0.0107781 -6.09841e-20)
(1.00226 0.0116456 9.0646e-19)
(1.00118 0.0117785 -8.84293e-19)
(0.999407 0.0106047 1.46976e-18)
(0.996727 0.00741653 -2.97433e-19)
(0.992999 0.0016827 -2.76751e-18)
(0.988213 -0.00653298 -8.0398e-18)
(0.982678 -0.0163385 1.15675e-17)
(0.976927 -0.0260473 -1.33723e-17)
(0.971645 -0.033724 1.23947e-17)
(0.967691 -0.0387079 4.92073e-18)
(0.965562 -0.0416679 -4.59121e-18)
(0.96603 -0.0446401 -7.02848e-17)
(0.969027 -0.0505709 1.67158e-17)
(0.975163 -0.0621226 -1.54298e-17)
(0.987518 -0.0770446 5.12389e-18)
(1.00402 -0.0566645 3.16095e-19)
(0.973481 -0.0469059 5.72817e-18)
(1.00601 0.0315156 -2.48561e-18)
(1.00644 0.0310602 1.4043e-18)
(1.00692 0.030448 5.42835e-19)
(1.0075 0.029667 4.21929e-19)
(1.00815 0.0288305 -1.05324e-18)
(1.00883 0.027948 -1.12237e-18)
(1.00951 0.027052 2.36511e-18)
(1.01015 0.0261826 -3.59229e-19)
(1.01073 0.0253725 2.29954e-19)
(1.01122 0.0246519 -1.81855e-18)
(1.0116 0.0240472 1.19062e-18)
(1.01184 0.0235758 -6.32936e-19)
(1.01195 0.0232468 -7.89807e-19)
(1.01192 0.0230607 1.60913e-18)
(1.01174 0.0230081 -2.99244e-19)
(1.01143 0.0230739 -5.48446e-19)
(1.011 0.0232346 -6.01566e-19)
(1.01046 0.0234656 1.95922e-18)
(1.00983 0.0237352 -9.18595e-19)
(1.00912 0.0240163 -8.75593e-19)
(1.00836 0.0242755 9.51166e-19)
(1.00757 0.0244896 -1.02626e-19)
(1.00677 0.0246282 -2.73848e-20)
(1.00597 0.0246704 -3.54224e-19)
(1.0052 0.0245949 1.60639e-19)
(1.00446 0.024387 -7.17945e-19)
(1.00378 0.0240343 -6.84053e-19)
(1.00317 0.0235395 2.4477e-19)
(1.00264 0.0228947 7.18997e-19)
(1.00219 0.0221027 4.9196e-19)
(1.00184 0.0211723 3.78243e-19)
(1.00159 0.0201283 -4.78221e-19)
(1.00145 0.0189902 6.06163e-20)
(1.00141 0.0177812 3.48889e-19)
(1.00147 0.0165408 -7.75771e-19)
(1.00162 0.0153217 3.5352e-20)
(1.00183 0.0141916 -9.6122e-22)
(1.0021 0.0132214 5.14478e-19)
(1.00239 0.0124788 -2.92962e-20)
(1.00266 0.0120204 2.21882e-19)
(1.00289 0.0118571 1.95403e-20)
(1.00303 0.0119844 -3.85638e-20)
(1.00294 0.0124484 3.49132e-19)
(1.00245 0.0126995 -1.85149e-19)
(1.00152 0.0122292 1.0716e-18)
(1.00005 0.0106005 1.77683e-20)
(0.997798 0.00724476 4.08167e-18)
(0.994567 0.00175091 3.52997e-18)
(0.990208 -0.00578136 -3.62819e-19)
(0.984857 -0.0145952 -1.16251e-17)
(0.978883 -0.0233262 1.85523e-18)
(0.972902 -0.030469 -1.27918e-17)
(0.967961 -0.0357133 1.3688e-17)
(0.964912 -0.0397428 -1.61341e-18)
(0.964953 -0.0441832 2.53536e-17)
(0.968377 -0.0512163 -1.07049e-17)
(0.975851 -0.062664 -3.15753e-18)
(0.991174 -0.0757477 -1.06849e-17)
(1.00628 -0.0530232 7.60887e-19)
(0.974256 -0.0342161 -9.71455e-18)
(1.00586 0.0365406 8.0939e-19)
(1.00595 0.0362939 1.49783e-18)
(1.00611 0.0359514 -8.386e-19)
(1.00642 0.0353942 -1.03623e-18)
(1.00684 0.0347293 -2.88147e-19)
(1.00736 0.0339488 1.16844e-18)
(1.00795 0.0330763 4.41001e-19)
(1.00859 0.0321446 3.73074e-19)
(1.00924 0.0311857 -5.65694e-19)
(1.00987 0.0302345 3.39434e-19)
(1.01045 0.0293264 -6.5216e-19)
(1.01097 0.0284927 -1.07449e-18)
(1.01141 0.0277596 1.33087e-18)
(1.01174 0.0271461 -4.88657e-19)
(1.01196 0.0266614 -4.63254e-20)
(1.01206 0.0263077 -1.03336e-18)
(1.01204 0.0260776 6.63009e-19)
(1.01192 0.0259587 2.55472e-19)
(1.01168 0.0259286 -4.35185e-19)
(1.01134 0.0259659 1.30322e-18)
(1.01092 0.0260413 -5.14071e-19)
(1.01042 0.0261312 -9.988e-19)
(1.00986 0.0262037 9.49024e-19)
(1.00925 0.0262351 -1.05789e-18)
(1.0086 0.0261992 2.42537e-19)
(1.00794 0.0260764 6.31473e-19)
(1.00727 0.0258495 8.34888e-20)
(1.00661 0.0255152 -3.8928e-19)
(1.00598 0.02506 2.0804e-19)
(1.00537 0.0244783 -6.51946e-20)
(1.00482 0.0237689 -6.62634e-19)
(1.00432 0.022949 -1.87297e-19)
(1.0039 0.022024 -3.69254e-19)
(1.00355 0.0210053 -5.02307e-19)
(1.00327 0.0199173 -3.25236e-19)
(1.00307 0.0187951 7.94709e-19)
(1.00294 0.017691 4.13598e-20)
(1.00288 0.0166591 -3.50562e-19)
(1.00286 0.0157545 5.99768e-19)
(1.00288 0.0150256 -2.61181e-19)
(1.00292 0.014481 1.76943e-20)
(1.00297 0.0141347 -5.82735e-20)
(1.00287 0.0140444 -7.24206e-19)
(1.00246 0.0137511 2.21101e-19)
(1.0018 0.0128132 3.63693e-19)
(1.0008 0.0109449 5.50932e-19)
(0.999252 0.00773098 -2.14224e-18)
(0.99689 0.0028847 1.73419e-18)
(0.993457 -0.00347056 -6.68465e-18)
(0.98893 -0.0107307 3.84028e-18)
(0.983493 -0.0178679 3.57051e-18)
(0.977632 -0.0238164 -3.03368e-18)
(0.972471 -0.0286083 -1.6564e-17)
(0.969084 -0.0329471 6.34132e-18)
(0.968955 -0.038081 6.09308e-18)
(0.972655 -0.0454915 -6.92946e-18)
(0.980833 -0.0562547 -6.9132e-19)
(0.997967 -0.0675263 3.86317e-18)
(1.0113 -0.0438634 -4.29006e-18)
(0.973756 -0.024894 1.29079e-17)
(1.00639 0.0403019 -1.42547e-18)
(1.00617 0.0402864 1.67227e-18)
(1.00601 0.0402336 -9.20958e-19)
(1.006 0.0399571 -1.03631e-19)
(1.00613 0.0395545 5.11458e-19)
(1.00638 0.0390025 -2.57116e-19)
(1.00675 0.0383121 9.33134e-19)
(1.0072 0.0375026 4.21499e-19)
(1.00773 0.0365962 -6.91378e-19)
(1.0083 0.0356217 -1.26678e-18)
(1.00889 0.0346128 1.41167e-18)
(1.00947 0.033604 7.24608e-20)
(1.01002 0.032629 -9.6561e-20)
(1.01052 0.0317187 -1.72722e-19)
(1.01095 0.0308967 6.99756e-19)
(1.0113 0.0301818 -9.36978e-19)
(1.01156 0.029583 8.94107e-19)
(1.01173 0.0291041 -1.40368e-18)
(1.01181 0.028736 5.36857e-19)
(1.0118 0.028469 -2.28422e-19)
(1.01169 0.0282824 9.78019e-21)
(1.01151 0.0281576 -4.07598e-19)
(1.01124 0.0280654 1.04174e-18)
(1.0109 0.0279839 -2.74535e-19)
(1.01049 0.0278841 2.47207e-19)
(1.01002 0.0277451 -3.78882e-19)
(1.0095 0.0275467 -3.98493e-19)
(1.00894 0.0272819 4.36774e-19)
(1.00835 0.0269323 -1.31708e-19)
(1.00774 0.0264873 -1.06708e-19)
(1.00712 0.0259389 1.16746e-19)
(1.00651 0.0252953 2.98891e-19)
(1.00591 0.0245538 2.10498e-20)
(1.00535 0.0237137 7.2261e-19)
(1.00482 0.0227849 -5.56618e-19)
(1.00433 0.0217852 3.46856e-19)
(1.0039 0.0207494 1.9329e-19)
(1.00352 0.0197126 2.35381e-19)
(1.00321 0.0187136 -1.58787e-19)
(1.00297 0.0177883 3.25727e-20)
(1.0028 0.0169395 1.30428e-19)
(1.00273 0.0161964 2.95918e-20)
(1.00261 0.015621 3.41235e-19)
(1.00231 0.0148754 -1.44105e-20)
(1.00192 0.0135983 -4.92331e-19)
(1.00143 0.011646 -4.68645e-20)
(1.00064 0.00874911 -1.55794e-18)
(0.999246 0.00473084 -1.59023e-18)
(0.996924 -0.000272855 6.22692e-18)
(0.993517 -0.00581184 7.91545e-19)
(0.989043 -0.0111706 -1.15763e-18)
(0.983842 -0.0156865 9.94544e-19)
(0.979025 -0.0196997 3.09961e-18)
(0.975762 -0.0239381 -5.62952e-18)
(0.975676 -0.0293419 -6.97702e-19)
(0.97949 -0.0368517 1.13789e-17)
(0.987791 -0.0470024 2.70946e-18)
(1.00573 -0.057218 -1.00385e-17)
(1.01728 -0.0336708 4.36186e-18)
(0.972507 -0.0190055 -2.72114e-17)
(1.00731 0.0429422 -6.03436e-20)
(1.00684 0.0431069 -1.10487e-18)
(1.00643 0.0433062 5.1234e-19)
(1.00614 0.0433017 -6.04242e-19)
(1.00599 0.0431833 6.5387e-19)
(1.00596 0.0429144 -2.96456e-19)
(1.00606 0.0424934 1.19017e-18)
(1.00628 0.0419248 -7.32871e-19)
(1.0066 0.0412173 9.04106e-19)
(1.00701 0.0403876 -4.39676e-19)
(1.00748 0.03946 -1.15386e-19)
(1.00799 0.0384631 3.34771e-19)
(1.00852 0.0374291 -1.0265e-18)
(1.00904 0.0363913 1.76225e-18)
(1.00953 0.0353805 3.80786e-20)
(1.00998 0.0344256 -7.16991e-20)
(1.01037 0.0335491 -1.11838e-18)
(1.0107 0.0327693 7.20264e-19)
(1.01097 0.032092 -8.64884e-19)
(1.01116 0.0315214 5.49081e-19)
(1.01127 0.0310498 6.70727e-20)
(1.01132 0.0306679 3.08924e-19)
(1.01128 0.0303541 -3.27147e-19)
(1.01118 0.0300919 -4.69302e-19)
(1.011 0.0298535 3.33965e-19)
(1.01074 0.0296195 2.54278e-19)
(1.01042 0.0293689 -2.82314e-19)
(1.01002 0.0290919 4.5211e-20)
(1.00956 0.0287692 1.53644e-19)
(1.00904 0.0283839 -4.78984e-19)
(1.00847 0.0279242 9.06654e-20)
(1.00786 0.027394 -3.29481e-22)
(1.00721 0.0267824 -5.61841e-20)
(1.00655 0.0260805 -1.23466e-19)
(1.00587 0.0252861 -1.43855e-19)
(1.0052 0.0244016 -6.18428e-20)
(1.00455 0.0234456 1.20511e-20)
(1.00394 0.0224343 -1.04845e-19)
(1.00338 0.0213892 3.90767e-19)
(1.00291 0.0203312 -9.61952e-20)
(1.00256 0.0192556 -4.8844e-20)
(1.00235 0.018201 7.72996e-20)
(1.0022 0.0172284 3.72355e-19)
(1.00197 0.016127 2.8289e-19)
(1.00181 0.0146193 -4.437e-19)
(1.00174 0.012677 4.35757e-19)
(1.00158 0.0101526 -2.45017e-19)
(1.00103 0.00695252 -1.0055e-18)
(0.999716 0.00320912 -1.64852e-18)
(0.997399 -0.000774091 3.28009e-18)
(0.993973 -0.00455155 -2.71887e-18)
(0.989639 -0.00780142 2.82465e-18)
(0.985453 -0.0111143 -2.25414e-18)
(0.98259 -0.0152413 3.72573e-18)
(0.982692 -0.0208879 3.21967e-18)
(0.986525 -0.028614 3.61984e-19)
(0.994602 -0.0386075 -4.7268e-18)
(1.01274 -0.0486246 3.92785e-18)
(1.02281 -0.0256362 1.56005e-17)
(0.971233 -0.0163205 4.21311e-17)
(1.00857 0.0449808 -1.9297e-19)
(1.00792 0.0452772 1.9359e-19)
(1.00731 0.0456629 4.05324e-19)
(1.0068 0.0458718 3.72071e-19)
(1.0064 0.0459897 -6.84036e-19)
(1.00611 0.0459743 -2.79804e-19)
(1.00596 0.0458165 6.85125e-19)
(1.00592 0.0455097 4.20891e-19)
(1.00601 0.0450508 -8.76179e-19)
(1.0062 0.044444 1.01652e-18)
(1.00649 0.0437017 -5.98053e-19)
(1.00685 0.0428417 -9.00416e-19)
(1.00726 0.041888 6.89526e-19)
(1.00771 0.0408692 6.36308e-20)
(1.00816 0.0398145 -1.06021e-18)
(1.00861 0.0387559 7.25909e-19)
(1.00902 0.0377222 2.36705e-19)
(1.00941 0.0367413 -1.0287e-19)
(1.00975 0.0358305 1.37074e-19)
(1.01003 0.0350071 4.31074e-19)
(1.01027 0.0342762 -9.08126e-19)
(1.01044 0.0336406 4.7995e-19)
(1.01055 0.0330891 -1.29909e-19)
(1.0106 0.032614 7.70604e-19)
(1.01059 0.0321923 -5.85445e-19)
(1.0105 0.0318098 1.66401e-19)
(1.01034 0.0314464 -3.95603e-19)
(1.01011 0.031093 2.5222e-19)
(1.0098 0.0307286 -9.56812e-20)
(1.0094 0.0303341 3.30531e-19)
(1.00893 0.0298961 1.51671e-19)
(1.00838 0.029413 -4.1589e-19)
(1.00777 0.0288715 2.38855e-19)
(1.0071 0.0282558 -6.75588e-21)
(1.00637 0.0275547 -1.86253e-19)
(1.00561 0.0267588 3.06575e-19)
(1.00484 0.0258733 4.80772e-20)
(1.00408 0.0248975 1.11422e-19)
(1.00336 0.0238367 -3.36154e-19)
(1.00272 0.0226961 1.27534e-19)
(1.00221 0.0214629 -8.28491e-20)
(1.00188 0.02018 -3.12409e-21)
(1.00168 0.0189035 -2.37252e-19)
(1.00147 0.0175374 -6.10035e-20)
(1.00144 0.0158839 -6.44732e-20)
(1.00163 0.0139954 -5.38482e-19)
(1.00189 0.0118138 -5.01901e-20)
(1.00192 0.00929799 1.1383e-18)
(1.00136 0.00656135 1.3235e-18)
(0.999901 0.003772 -6.17028e-19)
(0.997379 0.00115403 6.99179e-19)
(0.99389 -0.00123807 6.08535e-20)
(0.990422 -0.00418083 1.90749e-18)
(0.988095 -0.00842928 -4.28917e-18)
(0.988489 -0.0145023 -3.76464e-18)
(0.99234 -0.0226891 2.15078e-18)
(1.00012 -0.0329317 2.84135e-17)
(1.01831 -0.0432295 6.03781e-18)
(1.02749 -0.0205542 5.76177e-18)
(0.970348 -0.0156536 -3.81535e-17)
(1.00989 0.0464422 4.76041e-19)
(1.00912 0.0468093 -4.99828e-19)
(1.00838 0.0473239 -1.87302e-19)
(1.00771 0.0476935 1.09285e-18)
(1.00713 0.0480028 -8.34106e-19)
(1.00664 0.0482059 -4.16401e-19)
(1.00626 0.0482896 8.47716e-19)
(1.006 0.0482397 -9.17468e-19)
(1.00586 0.0480444 8.77253e-19)
(1.00583 0.0476977 3.11179e-19)
(1.00591 0.0472006 -3.53156e-19)
(1.00609 0.0465597 -5.57828e-19)
(1.00635 0.0457883 4.39256e-19)
(1.00667 0.0449056 -3.28363e-19)
(1.00703 0.0439345 9.32207e-20)
(1.00741 0.0429031 -1.57829e-19)
(1.00779 0.04184 3.92499e-19)
(1.00816 0.0407761 4.94172e-19)
(1.0085 0.0397355 -1.36644e-18)
(1.00881 0.0387442 8.70213e-19)
(1.00908 0.0378183 -5.12614e-19)
(1.00931 0.0369716 -4.0397e-19)
(1.00949 0.0362046 5.07983e-19)
(1.00962 0.0355198 -1.95941e-20)
(1.0097 0.0349022 -2.229e-19)
(1.00972 0.0343449 5.85924e-20)
(1.00967 0.0338323 4.31776e-19)
(1.00955 0.0333569 6.32336e-20)
(1.00936 0.0329006 -2.65617e-19)
(1.00908 0.0324416 1.93668e-19)
(1.00871 0.0319664 -2.64612e-19)
(1.00826 0.0314727 3.01684e-19)
(1.00772 0.0309441 1.97315e-19)
(1.00709 0.0303615 1.05957e-19)
(1.00638 0.0297074 1.22249e-20)
(1.00561 0.0289645 1.03949e-19)
(1.0048 0.0281273 -2.45906e-19)
(1.00397 0.0271823 -3.00211e-19)
(1.00315 0.0261206 9.76023e-20)
(1.0024 0.0249328 1.02262e-19)
(1.00178 0.0235987 4.7155e-20)
(1.00134 0.0221606 6.85211e-21)
(1.00106 0.0206678 -4.57337e-19)
(1.00084 0.0191157 -1.42898e-19)
(1.00083 0.0173774 2.19596e-19)
(1.00111 0.0155495 1.75419e-19)
(1.00156 0.013632 8.70692e-19)
(1.00188 0.0116064 -2.24407e-20)
(1.00175 0.00955201 -2.70466e-19)
(1.00086 0.00752008 -7.72036e-19)
(0.999003 0.00556028 -1.62157e-19)
(0.996222 0.00353405 2.57414e-19)
(0.993438 0.000548187 -1.78245e-18)
(0.991695 -0.00413224 -4.43575e-18)
(0.992467 -0.010867 -4.90111e-18)
(0.996416 -0.0197375 -1.72491e-17)
(1.00401 -0.0304853 -2.4346e-17)
(1.02236 -0.0411996 -3.00219e-18)
(1.03106 -0.0184869 -2.67154e-17)
(0.969923 -0.0166159 -1.00644e-17)
(1.01131 0.0476889 -5.50475e-19)
(1.01047 0.0480934 3.97031e-19)
(1.00965 0.0486829 4.73207e-19)
(1.00887 0.0491527 -1.75242e-19)
(1.00815 0.0495884 -5.71507e-19)
(1.0075 0.0499459 1.14713e-18)
(1.00694 0.0502115 -1.40082e-18)
(1.00648 0.050368 4.87425e-19)
(1.00612 0.050399 2.57121e-19)
(1.00588 0.0502918 4.96484e-19)
(1.00576 0.050039 -7.07742e-19)
(1.00574 0.0496378 -2.39599e-20)
(1.00583 0.0490907 -2.03927e-19)
(1.00599 0.0484071 1.12987e-18)
(1.00622 0.0476001 -6.13182e-19)
(1.00649 0.0466906 3.58754e-19)
(1.00679 0.0457016 -4.70859e-19)
(1.0071 0.0446619 6.03073e-20)
(1.0074 0.043596 5.67914e-19)
(1.00769 0.0425337 -3.39453e-19)
(1.00796 0.0414973 -2.38159e-19)
(1.00819 0.0405088 -1.49247e-19)
(1.00838 0.0395782 4.68396e-19)
(1.00854 0.0387179 -2.64763e-19)
(1.00865 0.0379219 1.40954e-19)
(1.00871 0.037192 -2.20865e-19)
(1.00872 0.0365187 1.97374e-19)
(1.00867 0.0358998 -2.2683e-19)
(1.00855 0.0353194 4.89138e-21)
(1.00836 0.0347574 -1.83968e-19)
(1.00808 0.0342029 1.82485e-20)
(1.00771 0.0336511 1.79003e-20)
(1.00725 0.0330875 -1.05058e-20)
(1.00669 0.0324902 6.16987e-20)
(1.00603 0.0318383 -4.6942e-20)
(1.00529 0.0311104 2.16961e-19)
(1.00449 0.030293 -1.20334e-19)
(1.00365 0.0293645 6.57328e-20)
(1.0028 0.0283036 7.02288e-20)
(1.00199 0.0270895 -9.0841e-20)
(1.00128 0.0256957 6.02107e-21)
(1.00074 0.0241604 -5.89084e-21)
(1.00038 0.0225248 5.43161e-19)
(1.00009 0.0208486 2.68713e-19)
(1.00003 0.0190636 1.53043e-19)
(1.00025 0.0172785 2.28792e-19)
(1.00068 0.015524 -2.68316e-19)
(1.00104 0.0137794 -9.95826e-20)
(1.00107 0.0120831 -1.00271e-19)
(1.00046 0.0103872 5.16764e-20)
(0.999027 0.00861257 2.53367e-19)
(0.996785 0.00649417 2.34222e-18)
(0.994607 0.00308266 -7.68181e-18)
(0.993459 -0.00230456 1.32522e-17)
(0.994678 -0.00987731 5.74507e-18)
(0.998838 -0.0195363 1.72536e-17)
(1.00645 -0.0308271 1.81754e-17)
(1.02516 -0.0418116 2.62424e-17)
(1.03375 -0.0185211 7.66873e-18)
(0.969993 -0.0180039 -1.00574e-17)
(1.01265 0.0486281 4.74008e-19)
(1.01177 0.049034 5.01169e-19)
(1.01092 0.049665 -7.04698e-19)
(1.01008 0.0501998 2.08791e-19)
(1.00927 0.0507253 7.35904e-20)
(1.00851 0.0511987 5.01075e-19)
(1.00781 0.0516077 5.05913e-20)
(1.0072 0.0519338 -7.10019e-19)
(1.00668 0.0521587 2.70285e-19)
(1.00625 0.0522663 2.28564e-19)
(1.00594 0.0522438 -2.53439e-20)
(1.00574 0.0520813 2.3987e-19)
(1.00564 0.0517737 8.82121e-20)
(1.00563 0.0513208 -6.74207e-19)
(1.00571 0.0507268 1.7447e-19)
(1.00586 0.0500033 3.32633e-19)
(1.00605 0.0491659 -1.24603e-19)
(1.00627 0.0482368 -7.17348e-19)
(1.00651 0.0472374 7.29618e-19)
(1.00675 0.0461963 -1.5929e-19)
(1.00698 0.0451376 -3.09181e-19)
(1.00718 0.0440874 1.19456e-19)
(1.00736 0.0430624 -6.87477e-20)
(1.00751 0.042082 7.75324e-20)
(1.00762 0.041149 -3.55801e-19)
(1.00769 0.0402731 6.59337e-20)
(1.00772 0.0394522 -2.95449e-19)
(1.0077 0.0386897 1.99826e-19)
(1.00761 0.0379755 2.26116e-19)
(1.00746 0.0372916 2.70239e-20)
(1.00724 0.0366304 -2.39198e-19)
(1.00693 0.0359891 -1.7397e-19)
(1.00653 0.0353544 1.69925e-19)
(1.00604 0.0347038 2.91441e-19)
(1.00545 0.034016 -3.48452e-19)
(1.00476 0.0332672 1.23077e-19)
(1.004 0.0324401 2.01658e-19)
(1.00318 0.0315077 1.69667e-19)
(1.00232 0.03044 9.02926e-20)
(1.00149 0.0292076 9.20448e-20)
(1.00073 0.0277795 4.86125e-20)
(1.0001 0.0261875 -2.16872e-20)
(0.999647 0.0244645 8.41077e-20)
(0.999273 0.0227076 -3.13853e-19)
(0.999086 0.0208932 -6.19772e-20)
(0.999146 0.0191173 -7.37268e-19)
(0.999409 0.0174201 3.87289e-19)
(0.999624 0.0157618 1.78858e-19)
(0.999593 0.0141363 3.58251e-19)
(0.999053 0.0124181 1.61146e-18)
(0.997846 0.0104385 2.85203e-18)
(0.995994 0.00786286 -6.63214e-18)
(0.994339 0.00373819 3.61156e-18)
(0.993769 -0.00254099 -5.42589e-18)
(0.995491 -0.011039 -4.60764e-18)
(0.999978 -0.021486 1.37638e-17)
(1.00781 -0.0332395 -4.18696e-18)
(1.02707 -0.0442439 -2.69377e-18)
(1.03562 -0.0200967 -2.59093e-17)
(0.970379 -0.0197872 7.97587e-17)
(1.01399 0.0495417 -3.78311e-19)
(1.0131 0.049937 5.77551e-19)
(1.01223 0.0505791 -7.10381e-20)
(1.01136 0.0511399 -3.79292e-19)
(1.0105 0.0517082 6.11493e-19)
(1.00966 0.0522454 -4.94264e-19)
(1.00887 0.0527422 2.31502e-19)
(1.00814 0.0531815 -1.4829e-19)
(1.00747 0.0535454 -1.39173e-19)
(1.0069 0.0538168 4.5234e-19)
(1.00642 0.0539807 2.38096e-19)
(1.00604 0.0540231 -6.27077e-19)
(1.00576 0.0539331 3.7706e-20)
(1.00559 0.0537038 -2.14105e-19)
(1.00551 0.0533311 2.16517e-19)
(1.00551 0.0528187 1.2467e-19)
(1.00558 0.0521733 1.77127e-19)
(1.00569 0.0514098 -3.68406e-19)
(1.00584 0.0505429 3.13988e-19)
(1.00601 0.049597 -2.35129e-19)
(1.00618 0.0485935 1.61368e-20)
(1.00634 0.047559 4.46623e-19)
(1.00649 0.0465122 -4.1069e-19)
(1.00661 0.0454772 5.09498e-19)
(1.0067 0.0444625 -2.00142e-19)
(1.00676 0.0434846 2.88076e-19)
(1.00678 0.042548 1.32363e-19)
(1.00675 0.0416626 -9.59472e-20)
(1.00668 0.040823 -5.94649e-20)
(1.00654 0.040017 -2.06865e-19)
(1.00634 0.0392406 4.07879e-19)
(1.00607 0.0384931 -1.20771e-19)
(1.00572 0.0377652 1.09149e-19)
(1.00528 0.0370345 -1.98585e-19)
(1.00474 0.0362812 -1.33004e-19)
(1.00411 0.0354814 -2.28448e-19)
(1.00339 0.0346169 8.46769e-20)
(1.0026 0.0336583 1.13319e-19)
(1.00177 0.0325699 8.62866e-20)
(1.00094 0.0313166 -6.33342e-20)
(1.00014 0.0298653 -3.70092e-20)
(0.999437 0.0282398 -2.16705e-20)
(0.998886 0.0264647 -6.15594e-20)
(0.998404 0.0246519 2.85345e-19)
(0.998053 0.0228077 4.60349e-19)
(0.997887 0.0209981 -2.84731e-19)
(0.997895 0.0192586 -3.15386e-19)
(0.997848 0.0175197 9.94218e-20)