1.45 	0 	0 	0.000237893 	-0.00335943 	3.97154e-21
2.35 	0 	0 	0.0956014 	-0.00784085 	2.17698e-21
