1.275 	2.15223e-18 	-2.76991e-20 	-0.0325634 	-0.000497313 	-2.03041e-22
1.825 	2.15223e-18 	-1.39322e-20 	-0.00728648 	-0.00291367 	1.81564e-21
2.375 	2.15223e-18 	-2.66896e-23 	0.12558 	-0.00355198 	-7.5444e-22
