1.45 	0 	0 	-0.300035
2.35 	0 	0 	-0.133372
