1.45 	0 	0 	-0.00730917 	-0.00261774 	3.86513e-21
2.35 	0 	0 	0.0634649 	-0.00670254 	2.39489e-21
