1.275 	2.15223e-18 	-2.76991e-20 	-0.03378 	-0.000446493 	-1.9994e-22
1.825 	2.15223e-18 	-1.39322e-20 	-0.00823885 	-0.00280566 	1.79812e-21
2.375 	2.15223e-18 	-2.66896e-23 	0.118745 	-0.00333966 	-7.50343e-22
