1.45 	0 	0 	-0.291927
2.35 	0 	0 	-0.127251
