1.45 	0 	0 	-0.00791982 	-0.00257951 	3.80374e-21
2.35 	0 	0 	0.0617573 	-0.00664533 	2.31539e-21
