1.275 	2.15223e-18 	-2.76991e-20 	-0.0336841 	-0.000451556 	-2.00288e-22
1.825 	2.15223e-18 	-1.39322e-20 	-0.00808376 	-0.00281986 	1.80142e-21
2.375 	2.15223e-18 	-2.66896e-23 	0.119174 	-0.00335823 	-7.51616e-22
