1.275 	2.15223e-18 	-2.76991e-20 	-0.0344806 	-0.000439413 	-1.90266e-22
1.825 	2.15223e-18 	-1.39322e-20 	-0.00949892 	-0.00275535 	1.67773e-21
2.375 	2.15223e-18 	-2.66896e-23 	0.115201 	-0.0032304 	-6.99742e-22
