1.45 	0 	0 	-0.293832
2.35 	0 	0 	-0.128908
