1.275 	2.15223e-18 	-2.76991e-20 	-0.0344843 	-0.000440263 	-1.90085e-22
1.825 	2.15223e-18 	-1.39322e-20 	-0.00950486 	-0.00275741 	1.67532e-21
2.375 	2.15223e-18 	-2.66896e-23 	0.115182 	-0.00323196 	-6.98713e-22
