1.45 	0 	0 	-0.00813484 	-0.002586 	1.65343e-20
2.35 	0 	0 	0.0621262 	-0.00662893 	9.88735e-21
