/*--------------------------------*- C++ -*----------------------------------*\
  =========                 |
  \\      /  F ield         | OpenFOAM: The Open Source CFD Toolbox
   \\    /   O peration     | Website:  https://openfoam.org
    \\  /    A nd           | Version:  6.0
     \\/     M anipulation  |
\*---------------------------------------------------------------------------*/
FoamFile
{
    version     2.0;
    format      ascii;
    class       volScalarField;
    location    "1";
    object      p;
}
// * * * * * * * * * * * * * * * * * * * * * * * * * * * * * * * * * * * * * //

dimensions      [0 2 -2 0 0 0 0];

internalField   nonuniform List<scalar> 
62000
(
0.112166
0.111622
0.110207
0.107964
0.104963
0.101294
0.0970592
0.0923728
0.0873507
0.0821072
0.0767505
0.0713789
0.0660784
0.0609211
0.0559646
0.0512528
0.0468159
0.0426728
0.0388319
0.0352931
0.03205
0.0290908
0.0264006
0.0239617
0.0217556
0.0197631
0.0179654
0.0163441
0.0148823
0.0135638
0.0123739
0.0112992
0.0103275
0.00944801
0.00865099
0.00792762
0.00727039
0.00667233
0.00612748
0.00563047
0.00517654
0.0047616
0.00438181
0.00403407
0.00371537
0.00342317
0.00315521
0.00290939
0.00268402
0.00247741
0.00228819
0.00211511
0.00195699
0.00181298
0.0016822
0.00156401
0.00145804
0.0013642
0.00128325
0.00121845
0.112499
0.112025
0.110745
0.108698
0.105945
0.102565
0.0986499
0.0943019
0.0896248
0.084722
0.0796917
0.0746241
0.069599
0.064684
0.0599343
0.0553925
0.0510894
0.0470453
0.0432709
0.039769
0.0365363
0.0335643
0.0308413
0.0283527
0.0260827
0.0240147
0.0221322
0.0204188
0.018859
0.0174382
0.0161428
0.0149603
0.0138795
0.01289
0.0119827
0.0111492
0.0103824
0.00967551
0.00902294
0.00841949
0.00786059
0.00734235
0.00686107
0.00641384
0.00599778
0.00561053
0.00524997
0.00491415
0.00460157
0.00431072
0.0040404
0.00378957
0.00355728
0.00334293
0.00314595
0.00296606
0.00280335
0.00265838
0.00253287
0.0024306
0.113137
0.112727
0.11157
0.109698
0.107167
0.104047
0.100421
0.0963797
0.0920159
0.0874236
0.0826922
0.0779044
0.0731343
0.0684451
0.0638895
0.0595088
0.0553339
0.0513861
0.0476779
0.0442145
0.0409953
0.0380147
0.0352636
0.0327303
0.0304017
0.0282633
0.0263008
0.0244996
0.0228458
0.0213262
0.0199284
0.0186408
0.017453
0.0163552
0.015339
0.0143964
0.0135207
0.0127056
0.0119455
0.0112356
0.0105716
0.00994977
0.00936657
0.00881931
0.00830527
0.00782225
0.00736833
0.0069417
0.00654108
0.00616511
0.00581279
0.0054833
0.0051759
0.00489025
0.00462604
0.00438331
0.00416255
0.0039647
0.00379175
0.0036472
0.114062
0.113712
0.112664
0.110951
0.108621
0.105736
0.102371
0.0986069
0.0945279
0.0902187
0.085761
0.0812307
0.0766963
0.0722172
0.0678433
0.0636146
0.0595619
0.055707
0.0520638
0.0486396
0.045436
0.0424496
0.0396743
0.0371005
0.0347175
0.032513
0.0304746
0.0285894
0.0268453
0.02523
0.0237325
0.0223421
0.0210492
0.0198447
0.0187209
0.0176702
0.0166862
0.0157631
0.0148957
0.0140794
0.0133101
0.0125843
0.0118987
0.0112508
0.0106381
0.0100585
0.0095104
0.00899209
0.00850248
0.00804042
0.00760511
0.00719592
0.00681234
0.00645426
0.00612162
0.00581474
0.00553435
0.00528162
0.0050586
0.00486812
0.11526
0.114963
0.114016
0.112446
0.110297
0.107625
0.104496
0.100984
0.0971636
0.0931128
0.0889057
0.0846122
0.0802955
0.0760114
0.0718073
0.0677216
0.0637845
0.0600185
0.0564385
0.0530532
0.0498663
0.0468765
0.0440797
0.0414687
0.0390349
0.0367678
0.034657
0.0326913
0.0308597
0.0291516
0.0275568
0.0260656
0.0246694
0.0233596
0.0221293
0.0209712
0.0198796
0.0188488
0.0178741
0.0169512
0.0160763
0.0152461
0.0144576
0.0137084
0.0129963
0.0123193
0.0116761
0.0110652
0.0104856
0.00993634
0.00941693
0.0089269
0.00846593
0.00803416
0.00763174
0.0072592
0.00691747
0.00660784
0.00633221
0.006093
0.116717
0.11647
0.115613
0.114173
0.112188
0.109708
0.106794
0.10351
0.0999256
0.0961107
0.0921331
0.0880571
0.0839414
0.0798382
0.0757921
0.0718403
0.0680124
0.0643309
0.0608115
0.0574642
0.0542943
0.0513024
0.0484863
0.0458407
0.0433588
0.0410322
0.038852
0.0368084
0.0348921
0.0330933
0.0314033
0.0298132
0.0283151
0.0269013
0.0255652
0.0243004
0.0231015
0.0219633
0.0208814
0.0198517
0.0188708
0.0179357
0.0170436
0.0161924
0.01538
0.0146048
0.0138655
0.0131608
0.0124901
0.0118526
0.0112479
0.0106757
0.0101361
0.00962921
0.00915552
0.00871571
0.00831083
0.00794223
0.00761172
0.00732131
0.11842
0.118219
0.117446
0.116124
0.114287
0.111982
0.109262
0.106186
0.102816
0.0992167
0.0954493
0.0915731
0.0876426
0.0837066
0.0798075
0.0759808
0.0722552
0.0686535
0.0651916
0.0618809
0.0587278
0.0557344
0.0529003
0.050222
0.0476943
0.0453105
0.0430632
0.0409441
0.0389452
0.0370579
0.0352744
0.0335868
0.0319881
0.0304712
0.0290302
0.0276592
0.0263533
0.0251076
0.0239183
0.0227816
0.0216942
0.0206537
0.0196572
0.0187031
0.0177896
0.0169151
0.0160786
0.0152791
0.014516
0.0137889
0.0130976
0.012442
0.0118222
0.0112387
0.0106922
0.0101834
0.00971348
0.00928388
0.00889628
0.00855247
0.120361
0.120203
0.119506
0.118291
0.116589
0.114443
0.111899
0.109012
0.105838
0.102435
0.0988597
0.0951669
0.091407
0.0876255
0.0838627
0.0801522
0.0765223
0.0729953
0.0695877
0.0663115
0.0631742
0.0601794
0.0573282
0.0546183
0.0520465
0.0496073
0.0472948
0.0451021
0.0430222
0.041048
0.0391724
0.0373886
0.0356902
0.034071
0.0325256
0.0310487
0.0296359
0.0282828
0.0269858
0.0257415
0.0245472
0.0234004
0.0222989
0.021241
0.0202252
0.0192503
0.0183155
0.0174199
0.0165632
0.0157452
0.0149658
0.0142252
0.0135238
0.0128621
0.012241
0.0116614
0.0111246
0.0106319
0.0101851
0.00978583
0.12253
0.122412
0.121785
0.120667
0.119089
0.117086
0.114703
0.111988
0.108992
0.105769
0.102369
0.0988448
0.0952417
0.0916027
0.0879658
0.0843631
0.080822
0.0773646
0.0740075
0.0707634
0.0676406
0.064644
0.0617758
0.0590352
0.0564202
0.0539269
0.0515507
0.0492858
0.0471264
0.0450665
0.0431
0.0412209
0.0394236
0.0377026
0.0360532
0.0344705
0.0329507
0.0314899
0.0300848
0.0287326
0.0274306
0.0261768
0.0249692
0.0238065
0.0226874
0.0216109
0.0205764
0.0195833
0.0186317
0.0177212
0.0168523
0.0160251
0.0152404
0.0144988
0.0138013
0.013149
0.0125433
0.0119856
0.0114775
0.0110207
0.124919
0.124839
0.124276
0.123248
0.121781
0.11991
0.117673
0.115114
0.112281
0.109221
0.105983
0.102613
0.0991535
0.0956456
0.0921247
0.0886216
0.0851626
0.0817695
0.078459
0.0752442
0.0721342
0.0691347
0.0662492
0.0634782
0.0608207
0.0582742
0.0558351
0.053499
0.0512612
0.0491165
0.0470598
0.045086
0.0431903
0.0413678
0.0396145
0.037926
0.0362991
0.0347302
0.0332165
0.0317556
0.0303451
0.0289834
0.0276687
0.0264001
0.0251764
0.023997
0.0228615
0.0217696
0.0207213
0.0197169
0.0187568
0.0178414
0.0169716
0.0161483
0.0153726
0.0146457
0.0139691
0.0133442
0.0127728
0.0122563
0.127522
0.127476
0.126973
0.126027
0.124663
0.122911
0.120807
0.118391
0.115706
0.112796
0.109705
0.106476
0.103149
0.0997609
0.0963466
0.0929349
0.0895514
0.0862173
0.0829493
0.0797607
0.0766614
0.0736578
0.0707543
0.0679525
0.0652527
0.0626533
0.060152
0.0577453
0.0554297
0.0532008
0.0510546
0.0489865
0.0469926
0.0450688
0.0432115
0.041417
0.0396825
0.0380049
0.0363821
0.0348116
0.0332917
0.031821
0.0303981
0.0290223
0.0276927
0.026409
0.025171
0.0239787
0.0228323
0.0217322
0.0206792
0.0196738
0.018717
0.0178101
0.0169542
0.0161507
0.0154011
0.014707
0.0140701
0.0134919
0.130332
0.13032
0.129872
0.129002
0.127731
0.126088
0.124106
0.12182
0.11927
0.116497
0.11354
0.110439
0.107233
0.103955
0.100638
0.0973104
0.0939958
0.0907153
0.0874854
0.0843198
0.0812287
0.0782193
0.0752968
0.0724636
0.0697213
0.067069
0.0645057
0.0620287
0.0596356
0.0573228
0.0550871
0.0529249
0.0508328
0.0488075
0.0468459
0.044945
0.0431025
0.0413156
0.0395827
0.0379018
0.0362714
0.0346906
0.0331582
0.0316738
0.0302369
0.0288474
0.0275053
0.0262109
0.0249646
0.0237672
0.0226193
0.0215221
0.0204765
0.0194839
0.0185458
0.0176635
0.0168388
0.0160733
0.0153689
0.0147269
0.133345
0.133366
0.132969
0.132168
0.130983
0.12944
0.127568
0.125401
0.122974
0.120325
0.11749
0.114507
0.111411
0.108234
0.105006
0.101754
0.0985023
0.09527
0.092074
0.0889279
0.0858423
0.082825
0.079882
0.0770166
0.0742311
0.0715257
0.0689001
0.0663528
0.0638821
0.0614854
0.0591602
0.0569037
0.0547133
0.0525861
0.0505199
0.048512
0.0465606
0.0446636
0.0428197
0.0410272
0.0392853
0.037593
0.0359497
0.0343553
0.0328096
0.0313126
0.0298647
0.0284664
0.0271185
0.0258217
0.0245771
0.023386
0.0222495
0.0211693
0.0201468
0.0191836
0.0182817
0.0174426
0.0166683
0.0159603
0.136556
0.136608
0.136259
0.135522
0.134416
0.132964
0.131193
0.129134
0.12682
0.124284
0.121561
0.118685
0.115689
0.112603
0.109456
0.106274
0.103078
0.0998882
0.0967214
0.0935912
0.0905082
0.0874809
0.0845157
0.0816167
0.078787
0.0760278
0.0733395
0.0707215
0.0681729
0.065692
0.063277
0.0609258
0.0586366
0.056407
0.0542354
0.0521197
0.0500586
0.0480506
0.0460944
0.0441893
0.0423343
0.0405292
0.0387736
0.0370676
0.0354112
0.033805
0.0322496
0.0307455
0.029294
0.0278959
0.0265526
0.0252656
0.0240361
0.022866
0.0217569
0.0207106
0.0197291
0.0188142
0.0179678
0.0171916
0.139963
0.140045
0.139741
0.139063
0.138029
0.13666
0.134982
0.133021
0.130809
0.128376
0.125755
0.122976
0.120071
0.117068
0.113994
0.110873
0.107727
0.104576
0.101434
0.0983156
0.0952322
0.0921922
0.0892029
0.0862688
0.0833937
0.0805796
0.0778278
0.0751385
0.0725114
0.0699457
0.0674403
0.0649938
0.0626051
0.0602723
0.0579945
0.0557701
0.0535983
0.0514779
0.0494084
0.0473891
0.0454197
0.0435002
0.0416305
0.0398112
0.0380425
0.0363253
0.0346603
0.0330485
0.0314913
0.0299899
0.0285458
0.0271606
0.0258359
0.0245736
0.0233757
0.022244
0.0211806
0.0201875
0.0192667
0.01842
0.143563
0.143673
0.143411
0.142788
0.141821
0.140528
0.138934
0.137063
0.134944
0.132605
0.130076
0.127385
0.124563
0.121634
0.118626
0.11556
0.112458
0.109339
0.106217
0.103107
0.10002
0.0969647
0.093949
0.0909779
0.0880559
0.0851857
0.0823693
0.0796077
0.0769013
0.0742499
0.0716533
0.0691107
0.0666214
0.0641845
0.0617994
0.0594651
0.0571814
0.0549474
0.052763
0.0506281
0.0485427
0.0465072
0.0445217
0.0425872
0.0407043
0.038874
0.0370975
0.0353759
0.0337109
0.0321039
0.0305567
0.029071
0.0276488
0.0262921
0.0250029
0.0237834
0.0226357
0.0215619
0.0205643
0.0196447
0.147352
0.14749
0.147268
0.146696
0.14579
0.144568
0.14305
0.141262
0.139227
0.136973
0.134527
0.131916
0.129167
0.126306
0.123356
0.120339
0.117275
0.114183
0.111077
0.107971
0.104877
0.101803
0.0987589
0.0957487
0.0927781
0.0898503
0.086968
0.0841327
0.0813459
0.0786078
0.0759189
0.073279
0.0706882
0.068146
0.0656524
0.0632069
0.0608097
0.0584606
0.0561599
0.0539077
0.0517046
0.0495511
0.0474479
0.0453963
0.0433971
0.0414517
0.0395615
0.0377279
0.0359529
0.034238
0.0325854
0.0309969
0.0294747
0.0280211
0.0266382
0.0253284
0.0240939
0.022937
0.0218601
0.0208651
0.151331
0.151496
0.151311
0.150787
0.149937
0.148779
0.147332
0.145617
0.143659
0.141482
0.139112
0.136573
0.13389
0.131088
0.128189
0.125215
0.122184
0.119113
0.116018
0.112913
0.109808
0.106714
0.103638
0.100586
0.097565
0.0945777
0.0916279
0.0887177
0.0858489
0.0830228
0.0802403
0.0775019
0.0748082
0.0721592
0.0695557
0.0669974
0.0644853
0.0620195
0.0596006
0.0572294
0.0549066
0.0526333
0.0504104
0.0482396
0.0461219
0.0440592
0.042053
0.0401051
0.0382177
0.0363926
0.034632
0.0329383
0.0313137
0.0297606
0.0282815
0.0268787
0.0255548
0.0243122
0.0231534
0.0220806
0.155496
0.155688
0.155539
0.155059
0.154262
0.153162
0.151779
0.150133
0.148244
0.146136
0.143833
0.141359
0.138735
0.135986
0.133132
0.130193
0.127189
0.124135
0.121048
0.117938
0.11482
0.111701
0.10859
0.105495
0.102421
0.0993721
0.096353
0.0933661
0.0904139
0.0874982
0.0846206
0.0817821
0.0789839
0.0762266
0.0735115
0.0708389
0.0682101
0.0656257
0.0630868
0.0605945
0.0581501
0.0557548
0.0534101
0.0511178
0.0488795
0.0466971
0.0445726
0.042508
0.0405056
0.0385678
0.0366968
0.0348953
0.0331655
0.0315104
0.0299323
0.028434
0.0270181
0.0256872
0.0244438
0.0232904
0.159848
0.160066
0.159951
0.159513
0.158764
0.157719
0.156394
0.154809
0.152983
0.150938
0.148695
0.146278
0.143706
0.141003
0.138188
0.13528
0.132297
0.129255
0.126169
0.123052
0.119916
0.116769
0.113621
0.11048
0.10735
0.104238
0.101147
0.0980819
0.0950445
0.0920374
0.0890629
0.0861226
0.0832183
0.0803509
0.0775224
0.0747336
0.0719861
0.0692811
0.0666202
0.0640049
0.0614365
0.0589171
0.0564483
0.0540322
0.0516708
0.0493663
0.0471209
0.044937
0.0428173
0.040764
0.03878
0.0368679
0.0350304
0.0332704
0.0315907
0.0299941
0.0284834
0.0270614
0.0257308
0.024494
0.164387
0.16463
0.164548
0.164149
0.163444
0.162448
0.161177
0.159647
0.157878
0.155889
0.153701
0.151333
0.148808
0.146144
0.143361
0.140478
0.137511
0.134477
0.131388
0.128259
0.125101
0.121923
0.118736
0.115545
0.112357
0.109179
0.106015
0.102869
0.0997441
0.0966437
0.0935704
0.0905264
0.0875139
0.0845346
0.0815907
0.0786835
0.0758154
0.0729877
0.0702026
0.0674618
0.0647673
0.0621214
0.059526
0.0569837
0.0544967
0.0520675
0.0496987
0.0473928
0.0451529
0.0429816
0.0408817
0.0388563
0.0369083
0.0350407
0.0332565
0.0315587
0.0299504
0.0284344
0.0270137
0.0256908
0.169111
0.169381
0.16933
0.168967
0.168304
0.167354
0.166131
0.164651
0.162933
0.160994
0.158853
0.15653
0.154044
0.151413
0.148658
0.145794
0.142838
0.139805
0.13671
0.133565
0.130382
0.127169
0.123938
0.120695
0.117447
0.1142
0.11096
0.107731
0.104516
0.101321
0.0981464
0.0949965
0.0918737
0.0887803
0.0857188
0.0826912
0.0797001
0.0767474
0.0738357
0.0709671
0.0681441
0.0653692
0.0626446
0.0599735
0.0573581
0.0548016
0.0523066
0.0498761
0.0475132
0.0452209
0.0430024
0.0408608
0.0387993
0.0368212
0.0349296
0.0331277
0.0314188
0.0298059
0.0282922
0.0268803
0.174023
0.174318
0.174296
0.173968
0.173343
0.172435
0.171256
0.169822
0.168149
0.166254
0.164156
0.161871
0.159418
0.156816
0.154081
0.151231
0.148281
0.145246
0.142139
0.138974
0.135761
0.132511
0.129233
0.125934
0.122623
0.119305
0.115986
0.112671
0.109365
0.106071
0.102794
0.0995358
0.0963005
0.0930905
0.0899092
0.0867587
0.0836423
0.0805622
0.0775214
0.0745225
0.0715682
0.0686616
0.0658053
0.0630025
0.0602562
0.0575694
0.0549455
0.0523874
0.0498986
0.0474825
0.0451423
0.0428816
0.0407036
0.0386119
0.0366099
0.034701
0.0328885
0.0311757
0.0295659
0.028062
0.179122
0.179442
0.17945
0.179154
0.178565
0.177695
0.176556
0.175163
0.17353
0.171674
0.169612
0.16736
0.164935
0.162355
0.159636
0.156795
0.153845
0.150803
0.147681
0.144491
0.141245
0.137953
0.134625
0.131268
0.12789
0.124497
0.121097
0.117694
0.114294
0.110899
0.107516
0.104148
0.100797
0.0974682
0.0941645
0.0908886
0.0876442
0.0844341
0.0812615
0.0781296
0.0750414
0.0720004
0.0690094
0.0660722
0.0631919
0.0603721
0.0576161
0.0549274
0.0523098
0.0497668
0.0473019
0.0449189
0.0426214
0.040413
0.0382975
0.0362783
0.0343591
0.0325433
0.0308344
0.0292354
0.18441
0.184755
0.18479
0.184525
0.18397
0.183134
0.182032
0.180675
0.179078
0.177256
0.175225
0.173
0.170598
0.168035
0.165327
0.162489
0.159536
0.156482
0.15334
0.150121
0.146838
0.143501
0.140118
0.136699
0.133252
0.129782
0.126298
0.122803
0.119305
0.115808
0.112317
0.108835
0.105367
0.101916
0.0984871
0.0950831
0.091708
0.088365
0.085058
0.0817902
0.0785652
0.0753868
0.0722582
0.0691836
0.0661664
0.0632103
0.0603193
0.057497
0.0547474
0.0520742
0.0494815
0.0469731
0.0445528
0.0422246
0.0399923
0.0378597
0.0358306
0.0339086
0.0320974
0.0304001
0.189887
0.190257
0.19032
0.190084
0.18956
0.188757
0.187687
0.186362
0.184797
0.183004
0.180999
0.178797
0.176412
0.173861
0.171158
0.168319
0.165357
0.162287
0.15912
0.155869
0.152545
0.149158
0.145718
0.142233
0.138713
0.135163
0.131591
0.128003
0.124405
0.120801
0.117198
0.1136
0.110012
0.106436
0.10288
0.0993447
0.095836
0.0923573
0.0889127
0.0855061
0.0821413
0.0788224
0.0755532
0.0723381
0.0691807
0.0660854
0.0630561
0.0600968
0.057212
0.0544055
0.0516816
0.0490445
0.0464981
0.0440468
0.0416945
0.0394452
0.0373028
0.0352714
0.0333546
0.0315557
0.195556
0.195951
0.196041
0.195833
0.195337
0.194563
0.193523
0.192227
0.190688
0.188921
0.186937
0.184752
0.18238
0.179836
0.177134
0.174289
0.171314
0.168222
0.165026
0.161738
0.158369
0.154929
0.151428
0.147875
0.144277
0.140644
0.136981
0.133296
0.129594
0.125882
0.122165
0.118447
0.114735
0.111033
0.107345
0.103676
0.10003
0.0964129
0.0928278
0.0892791
0.0857713
0.0823089
0.0788957
0.0755368
0.0722361
0.0689981
0.0658272
0.0627277
0.0597043
0.0567611
0.0539027
0.0511335
0.0484577
0.0458798
0.0434041
0.0410347
0.0387757
0.0366314
0.0346056
0.0327019
0.201418
0.201839
0.201955
0.201773
0.201304
0.200557
0.199543
0.198272
0.196757
0.195009
0.193043
0.190871
0.188507
0.185965
0.183259
0.180403
0.17741
0.174293
0.171064
0.167735
0.164317
0.160819
0.157253
0.153627
0.14995
0.146229
0.142472
0.138686
0.134878
0.131054
0.127219
0.123379
0.11954
0.115707
0.111885
0.108079
0.104294
0.100534
0.0968051
0.0931112
0.0894571
0.0858477
0.0822873
0.0787813
0.0753338
0.0719497
0.0686338
0.0653906
0.0622251
0.0591418
0.0561454
0.0532406
0.0504319
0.047724
0.0451213
0.0426283
0.0402493
0.0379886
0.0358505
0.0338384
0.207476
0.207922
0.208063
0.207907
0.207463
0.20674
0.20575
0.204501
0.203005
0.201274
0.199321
0.197157
0.194796
0.192252
0.189538
0.186666
0.18365
0.180504
0.177237
0.173862
0.170391
0.166832
0.163198
0.159495
0.155734
0.151922
0.148068
0.144178
0.14026
0.13632
0.132364
0.128399
0.12443
0.120463
0.116503
0.112556
0.108628
0.104723
0.100847
0.0970041
0.0932003
0.0894405
0.0857294
0.0820726
0.0784748
0.0749412
0.0714767
0.0680863
0.0647752
0.0615481
0.0584101
0.0553662
0.0524209
0.0495794
0.0468462
0.0442261
0.0417235
0.0393429
0.0370889
0.034965
0.213731
0.214204
0.21437
0.214238
0.213817
0.213117
0.212146
0.210916
0.209436
0.207718
0.205774
0.203614
0.201252
0.198701
0.195974
0.193083
0.19004
0.186859
0.18355
0.180126
0.176597
0.172974
0.169266
0.165483
0.161635
0.157728
0.153773
0.149775
0.145743
0.141684
0.137604
0.133509
0.129407
0.125302
0.121202
0.117111
0.113036
0.108982
0.104955
0.10096
0.0970028
0.093089
0.0892235
0.0854125
0.0816607
0.0779739
0.0743572
0.0708158
0.0673554
0.0639809
0.0606976
0.0575108
0.0544253
0.0514465
0.0485792
0.0458282
0.0431984
0.0406943
0.0383207
0.0360814
0.220188
0.220686
0.220877
0.220768
0.220369
0.219689
0.218737
0.217522
0.216055
0.214346
0.212406
0.210247
0.207879
0.205317
0.202572
0.199657
0.196583
0.193363
0.190008
0.18653
0.18294
0.179247
0.175462
0.171595
0.167655
0.163651
0.15959
0.155481
0.151332
0.147149
0.142941
0.138714
0.134474
0.130228
0.125984
0.121745
0.11752
0.113313
0.109131
0.10498
0.100866
0.0967947
0.0927712
0.0888021
0.0848926
0.0810487
0.077276
0.0735799
0.0699664
0.0664407
0.0630084
0.0596749
0.0564455
0.0533257
0.0503204
0.0474349
0.0446741
0.0420428
0.039546
0.0371876
0.226847
0.227372
0.227587
0.227501
0.227122
0.22646
0.225523
0.224321
0.222864
0.22116
0.219222
0.217058
0.214682
0.212104
0.209338
0.206394
0.203284
0.200021
0.196616
0.193079
0.189423
0.185656
0.181791
0.177836
0.1738
0.169693
0.165524
0.1613
0.157029
0.15272
0.14838
0.144016
0.139635
0.135245
0.130851
0.126461
0.122082
0.117718
0.113378
0.109068
0.104793
0.10056
0.0963741
0.092243
0.088172
0.0841671
0.0802345
0.0763798
0.0726093
0.0689285
0.0653432
0.0618592
0.058482
0.0552172
0.0520702
0.0490463
0.0461507
0.0433885
0.0407646
0.0382834
0.233714
0.234265
0.234504
0.234439
0.234079
0.233434
0.23251
0.231318
0.229867
0.228166
0.226225
0.224054
0.221664
0.219066
0.216274
0.213297
0.210147
0.206837
0.203377
0.199778
0.196051
0.192207
0.188257
0.184209
0.180074
0.17586
0.171578
0.167234
0.162839
0.158399
0.153923
0.149418
0.144893
0.140353
0.135808
0.131262
0.126724
0.122201
0.117698
0.113224
0.108784
0.104385
0.100034
0.0957367
0.0915
0.0873302
0.0832337
0.0792163
0.0752848
0.0714449
0.0677027
0.0640643
0.0605352
0.0571216
0.0538289
0.0506627
0.0476284
0.0447313
0.0419766
0.0393688
0.24079
0.241368
0.241631
0.241587
0.241245
0.240613
0.239701
0.238517
0.237069
0.235366
0.233419
0.231237
0.22883
0.226209
0.223386
0.220372
0.217178
0.213816
0.210296
0.206631
0.20283
0.198904
0.194864
0.190719
0.18648
0.182156
0.177756
0.17329
0.168765
0.16419
0.159574
0.154925
0.15025
0.145558
0.140855
0.13615
0.13145
0.126762
0.122093
0.117451
0.112842
0.108273
0.103752
0.0992846
0.0948782
0.0905393
0.0862747
0.0820907
0.0779941
0.0739909
0.0700877
0.0662907
0.0626058
0.0590393
0.0555969
0.0522844
0.0491075
0.0460716
0.0431821
0.0404436
0.248079
0.248685
0.248972
0.248947
0.248621
0.248003
0.2471
0.24592
0.244473
0.242766
0.24081
0.238612
0.236184
0.233535
0.230679
0.227623
0.22438
0.220962
0.217379
0.213642
0.209763
0.20575
0.201616
0.19737
0.193024
0.188584
0.184063
0.179469
0.17481
0.170096
0.165336
0.160538
0.15571
0.15086
0.145997
0.141128
0.136262
0.131405
0.126565
0.121751
0.116968
0.112226
0.10753
0.102888
0.0983078
0.0937957
0.0893588
0.0850038
0.0807378
0.0765673
0.0724989
0.0685392
0.0646943
0.0609708
0.0573746
0.0539117
0.0505881
0.0474094
0.0443811
0.0415082
0.255584
0.256219
0.256529
0.256523
0.256213
0.255606
0.25471
0.253533
0.252083
0.25037
0.2484
0.246184
0.243731
0.241051
0.238156
0.235055
0.231759
0.228281
0.22463
0.220817
0.216854
0.212751
0.208519
0.204168
0.199708
0.195149
0.190502
0.185776
0.180979
0.176122
0.171213
0.166261
0.161276
0.156264
0.151236
0.146199
0.141161
0.136131
0.131116
0.126125
0.121165
0.116244
0.11137
0.106549
0.101791
0.0971007
0.0924872
0.0879569
0.0835173
0.0791751
0.0749372
0.0708105
0.0668013
0.0629166
0.0591624
0.055545
0.0520706
0.0487449
0.045574
0.0425623
0.263311
0.263974
0.264307
0.26432
0.264024
0.263426
0.262536
0.261359
0.259905
0.258181
0.256195
0.253957
0.251475
0.24876
0.245823
0.242672
0.239319
0.235776
0.232053
0.22816
0.224109
0.21991
0.215576
0.211114
0.206538
0.201855
0.197078
0.192214
0.187275
0.18227
0.177208
0.172098
0.16695
0.161773
0.156575
0.151364
0.146151
0.140943
0.135749
0.130577
0.125435
0.120331
0.115273
0.110269
0.105328
0.100456
0.095661
0.0909509
0.0863333
0.081815
0.0774033
0.0731052
0.0689276
0.0648773
0.0609609
0.0571848
0.0535553
0.0500786
0.0467606
0.0436064
0.271262
0.271954
0.27231
0.272342
0.272058
0.271469
0.270582
0.269403
0.267942
0.266205
0.2642
0.261936
0.259422
0.256668
0.253684
0.250479
0.247065
0.243453
0.239653
0.235676
0.231533
0.227234
0.222792
0.218216
0.213517
0.208706
0.203793
0.198788
0.193702
0.188544
0.183324
0.178052
0.172737
0.167388
0.162016
0.156628
0.151235
0.145844
0.140466
0.135108
0.129779
0.124487
0.119241
0.11405
0.108921
0.103862
0.0988816
0.0939873
0.0891871
0.0844882
0.0798981
0.0754243
0.0710737
0.0668536
0.0627705
0.0588314
0.0550426
0.0514105
0.0479414
0.0446403
0.279443
0.280163
0.280543
0.280591
0.28032
0.279738
0.278852
0.277669
0.276198
0.274445
0.272418
0.270126
0.267576
0.264778
0.261744
0.258482
0.255002
0.251316
0.247435
0.243368
0.239128
0.234725
0.230171
0.225475
0.22065
0.215706
0.210653
0.205502
0.200264
0.194948
0.189565
0.184125
0.178639
0.173114
0.167563
0.161992
0.156414
0.150836
0.145269
0.13972
0.134199
0.128715
0.123276
0.117892
0.112571
0.107321
0.10215
0.0970669
0.0920795
0.0871954
0.0824226
0.0777685
0.0732404
0.0688459
0.0645919
0.0604853
0.0565328
0.0527411
0.0491166
0.0456644
0.287857
0.288607
0.289009
0.289074
0.288814
0.288238
0.287351
0.286163
0.284679
0.282908
0.280855
0.278531
0.275941
0.273097
0.270009
0.266684
0.263134
0.259371
0.255403
0.251243
0.246902
0.242389
0.237718
0.232898
0.227941
0.222858
0.217661
0.212359
0.206963
0.201485
0.195935
0.190322
0.184659
0.178953
0.173217
0.16746
0.161692
0.155921
0.15016
0.144415
0.138698
0.133016
0.12738
0.121799
0.11628
0.110834
0.105468
0.100191
0.0950119
0.0899379
0.0849775
0.0801386
0.0754285
0.0708551
0.0664256
0.0621471
0.0580266
0.0540708
0.0502865
0.0466788
0.29651
0.297288
0.297712
0.297794
0.297545
0.296972
0.296084
0.294887
0.293389
0.291596
0.289516
0.287156
0.284523
0.281629
0.278482
0.275091
0.271467
0.267621
0.263563
0.259305
0.254857
0.25023
0.245437
0.240488
0.235395
0.230169
0.224821
0.219362
0.213805
0.208159
0.202436
0.196645
0.1908
0.184909
0.178983
0.173033
0.16707
0.161102
0.155141
0.149196
0.143277
0.137393
0.131554
0.12577
0.12005
0.114402
0.108837
0.103361
0.0979851
0.0927165
0.0875639
0.0825354
0.0776386
0.0728818
0.0682722
0.0638173
0.0595242
0.0554
0.0514514
0.047684
0.305405
0.306211
0.306658
0.306756
0.306517
0.305947
0.305056
0.303849
0.302333
0.300517
0.298405
0.296006
0.293327
0.290378
0.287169
0.283708
0.280005
0.276072
0.271919
0.267558
0.262999
0.258253
0.253333
0.248249
0.243015
0.23764
0.232137
0.226517
0.220792
0.214973
0.209072
0.203099
0.197066
0.190983
0.184863
0.178715
0.172552
0.166381
0.160216
0.154065
0.147938
0.141847
0.135801
0.129809
0.123882
0.118028
0.112257
0.106578
0.101
0.0955324
0.0901828
0.0849598
0.0798717
0.0749267
0.0701324
0.0654965
0.0610263
0.0567291
0.0526119
0.0486802
0.314545
0.315381
0.315851
0.315965
0.315734
0.315167
0.31427
0.313051
0.311517
0.309673
0.307528
0.305086
0.302358
0.29935
0.296075
0.292539
0.288753
0.28473
0.280477
0.276007
0.271332
0.266462
0.26141
0.256187
0.250806
0.245277
0.239614
0.233827
0.227929
0.221932
0.215847
0.209685
0.20346
0.19718
0.19086
0.184509
0.178139
0.171761
0.165385
0.159023
0.152684
0.146381
0.140121
0.133917
0.127777
0.121712
0.115731
0.109843
0.104059
0.0983866
0.0928349
0.0874128
0.0821285
0.0769906
0.0720069
0.0671853
0.0625334
0.0580587
0.0537683
0.049668
0.323933
0.324801
0.325295
0.325425
0.325203
0.324637
0.323733
0.322501
0.320945
0.319072
0.316889
0.314403
0.31162
0.308551
0.305205
0.301591
0.297717
0.293598
0.289241
0.284658
0.279862
0.274862
0.269674
0.264306
0.258772
0.253084
0.247255
0.241296
0.235219
0.229038
0.222764
0.216408
0.209984
0.203503
0.196977
0.190417
0.183835
0.177243
0.170652
0.164073
0.157517
0.150995
0.144517
0.138094
0.131737
0.125455
0.119259
0.113158
0.107162
0.10128
0.0955215
0.0898953
0.0844099
0.0790743
0.0738964
0.0688844
0.0640462
0.0593894
0.0549213
0.0506478
0.333574
0.334477
0.334996
0.335142
0.334928
0.334361
0.33345
0.332202
0.330622
0.328717
0.326494
0.323959
0.32112
0.317985
0.314565
0.310867
0.306902
0.302682
0.298215
0.293515
0.288592
0.283458
0.278127
0.272609
0.266918
0.261065
0.255064
0.248927
0.242667
0.236295
0.229826
0.223271
0.216643
0.209953
0.203216
0.196441
0.189643
0.182831
0.176019
0.169218
0.162438
0.155692
0.14899
0.142344
0.135764
0.12926
0.122844
0.116523
0.110311
0.104214
0.0982435
0.0924081
0.0867167
0.0811785
0.0758016
0.0705946
0.0655653
0.0607217
0.0560713
0.0516201
0.343476
0.344415
0.344959
0.345121
0.344914
0.344346
0.343426
0.34216
0.340554
0.338615
0.336349
0.333762
0.330862
0.327658
0.324159
0.320374
0.316312
0.311987
0.307406
0.302583
0.297529
0.292255
0.286776
0.281102
0.275248
0.269224
0.263046
0.256725
0.250275
0.243708
0.237038
0.230277
0.223439
0.216535
0.20958
0.202585
0.195564
0.188527
0.181488
0.174458
0.16745
0.160475
0.153543
0.146668
0.139859
0.133128
0.126485
0.119941
0.113506
0.10719
0.101002
0.0949523
0.0890499
0.0833041
0.0777234
0.0723164
0.0670914
0.0620562
0.057219
0.0525856
0.353647
0.354619
0.355189
0.355367
0.355167
0.354597
0.353666
0.35238
0.350746
0.34877
0.346458
0.343817
0.340853
0.337575
0.333994
0.330117
0.325954
0.321518
0.316818
0.311867
0.306676
0.301257
0.295624
0.289789
0.283765
0.277566
0.271204
0.264693
0.258047
0.251278
0.244402
0.237429
0.230375
0.223251
0.216073
0.208851
0.201601
0.194333
0.187061
0.179798
0.172554
0.165344
0.158177
0.151067
0.144024
0.13706
0.130186
0.123412
0.116749
0.110208
0.103798
0.0975288
0.0914103
0.085452
0.0796625
0.0740507
0.068625
0.0633938
0.058365
0.0535449
0.364087
0.365097
0.365693
0.365887
0.365693
0.36512
0.364177
0.36287
0.361205
0.359189
0.356828
0.354128
0.351097
0.347741
0.344074
0.3401
0.335831
0.331281
0.326457
0.321372
0.316039
0.310469
0.304677
0.298674
0.292476
0.286094
0.279543
0.272836
0.265988
0.259012
0.251922
0.244731
0.237455
0.230105
0.222697
0.215242
0.207757
0.200252
0.192741
0.185237
0.177753
0.170301
0.162894
0.155543
0.14826
0.141058
0.133946
0.126937
0.120042
0.11327
0.106632
0.100139
0.0937989
0.087623
0.0816197
0.0757982
0.0701672
0.064735
0.05951
0.0544985
0.374802
0.375852
0.376475
0.376685
0.376496
0.37592
0.374963
0.373633
0.371935
0.369877
0.367464
0.364703
0.361599
0.358163
0.354404
0.35033
0.345951
0.34128
0.336327
0.331103
0.325622
0.319896
0.313939
0.307763
0.301384
0.294813
0.288067
0.281158
0.274101
0.26691
0.259601
0.252186
0.244681
0.237099
0.229455
0.221761
0.214034
0.206286
0.19853
0.19078
0.183049
0.17535
0.167695
0.160098
0.152569
0.145122
0.137768
0.130518
0.123384
0.116377
0.109506
0.102783
0.0962165
0.0898179
0.0835959
0.0775597
0.0717184
0.0660805
0.0606546
0.0554471
0.385803
0.386892
0.387542
0.387768
0.387585
0.387003
0.386031
0.384676
0.382944
0.380841
0.378373
0.375546
0.372368
0.368846
0.364992
0.360812
0.356317
0.351522
0.346433
0.341066
0.335432
0.329542
0.323415
0.317059
0.310493
0.303728
0.296779
0.289662
0.28239
0.274979
0.267444
0.259798
0.252057
0.244236
0.236349
0.22841
0.220436
0.212437
0.20443
0.196427
0.188443
0.180491
0.172583
0.164733
0.156953
0.149256
0.141653
0.134157
0.126779
0.11953
0.112421
0.105462
0.0986643
0.0920377
0.0855918
0.079336
0.0732795
0.0674311
0.0617997
0.0563915
0.397096
0.398222
0.398899
0.399141
0.398963
0.398375
0.397387
0.396004
0.394235
0.392084
0.389559
0.386664
0.383406
0.379795
0.375841
0.371551
0.366936
0.36201
0.356782
0.351264
0.345471
0.339414
0.333109
0.326568
0.319808
0.312841
0.305685
0.298352
0.290859
0.28322
0.275452
0.267569
0.259587
0.251519
0.243384
0.235193
0.226963
0.218708
0.210443
0.202182
0.193938
0.185726
0.177558
0.16945
0.161412
0.153459
0.145602
0.137854
0.130226
0.12273
0.115377
0.108178
0.101143
0.0942833
0.0876084
0.081128
0.0748514
0.0687876
0.0629458
0.0573324
0.408682
0.409849
0.410554
0.410811
0.410637
0.410043
0.409036
0.407625
0.405816
0.403616
0.401029
0.398062
0.394721
0.391017
0.386959
0.382554
0.377814
0.372752
0.367378
0.361705
0.355746
0.349514
0.343026
0.336294
0.329334
0.322159
0.314787
0.307232
0.299511
0.291638
0.283631
0.275503
0.267272
0.258952
0.25056
0.24211
0.23362
0.225102
0.216572
0.208045
0.199535
0.191057
0.182624
0.174251
0.16595
0.157734
0.149617
0.14161
0.133727
0.125978
0.118376
0.110931
0.103654
0.0965556
0.0896466
0.0829364
0.0764347
0.0701508
0.0640939
0.0582704
0.420567