/*--------------------------------*- C++ -*----------------------------------*\
  =========                 |
  \\      /  F ield         | OpenFOAM: The Open Source CFD Toolbox
   \\    /   O peration     | Website:  https://openfoam.org
    \\  /    A nd           | Version:  6.0
     \\/     M anipulation  |
\*---------------------------------------------------------------------------*/
FoamFile
{
    version     2.0;
    format      ascii;
    class       volScalarField;
    location    "1";
    object      p;
}
// * * * * * * * * * * * * * * * * * * * * * * * * * * * * * * * * * * * * * //

dimensions      [0 2 -2 0 0 0 0];

internalField   nonuniform List<scalar> 
34500
(
1.04225
1.03544
1.02582
1.01714
1.01101
1.00711
1.00474
1.00326
1.00233
1.0017
1.00129
1.001
1.0008
1.00066
1.00059
1.04236
1.03591
1.0267
1.01827
1.01221
1.00826
1.0058
1.00422
1.00319
1.00249
1.00199
1.00164
1.00139
1.00123
1.00116
1.04253
1.0364
1.02758
1.01939
1.0134
1.0094
1.00686
1.00518
1.00406
1.00327
1.00271
1.00229
1.00199
1.00179
1.00171
1.04274
1.03692
1.02847
1.02051
1.01458
1.01054
1.00792
1.00615
1.00494
1.00407
1.00342
1.00294
1.00259
1.00236
1.00227
1.043
1.03747
1.02936
1.02163
1.01575
1.01169
1.00898
1.00712
1.00582
1.00486
1.00414
1.0036
1.0032
1.00294
1.00283
1.04331
1.03804
1.03026
1.02274
1.01693
1.01283
1.01004
1.0081
1.00671
1.00566
1.00487
1.00427
1.00382
1.00352
1.0034
1.04366
1.03865
1.03117
1.02385
1.0181
1.01397
1.01111
1.00908
1.0076
1.00647
1.00561
1.00493
1.00443
1.0041
1.00396
1.04406
1.03927
1.03208
1.02496
1.01927
1.01512
1.01219
1.01007
1.0085
1.00729
1.00635
1.00561
1.00506
1.00469
1.00452
1.04449
1.03993
1.03301
1.02607
1.02045
1.01627
1.01327
1.01106
1.0094
1.00811
1.00709
1.00629
1.00568
1.00528
1.00509
1.04497
1.04061
1.03394
1.02718
1.02162
1.01742
1.01435
1.01206
1.01031
1.00894
1.00784
1.00698
1.00632
1.00587
1.00567
1.04549
1.04132
1.03489
1.0283
1.02279
1.01857
1.01544
1.01306
1.01123
1.00977
1.0086
1.00767
1.00696
1.00647
1.00624
1.04604
1.04205
1.03585
1.02942
1.02397
1.01973
1.01653
1.01407
1.01215
1.01061
1.00936
1.00837
1.0076
1.00708
1.00682
1.04664
1.04281
1.03682
1.03054
1.02515
1.02089
1.01763
1.01509
1.01308
1.01146
1.01013
1.00907
1.00825
1.00769
1.0074
1.04726
1.04359
1.0378
1.03168
1.02634
1.02206
1.01873
1.01611
1.01402
1.01231
1.01091
1.00978
1.00891
1.0083
1.00799
1.04793
1.0444
1.0388
1.03281
1.02752
1.02323
1.01984
1.01714
1.01496
1.01317
1.01169
1.0105
1.00957
1.00892
1.00858
1.04863
1.04524
1.03981
1.03396
1.02872
1.02441
1.02096
1.01818
1.01592
1.01404
1.01249
1.01122
1.01023
1.00955
1.00918
1.04936
1.0461
1.04084
1.03511
1.02992
1.02559
1.02208
1.01923
1.01688
1.01492
1.01328
1.01195
1.0109
1.01018
1.00978
1.05013
1.04698
1.04188
1.03627
1.03112
1.02678
1.02321
1.02028
1.01784
1.0158
1.01409
1.01268
1.01158
1.01081
1.01038
1.05093
1.04789
1.04294
1.03744
1.03234
1.02797
1.02435
1.02134
1.01882
1.01669
1.0149
1.01342
1.01227
1.01145
1.01099
1.05176
1.04883
1.04402
1.03862
1.03356
1.02918
1.0255
1.02241
1.0198
1.01759
1.01572
1.01417
1.01296
1.01209
1.0116
1.05262
1.04979
1.04511
1.03981
1.03479
1.03039
1.02665
1.02349
1.02079
1.0185
1.01654
1.01493
1.01365
1.01274
1.01222
1.05352
1.05078
1.04622
1.04102
1.03603
1.03161
1.02781
1.02457
1.02179
1.01941
1.01737
1.01569
1.01435
1.0134
1.01285
1.05445
1.05179
1.04734
1.04223
1.03727
1.03283
1.02898
1.02567
1.0228
1.02033
1.01821
1.01646
1.01506
1.01406
1.01347
1.0554
1.05282
1.04849
1.04346
1.03853
1.03407
1.03016
1.02677
1.02382
1.02126
1.01906
1.01723
1.01577
1.01473
1.01411
1.05639
1.05388
1.04965
1.0447
1.0398
1.03532
1.03135
1.02788
1.02485
1.0222
1.01992
1.01801
1.01649
1.0154
1.01475
1.05741
1.05497
1.05083
1.04595
1.04108
1.03658
1.03255
1.02901
1.02588
1.02315
1.02078
1.0188
1.01722
1.01607
1.01539
1.05846
1.05608
1.05203
1.04722
1.04237
1.03784
1.03376
1.03014
1.02693
1.02411
1.02166
1.0196
1.01795
1.01676
1.01604
1.05953
1.05722
1.05325
1.0485
1.04367
1.03912
1.03498
1.03128
1.02798
1.02507
1.02254
1.0204
1.01869
1.01745
1.0167
1.06064
1.05838
1.05449
1.0498
1.04498
1.04041
1.03621
1.03243
1.02905
1.02605
1.02342
1.02121
1.01944
1.01814
1.01736
1.06178
1.05957
1.05575
1.05112
1.04631
1.04171
1.03746
1.0336
1.03012
1.02703
1.02432
1.02203
1.02019
1.01884
1.01802
1.06294
1.06079
1.05703
1.05245
1.04765
1.04302
1.03871
1.03477
1.0312
1.02802
1.02523
1.02286
1.02095
1.01955
1.01869
1.06414
1.06203
1.05833
1.05379
1.04901
1.04435
1.03997
1.03596
1.0323
1.02902
1.02614
1.02369
1.02171
1.02026
1.01937
1.06536
1.06329
1.05966
1.05516
1.05038
1.04569
1.04125
1.03715
1.0334
1.03004
1.02706
1.02453
1.02249
1.02098
1.02005
1.06662
1.06459
1.061
1.05654
1.05176
1.04704
1.04254
1.03836
1.03452
1.03106
1.02799
1.02538
1.02327
1.02171
1.02074
1.0679
1.06591
1.06237
1.05794
1.05316
1.04841
1.04384
1.03958
1.03565
1.03209
1.02894
1.02624
1.02405
1.02244
1.02144
1.06921
1.06725
1.06376
1.05936
1.05458
1.04979
1.04516
1.04081
1.03679
1.03314
1.02989
1.02711
1.02485
1.02318
1.02214
1.07055
1.06862
1.06517
1.0608
1.05601
1.05118
1.04649
1.04206
1.03794
1.03419
1.03085
1.02798
1.02565
1.02392
1.02284
1.07193
1.07002
1.06661
1.06225
1.05746
1.05259
1.04783
1.04332
1.0391
1.03525
1.03181
1.02886
1.02646
1.02467
1.02356
1.07333
1.07145
1.06806
1.06373
1.05893
1.05402
1.04919
1.04459
1.04028
1.03633
1.03279
1.02976
1.02728
1.02543
1.02427
1.07476
1.0729
1.06955
1.06523
1.06042
1.05546
1.05056
1.04587
1.04146
1.03741
1.03378
1.03066
1.0281
1.02619
1.025
1.07622
1.07438
1.07105
1.06675
1.06192
1.05692
1.05195
1.04717
1.04266
1.03851
1.03478
1.03157
1.02893
1.02697
1.02573
1.07771
1.07589
1.07259
1.06829
1.06344
1.0584
1.05335
1.04849
1.04387
1.03962
1.03579
1.03248
1.02977
1.02774
1.02647
1.07923
1.07743
1.07414
1.06985
1.06498
1.05989
1.05477
1.04981
1.0451
1.04074
1.03681
1.03341
1.03062
1.02853
1.02721
1.08078
1.079
1.07573
1.07144
1.06655
1.0614
1.05621
1.05116
1.04634
1.04188
1.03784
1.03435
1.03148
1.02932
1.02796
1.08237
1.08059
1.07733
1.07305
1.06813
1.06293
1.05766
1.05251
1.04759
1.04302
1.03888
1.03529
1.03234
1.03012
1.02872
1.08398
1.08222
1.07897
1.07468
1.06973
1.06448
1.05913
1.05389
1.04886
1.04418
1.03993
1.03625
1.03321
1.03093
1.02948
1.08563
1.08387
1.08063
1.07633
1.07136
1.06604
1.06062
1.05527
1.05014
1.04535
1.041
1.03721
1.03409
1.03174
1.03025
1.0873
1.08556
1.08232
1.07801
1.073
1.06763
1.06212
1.05668
1.05143
1.04653
1.04207
1.03819
1.03498
1.03257
1.03103
1.08901
1.08727
1.08404
1.07972
1.07467
1.06924
1.06364
1.0581
1.05274
1.04773
1.04316
1.03918
1.03588
1.0334
1.03181
1.09075
1.08902
1.08578
1.08145
1.07636
1.07086
1.06518
1.05954
1.05407
1.04894
1.04426
1.04017
1.03679
1.03423
1.0326
1.09252
1.09079
1.08756
1.0832
1.07808
1.07251
1.06674
1.06099
1.05541
1.05016
1.04537
1.04118
1.03771
1.03508
1.0334
1.09433
1.0926
1.08936
1.08498
1.07982
1.07418
1.06832
1.06247
1.05677
1.0514
1.04649
1.04219
1.03863
1.03593
1.0342
1.09617
1.09444
1.09119
1.08679
1.08158
1.07588
1.06992
1.06396
1.05814
1.05265
1.04762
1.04322
1.03956
1.03679
1.03502
1.09804
1.09631
1.09305
1.08863
1.08337
1.07759
1.07154
1.06547
1.05953
1.05392
1.04877
1.04426
1.04051
1.03766
1.03583
1.09995
1.09822
1.09495
1.09049
1.08518
1.07933
1.07318
1.06699
1.06093
1.0552
1.04993
1.04531
1.04146
1.03854
1.03666
1.10189
1.10015
1.09687
1.09239
1.08702
1.08109
1.07485
1.06854
1.06236
1.05649
1.0511
1.04637
1.04242
1.03942
1.03749
1.10387
1.10212
1.09882
1.09431
1.08888
1.08287
1.07653
1.07011
1.0638
1.0578
1.05229
1.04744
1.0434
1.04032
1.03833
1.10588
1.10413
1.10081
1.09626
1.09077
1.08468
1.07824
1.0717
1.06526
1.05913
1.05349
1.04852
1.04438
1.04122
1.03918
1.10793
1.10617
1.10283
1.09824
1.09269
1.08652
1.07996
1.0733
1.06673
1.06047
1.0547
1.04962
1.04537
1.04213
1.04004
1.11002
1.10825
1.10488
1.10025
1.09464
1.08838
1.08172
1.07493
1.06823
1.06183
1.05593
1.05072
1.04637
1.04305
1.0409
1.11214
1.11036
1.10697
1.10229
1.09662
1.09026
1.08349
1.07658
1.06974
1.06321
1.05717
1.05184
1.04738
1.04398
1.04177
1.1143
1.11251
1.10909
1.10437
1.09862
1.09218
1.08529
1.07825
1.07127
1.0646
1.05843
1.05297
1.04841
1.04491
1.04265
1.11649
1.11469
1.11125
1.10648
1.10066
1.09412
1.08711
1.07994
1.07282
1.06601
1.0597
1.05411
1.04944
1.04586
1.04353
1.11873
1.11691
1.11344
1.10862
1.10272
1.09609
1.08896
1.08166
1.07439
1.06743
1.06098
1.05527
1.05048
1.04682
1.04443
1.12101
1.11917
1.11567
1.11079
1.10482
1.09808
1.09084
1.08339
1.07599
1.06888
1.06228
1.05644
1.05154
1.04778
1.04533
1.12332
1.12147
1.11793
1.113
1.10695
1.10011
1.09274
1.08515
1.0776
1.07034
1.0636
1.05762
1.05261
1.04875
1.04624
1.12568
1.12381
1.12023
1.11524
1.10911
1.10216
1.09467
1.08694
1.07923
1.07182
1.06493
1.05882
1.05368
1.04974
1.04716
1.12807
1.12619
1.12257
1.11752
1.1113
1.10424
1.09662
1.08875
1.08089
1.07332
1.06628
1.06003
1.05477
1.05073
1.04809
1.13051
1.1286
1.12495
1.11984
1.11353
1.10636
1.0986
1.09058
1.08256
1.07483
1.06764
1.06125
1.05587
1.05173
1.04902
1.13299
1.13106
1.12737
1.12219
1.11579
1.10851
1.10061
1.09244
1.08426
1.07637
1.06902
1.06248
1.05698
1.05274
1.04996
1.13551
1.13357
1.12982
1.12458
1.11809
1.11068
1.10265
1.09433
1.08598
1.07793
1.07042
1.06373
1.05811
1.05377
1.05092
1.13808
1.13611
1.13232
1.127
1.12042
1.11289
1.10472
1.09624
1.08773
1.0795
1.07183
1.065
1.05924
1.0548
1.05188
1.14069
1.1387
1.13486
1.12947
1.12279
1.11514
1.10682
1.09817
1.08949
1.0811
1.07326
1.06628
1.06039
1.05584
1.05285
1.14335
1.14133
1.13744
1.13198
1.12519
1.11741
1.10895
1.10014
1.09129
1.08272
1.07471
1.06757
1.06155
1.05689
1.05383
1.14605
1.14401
1.14007
1.13452
1.12763
1.11973
1.11111
1.10213
1.0931
1.08435
1.07618
1.06888
1.06272
1.05796
1.05481
1.1488
1.14673
1.14274
1.13711
1.13011
1.12207
1.1133
1.10415
1.09494
1.08601
1.07767
1.07021
1.06391
1.05903
1.05581
1.15159
1.1495
1.14545
1.13974
1.13263
1.12445
1.11552
1.1062
1.09681
1.0877
1.07917
1.07155
1.06511
1.06012
1.05682
1.15444
1.15231
1.14821
1.14241
1.13519
1.12687
1.11778
1.10828
1.0987
1.0894
1.08069
1.0729
1.06632
1.06121
1.05783
1.15733
1.15518
1.15101
1.14513
1.13779
1.12933
1.12007
1.11039
1.10062
1.09113
1.08223
1.07428
1.06754
1.06232
1.05886
1.16028
1.15809
1.15387
1.14789
1.14043
1.13182
1.1224
1.11253
1.10256
1.09288
1.0838
1.07567
1.06878
1.06344
1.05989
1.16327
1.16105
1.15676
1.1507
1.14311
1.13435
1.12476
1.1147
1.10454
1.09465
1.08538
1.07707
1.07004
1.06457
1.06093
1.16632
1.16406
1.15971
1.15355
1.14584
1.13693
1.12715
1.1169
1.10654
1.09645
1.08698
1.07849
1.0713
1.06571
1.06199
1.16941
1.16713
1.16271
1.15645
1.14861
1.13954
1.12958
1.11913
1.10856
1.09827
1.0886
1.07993
1.07258
1.06686
1.06305
1.17257
1.17025
1.16576
1.15939
1.15142
1.14219
1.13205
1.1214
1.11062
1.10011
1.09024
1.08139
1.07388
1.06802
1.06412
1.17577
1.17342
1.16886
1.16239
1.15428
1.14489
1.13456
1.1237
1.11271
1.10198
1.09191
1.08286
1.07519
1.0692
1.06521
1.17904
1.17664
1.17201
1.16543
1.15719
1.14762
1.1371
1.12604
1.11482
1.10388
1.0936
1.08436
1.07651
1.07039
1.0663
1.18236
1.17992
1.17522
1.16853
1.16014
1.1504
1.13968
1.12841
1.11697
1.1058
1.0953
1.08587
1.07785
1.07159
1.0674
1.18573
1.18326
1.17848
1.17168
1.16314
1.15323
1.14231
1.13081
1.11915
1.10775
1.09703
1.0874
1.0792
1.0728
1.06852
1.18917
1.18665
1.18179
1.17488
1.16619
1.1561
1.14497
1.13325
1.12136
1.10973
1.09879
1.08895
1.08057
1.07403
1.06964
1.19266
1.19011
1.18516
1.17813
1.16929
1.15901
1.14768
1.13573
1.1236
1.11173
1.10057
1.09051
1.08196
1.07527
1.07078
1.19622
1.19362
1.18859
1.18144
1.17244
1.16197
1.15043
1.13825
1.12587
1.11377
1.10237
1.0921
1.08336
1.07652
1.07193
1.19984
1.19719
1.19208
1.1848
1.17564
1.16498
1.15322
1.1408
1.12818
1.11583
1.10419
1.09371
1.08478
1.07779
1.07308
1.20352
1.20083
1.19563
1.18822
1.1789
1.16804
1.15605
1.14339
1.13052
1.11792
1.10604
1.09533
1.08622
1.07907
1.07425
1.20726
1.20453
1.19924
1.1917
1.18221
1.17115
1.15893
1.14602
1.1329
1.12004
1.10791
1.09698
1.08767
1.08036
1.07543
1.21107
1.20829
1.20291
1.19523
1.18557
1.1743
1.16185
1.14869
1.13531
1.12218
1.10981
1.09865
1.08914
1.08167
1.07663
1.21495
1.21212
1.20664
1.19883
1.18899
1.17751
1.16483
1.15141
1.13775
1.12436
1.11174
1.10034
1.09062
1.08299
1.07783
1.2189
1.21601
1.21044
1.20249
1.19247
1.18077
1.16784
1.15416
1.14024
1.12658
1.11369
1.10205
1.09213
1.08432
1.07904
1.22291
1.21998
1.2143
1.20621
1.196
1.18409
1.17091
1.15696
1.14276
1.12882
1.11566
1.10379
1.09365
1.08567
1.08027
1.227
1.22401
1.21823
1.20999
1.1996
1.18746
1.17402
1.1598
1.14531
1.13109
1.11767
1.10554
1.09519
1.08704
1.08151
1.23116
1.22811
1.22223
1.21384
1.20325
1.19088
1.17719
1.16269
1.14791
1.1334
1.1197
1.10732
1.09674
1.08841
1.08276
1.23539
1.23229
1.2263
1.21775
1.20697
1.19436
1.18041
1.16562
1.15054
1.13574
1.12176
1.10912
1.09832
1.08981
1.08403
1.23969
1.23653
1.23044
1.22174
1.21075
1.1979
1.18367
1.16859
1.15322
1.13812
1.12385
1.11095
1.09992
1.09122
1.0853
1.24408
1.24086
1.23465
1.22579
1.21459
1.2015
1.18699
1.17162
1.15593
1.14053
1.12597
1.1128
1.10153
1.09264
1.08659
1.24854
1.24526
1.23894
1.22991
1.2185
1.20516
1.19037
1.17469
1.15869
1.14297
1.12811
1.11467
1.10317
1.09408
1.08789
1.25308
1.24974
1.2433
1.2341
1.22248
1.20888
1.1938
1.17781
1.16149
1.14545
1.13029
1.11657
1.10482
1.09554
1.08921
1.2577
1.25429
1.24774
1.23836
1.22652
1.21266
1.19728
1.18097
1.16433
1.14797
1.1325
1.11849
1.10649
1.09701
1.09054
1.2624
1.25893
1.25225
1.2427
1.23063
1.2165
1.20083
1.18419
1.16722
1.15052
1.13473
1.12044
1.10819
1.0985
1.09188
1.26719
1.26365
1.25685
1.24711
1.23481
1.22041
1.20443
1.18746
1.17015
1.15312
1.137
1.12241
1.10991
1.10001
1.09324
1.27206
1.26846
1.26152
1.2516
1.23907
1.22438
1.20808
1.19079
1.17312
1.15575
1.13931
1.12441
1.11164
1.10153
1.09461
1.27702
1.27335
1.26628
1.25618
1.2434
1.22842
1.21181
1.19416
1.17614
1.15842
1.14164
1.12644
1.1134
1.10307
1.09599
1.28207
1.27833
1.27112
1.26082
1.2478
1.23253
1.21559
1.19759
1.17921
1.16113
1.14401
1.12849
1.11518
1.10463
1.09739
1.28721
1.2834
1.27606
1.26556
1.25228
1.23671
1.21943
1.20108
1.18233
1.16388
1.14641
1.13057
1.11699
1.10621
1.0988
1.29245
1.28855
1.28107
1.27037
1.25683
1.24096
1.22334
1.20462
1.18549
1.16667
1.14884
1.13268
1.11881
1.1078
1.10023
1.29778
1.29381
1.28618
1.27527
1.26147
1.24528
1.22731
1.20821
1.1887
1.1695
1.15131
1.13482
1.12066
1.10942
1.10167
1.3032
1.29916
1.29138
1.28026
1.26619
1.24968
1.23135
1.21187
1.19197
1.17237
1.15382
1.13699
1.12253
1.11105
1.10313
1.30873
1.3046
1.29668
1.28534
1.27099
1.25415
1.23546
1.21559
1.19528
1.17529
1.15636
1.13919
1.12443
1.1127
1.1046
1.31435
1.31014
1.30206
1.2905
1.27587
1.2587
1.23963
1.21936
1.19865
1.17826
1.15894
1.14141
1.12635
1.11437
1.10609
1.32008
1.31579
1.30755
1.29576
1.28084
1.26333
1.24388
1.2232
1.20207
1.18126
1.16155
1.14367
1.12829
1.11606
1.1076
1.32591
1.32154
1.31313
1.30111
1.28589
1.26803
1.24819
1.2271
1.20554
1.18432
1.16421
1.14596
1.13026
1.11777
1.10912
1.33186
1.32739
1.31882
1.30656
1.29104
1.27282
1.25258
1.23106
1.20907
1.18742
1.1669
1.14827
1.13226
1.1195
1.11065
1.3379
1.33335
1.32461
1.31211
1.29627
1.27769
1.25704
1.23509
1.21266
1.19056
1.16963
1.15063
1.13427
1.12125
1.11221
1.34407
1.33942
1.33051
1.31776
1.3016
1.28265
1.26158
1.23919
1.2163
1.19376
1.1724
1.15301
1.13632
1.12302
1.11378
1.35034
1.3456
1.33651
1.3235
1.30703
1.28769
1.2662
1.24335
1.22
1.197
1.17521
1.15542
1.13839
1.12481
1.11536
1.35674
1.3519
1.34263
1.32936
1.31255
1.29282
1.27089
1.24758
1.22376
1.2003
1.17806
1.15787
1.14049
1.12662
1.11697
1.36325
1.35831
1.34885
1.33532
1.31817
1.29804
1.27567
1.25188
1.22758
1.20364
1.18096
1.16036
1.14262
1.12846
1.11859
1.36988
1.36484
1.35519
1.34138
1.32389
1.30335
1.28052
1.25626
1.23146
1.20704
1.18389
1.16287
1.14477
1.13031
1.12023
1.37664
1.37149
1.36165
1.34756
1.32971
1.30876
1.28546
1.2607
1.2354
1.21048
1.18687
1.16543
1.14695
1.13219
1.12189
1.38352
1.37827
1.36823
1.35385
1.33564
1.31426
1.29048
1.26522
1.2394
1.21398
1.1899
1.16802
1.14916
1.13409
1.12357
1.39053
1.38518
1.37493
1.36026
1.34167
1.31985
1.29559
1.26981
1.24347
1.21754
1.19296
1.17064
1.1514
1.13602
1.12526
1.39768
1.39221
1.38175
1.36678
1.34781
1.32555
1.30079
1.27449
1.24761
1.22115
1.19608
1.1733
1.15367
1.13797
1.12697
1.40496
1.39938
1.3887
1.37343
1.35407
1.33134
1.30608
1.27923
1.25181
1.22481
1.19924
1.176
1.15597
1.13994
1.12871
1.41238
1.40668
1.39578
1.38019
1.36043
1.33724
1.31146
1.28406
1.25608
1.22854
1.20244
1.17874
1.1583
1.14194
1.13046
1.41994
1.41412
1.403
1.38709
1.36692
1.34324
1.31693
1.28897
1.26042
1.23232
1.20569
1.18151
1.16066
1.14396
1.13223
1.42764
1.4217
1.41035
1.39411
1.37352
1.34935
1.32249
1.29396
1.26482
1.23616
1.209
1.18432
1.16305
1.146
1.13402
1.43549
1.42942
1.41784
1.40126
1.38024
1.35557
1.32815
1.29904
1.2693
1.24005
1.21235
1.18718
1.16547
1.14807
1.13584
1.44349
1.4373
1.42547
1.40854
1.38708
1.3619
1.33392
1.3042
1.27386
1.24401
1.21575
1.19007
1.16793
1.15017
1.13767
1.45165
1.44532
1.43324
1.41596
1.39405
1.36834
1.33978
1.30945
1.27848
1.24803
1.2192
1.19301
1.17041
1.15229
1.13952
1.45996
1.4535
1.44116
1.42352
1.40115
1.3749
1.34574
1.31478
1.28318
1.25212
1.2227
1.19598
1.17293
1.15444
1.1414
1.46843
1.46183
1.44924
1.43122
1.40838
1.38158
1.35181
1.32021
1.28796
1.25626
1.22625
1.199
1.17549
1.15662
1.14329
1.47707
1.47032
1.45747
1.43907
1.41574
1.38838
1.35798
1.32573
1.29282
1.26048
1.22986
1.20206
1.17808
1.15882
1.14521
1.48587
1.47898
1.46585
1.44706
1.42324
1.3953
1.36426
1.33133
1.29775
1.26475
1.23352
1.20516
1.1807
1.16105
1.14715
1.49485
1.48781
1.4744
1.45521
1.43088
1.40234
1.37065
1.33704
1.30277
1.2691
1.23724
1.20831
1.18336
1.16331
1.14912
1.50399
1.49681
1.48311
1.4635
1.43865
1.40951
1.37715
1.34284
1.30786
1.27351
1.24101
1.21151
1.18605
1.1656
1.1511
1.51333
1.50598
1.49199
1.47196
1.44658
1.41681
1.38377
1.34874
1.31304
1.27799
1.24484
1.21474
1.18878
1.16791
1.15311
1.52284
1.51533
1.50104
1.48058
1.45465
1.42425
1.39051
1.35474
1.31831
1.28254
1.24872
1.21803
1.19155
1.17026
1.15514
1.53254
1.52487
1.51026
1.48936
1.46287
1.43182
1.39736
1.36085
1.32366
1.28717
1.25267
1.22136
1.19435
1.17263
1.15719
1.54243
1.53459
1.51967
1.49831
1.47125
1.43952
1.40433
1.36705
1.3291
1.29186
1.25667
1.22474
1.19719
1.17504
1.15927
1.55252
1.54451
1.52926
1.50744
1.47978
1.44737
1.41143
1.37337
1.33463
1.29663
1.26073
1.22816
1.20007
1.17747
1.16138
1.56281
1.55462
1.53903
1.51674
1.48848
1.45536
1.41865
1.37979
1.34024
1.30147
1.26485
1.23164
1.20299
1.17994
1.1635
1.5733
1.56493
1.54901
1.52622
1.49734
1.4635
1.426
1.38632
1.34595
1.30639
1.26904
1.23516
1.20595
1.18243
1.16566
1.584
1.57545
1.55917
1.53588
1.50636
1.47179
1.43348
1.39295
1.35175
1.31139
1.27328
1.23874
1.20894
1.18496
1.16783
1.59492
1.58618
1.56954
1.54573
1.51556
1.48023
1.44109
1.39971
1.35765
1.31646
1.27759
1.24236
1.21198
1.18752
1.17004
1.60606
1.59712
1.58011
1.55576
1.52493
1.48882
1.44884
1.40658
1.36364
1.32161
1.28196
1.24604
1.21506
1.19011
1.17227
1.61742
1.60828
1.59089
1.566
1.53448
1.49758
1.45673
1.41356
1.36974
1.32685
1.2864
1.24977
1.21818
1.19274
1.17452
1.62901
1.61967
1.60188
1.57643
1.5442
1.50649
1.46475
1.42067
1.37593
1.33216
1.29091
1.25355
1.22134
1.19539
1.1768
1.64084
1.63129
1.6131
1.58708
1.55412
1.51557
1.47292
1.42789
1.38222
1.33756
1.29548
1.25739
1.22455
1.19809
1.17911
1.65291
1.64314
1.62454
1.59792
1.56422
1.52481
1.48123
1.43524
1.38861
1.34304
1.30012
1.26128
1.22779
1.20081
1.18144
1.66523
1.65523
1.63621
1.60899
1.57452
1.53423
1.48969
1.44272
1.39511
1.34861
1.30483
1.26522
1.23108
1.20357
1.18381
1.67779
1.66757
1.64811
1.62026
1.58502
1.54382
1.4983
1.45032
1.40172
1.35427
1.30961
1.26922
1.23442
1.20637
1.1862
1.69062
1.68016
1.66026
1.63177
1.59571
1.55359
1.50707
1.45805
1.40843
1.36001
1.31446
1.27328
1.2378
1.2092
1.18861
1.70371
1.69301
1.67264
1.64349
1.60661
1.56353
1.51598
1.46591
1.41525
1.36584
1.31938
1.27739
1.24122
1.21206
1.19106
1.71708
1.70613
1.68529
1.65546
1.61773
1.57367
1.52507
1.47391
1.42218
1.37176
1.32437
1.28156
1.24469
1.21496
1.19354
1.73072
1.71951
1.69818
1.66766
1.62905
1.58399
1.5343
1.48204
1.42922
1.37777
1.32944
1.28579
1.24821
1.2179
1.19604
1.74464
1.73318
1.71135
1.6801
1.6406
1.5945
1.54371
1.49031
1.43638
1.38387
1.33458
1.29008
1.25177
1.22088
1.19857
1.75886
1.74713
1.72478
1.69279
1.65236
1.60521
1.55328
1.49872
1.44365
1.39007
1.33979
1.29442
1.25538
1.22389
1.20113
1.77338
1.76137
1.73849
1.70574
1.66436
1.61612
1.56302
1.50727
1.45104
1.39636
1.34508
1.29883
1.25904
1.22694
1.20372
1.7882
1.7759
1.75248
1.71895
1.67658
1.62723
1.57293
1.51597
1.45855
1.40275
1.35045
1.3033
1.26274
1.23002
1.20634
1.80334
1.79075
1.76676
1.73242
1.68905
1.63855
1.58303
1.52481
1.46618
1.40924
1.35589
1.30783
1.26649
1.23315
1.20899
1.81879
1.8059
1.78133
1.74616
1.70176
1.65007
1.59329
1.5338
1.47393
1.41582
1.36142
1.31242
1.2703
1.23631
1.21167
1.83458
1.82138
1.79621
1.76019
1.71471
1.66181
1.60374
1.54295
1.4818
1.4225
1.36702
1.31708
1.27415
1.23951
1.21438
1.8507
1.83718
1.8114
1.77449
1.72792
1.67377
1.61438
1.55224
1.4898
1.42929
1.3727
1.3218
1.27805
1.24275
1.21711
1.86718
1.85333
1.8269
1.78909
1.74138
1.68596
1.6252
1.56169
1.49792
1.43617
1.37847
1.32658
1.282
1.24603
1.21988
1.884
1.86981
1.84273
1.80397
1.75511
1.69836
1.63621
1.5713
1.50618
1.44316
1.38431
1.33143
1.28601
1.24935
1.22268
1.9012
1.88666
1.8589
1.81917
1.7691
1.711
1.64742
1.58107
1.51456
1.45025
1.39025
1.33634
1.29006
1.25271
1.2255
1.91876
1.90386
1.8754
1.83467
1.78337
1.72387
1.65882
1.591
1.52307
1.45745
1.39626
1.34132
1.29417
1.2561
1.22836
1.93671
1.92144
1.89226
1.8505
1.79791
1.73699
1.67043
1.60109
1.53172
1.46475
1.40236
1.34637
1.29833
1.25954
1.23124
1.95505
1.93939
1.90946
1.86664
1.81274
1.75034
1.68223
1.61135
1.54049
1.47216
1.40854
1.35148
1.30254
1.26301
1.23415
1.9738
1.95775
1.92704
1.88312
1.82786
1.76394
1.69424
1.62178
1.54941
1.47968
1.41481
1.35666
1.3068
1.26653
1.23709
1.99296
1.9765
1.94499
1.89993
1.84328
1.77779
1.70646
1.63238
1.55846
1.48731
1.42116
1.36191
1.31111
1.27008
1.24006
2.01255
1.99566
1.96333
1.91709
1.85899
1.7919
1.71889
1.64315
1.56765
1.49505
1.42761
1.36723
1.31548
1.27367
1.24306
2.03258
2.01525
1.98206
1.9346
1.87501
1.80626
1.73153
1.65409
1.57698
1.5029
1.43414
1.37261
1.3199
1.2773
1.24608
2.05305
2.03527
2.00119
1.95248
1.89135
1.8209
1.7444
1.66521
1.58645
1.51086
1.44076
1.37807
1.32437
1.28097
1.24914
2.07399
2.05573
2.02074
1.97072
1.908
1.83579
1.75747
1.6765
1.59607
1.51894
1.44747
1.38359
1.32889
1.28468
1.25222
2.0954
2.07666
2.04071
1.98934
1.92498
1.85096
1.77078
1.68798
1.60582
1.52713
1.45426
1.38919
1.33346
1.28843
1.25532
2.1173
2.09804
2.06111
2.00834
1.94229
1.8664
1.78431
1.69964
1.61572
1.53543
1.46115
1.39485
1.33809
1.29221
1.25846
2.1397
2.11992
2.08196
2.02774
1.95993
1.88213
1.79806
1.71148
1.62577
1.54385
1.46813
1.40058
1.34277
1.29603
1.26162
2.16261
2.14229
2.10326
2.04754
1.97792
1.89813
1.81205
1.7235
1.63596
1.55238
1.4752
1.40638
1.3475
1.29989
1.2648
2.18606
2.16516
2.12503
2.06775
1.99626
1.91443
1.82627
1.73572
1.64631
1.56103
1.48236
1.41225
1.35228
1.30379
1.26801
2.21005
2.18856
2.14727
2.08838
2.01495
1.93102
1.84072
1.74811
1.65679
1.5698
1.4896
1.41819
1.35712
1.30772
1.27125
2.2346
2.2125
2.17
2.10943
2.034
1.9479
1.85542
1.7607
1.66743
1.57868
1.49694
1.42419
1.362
1.31169
1.2745
2.25973
2.23698
2.19324
2.13093
2.05341
1.96508
1.87035
1.77348
1.67822
1.58768
1.50437
1.43026
1.36694
1.3157
1.27779
2.28545
2.26203
2.21699
2.15287
2.07321
1.98257
1.88552
1.78645
1.68916
1.5968
1.51188
1.4364
1.37192
1.31974
1.28109
2.31178
2.28767
2.24126
2.17526
2.09337
2.00036
1.90094
1.79961
1.70024
1.60603
1.51949
1.44261
1.37695
1.32381
1.28442
2.33875
2.3139
2.26608
2.19812
2.11393
2.01846
1.91661
1.81296
1.71148
1.61537
1.52718
1.44888
1.38203
1.32792
1.28776
2.36636
2.34075
2.29144
2.22144
2.13487
2.03688
1.93251
1.8265
1.72286
1.62483
1.53496
1.45522
1.38716
1.33206
1.29113
2.39465
2.36823
2.31738
2.24526
2.15621
2.05561
1.94867
1.84024
1.7344
1.6344
1.54282
1.46162
1.39234
1.33624
1.29452
2.42363
2.39636
2.34389
2.26956
2.17794
2.07466
1.96508
1.85417
1.74607
1.64409
1.55077
1.46809
1.39756
1.34044
1.29793
2.45332
2.42517
2.371
2.29437
2.20009
2.09403
1.98174
1.86829
1.7579
1.65389
1.55881
1.47462
1.40283
1.34468
1.30135
2.48374
2.45466
2.39872
2.31969
2.22265
2.11372
1.99864
1.8826
1.76987
1.66379
1.56692
1.48121
1.40814
1.34895
1.30479
2.51493
2.48487
2.42706
2.34553
2.24563
2.13374
2.0158
1.89711
1.78199
1.67381
1.57512
1.48785
1.41349
1.35324
1.30825
2.54689
2.51581
2.45605
2.37189
2.26902
2.15409
2.0332
1.9118
1.79425
1.68393
1.58339
1.49456
1.41889
1.35757
1.31172
2.57968
2.5475
2.48569
2.3988
2.29285
2.17476
2.05086
1.92668
1.80665
1.69415
1.59174
1.50132
1.42432
1.36192
1.3152
2.6133
2.57997
2.51599
2.42626
2.3171
2.19577
2.06876
1.94174
1.81918
1.70448
1.60017
1.50814
1.4298
1.36629
1.3187
2.64779
2.61325
2.54699
2.45427
2.34179
2.2171
2.08691
1.95699
1.83185
1.7149
1.60867
1.51501
1.43531
1.37069
1.32221
2.68318
2.64734
2.57869
2.48285
2.36692
2.23876
2.1053
1.97241
1.84465
1.72543
1.61724
1.52194
1.44086
1.37511
1.32572
2.7195
2.68229
2.61112
2.51201
2.39248
2.26075
2.12393
1.98801
1.85758
1.73604
1.62588
1.52891
1.44644
1.37955
1.32925
2.75679
2.71812
2.64428
2.54175
2.41849
2.28307
2.1428
2.00378
1.87063
1.74675
1.63459
1.53593
1.45206
1.38402
1.33278
2.79508
2.75486
2.6782
2.57208
2.44494
2.30571
2.16191
2.01972
1.8838
1.75754
1.64335
1.54299
1.4577
1.3885
1.33632
2.83441
2.79253
2.71289
2.60301
2.47184
2.32867
2.18124
2.03582
1.89709
1.76841
1.65218
1.55009
1.46338
1.39299
1.33986
2.87482
2.83118
2.74838
2.63455
2.49918
2.35195
2.20079
2.05208
1.91049
1.77936
1.66106
1.55724
1.46908
1.39751
1.3434
2.91636
2.87082
2.78467
2.6667
2.52696
2.37554
2.22056
2.06848
1.92399
1.79039
1.66999
1.56442
1.4748
1.40203
1.34694
2.95907
2.9115
2.82179
2.69947
2.55519
2.39943
2.24054
2.08504
1.93759
1.80149
1.67897
1.57163
1.48054
1.40656
1.35048
3.003
2.95325
2.85976
2.73287
2.58385
2.42363
2.26073
2.10173
1.95129
1.81264
1.688
1.57888
1.48631
1.41111
1.35401
3.04821
2.99611
2.8986
2.76689
2.61296
2.44813
2.28111
2.11855
1.96507
1.82386
1.69706
1.58615
1.49209
1.41565
1.35754
3.09475
3.04011
2.93832
2.80154
2.64248
2.4729
2.30168
2.13549
1.97893
1.83513
1.70616
1.59344
1.49788
1.42021
1.36106
3.14268
3.0853
2.97894
2.83683
2.67244
2.49795
2.32242
2.15254
1.99286
1.84645
1.71529
1.60075
1.50368
1.42476
1.36457
3.19206
3.13172
3.02048
2.87275
2.70281
2.52327
2.34332
2.1697
2.00686
1.8578
1.72444
1.60808
1.50949
1.42931
1.36806
3.24298
3.17941
3.06296
2.90931
2.73358
2.54884
2.36438
2.18695
2.02091
1.86919
1.73361
1.61541
1.5153
1.43386
1.37154
3.2955
3.22843
3.10639
2.94649
2.76475
2.57464
2.38558
2.20427
2.035
1.8806
1.74279
1.62275
1.52111
1.43839
1.375
3.3497
3.27882
3.15079
2.98431
2.7963
2.60067
2.40691
2.22167
2.04914
1.89203
1.75198
1.63009
1.52692
1.44292
1.37844
3.40569
3.33063
3.19617
3.02274
2.82822
2.62691
2.42834
2.23912
2.06329
1.90347
1.76117
1.63743
1.53271
1.44743
1.38185
3.46354
3.38391
3.24256
3.06179
2.86049
2.65333
2.44987
2.25662
2.07746
1.91491
1.77035
1.64475
1.5385
1.45193
1.38524
3.52338
3.43873
3.28996
3.10144
2.89309
2.67993
2.47148
2.27414
2.09164
1.92634
1.77951
1.65206
1.54426
1.4564
1.3886
3.58532
3.49515
3.33838
3.14168
2.926
2.70667
2.49315
2.29168
2.1058
1.93775
1.78866
1.65935
1.55
1.46085
1.39192
3.64948
3.55321
3.38784
3.18249
2.9592
2.73354
2.51485
2.30921
2.11994
1.94913
1.79777
1.6666
1.55572
1.46527
1.39521
3.71601
3.61301
3.43833
3.22386
2.99266
2.76051
2.53658
2.32673
2.13405
1.96047
1.80684
1.67382
1.5614
1.46965
1.39845
3.78507
3.67459
3.48987
3.26575
3.02635
2.78755
2.5583
2.34421
2.14811
1.97176
1.81587
1.681
1.56704
1.474
1.40165
3.85682
3.73803
3.54246
3.30816
3.06024
2.81464
2.58
2.36163
2.1621
1.98299
1.82484
1.68813
1.57263
1.4783
1.4048
3.93145
3.80341
3.59609
3.35103
3.0943
2.84175
2.60165
2.37898
2.17601
1.99414
1.83374
1.69519
1.57817
1.48255
1.4079
4.00919
3.8708
3.65076
3.39435
3.12849
2.86884
2.62322
2.39623
2.18983
2.0052
1.84257
1.70219
1.58366
1.48675
1.41095
4.09027
3.94028
3.70645
3.43806
3.16277
2.89589
2.64469
2.41337
2.20354
2.01617
1.85131
1.70912
1.58907
1.49088
1.41393
4.17495
4.01194
3.76315
3.48213
3.1971
2.92285
2.66604
2.43037
2.21712
2.02702
1.85995
1.71596
1.59441
1.49495
1.41684
4.26353
4.08585
3.82083
3.52651
3.23143
2.94969
2.68722
2.44721
2.23056
2.03774
1.86848
1.7227
1.59967
1.49895
1.41968
4.35636
4.1621
3.87946
3.57114
3.26571
2.97637
2.70822
2.46387
2.24383
2.04832
1.87688
1.72934
1.60484
1.50286
1.42245
4.45382
4.24078
3.939
3.61595
3.29989
3.00285
2.72901
2.48033
2.25693
2.05874
1.88516
1.73586
1.60991
1.50669
1.42513
4.55635
4.32195
3.9994
3.66089
3.33391
3.02909
2.74954
2.49656
2.26982
2.06899
1.89328
1.74226
1.61488
1.51042
1.42773
4.66443
4.4057
4.06059
3.70587
3.36772
3.05505
2.7698
2.51254
2.28249
2.07905
1.90125
1.74851
1.61972
1.51404
1.43023
4.77865
4.4921
4.1225
3.75082
3.40125
3.08068
2.78974
2.52824
2.29492
2.08891
1.90904
1.75462
1.62443
1.51756
1.43262
4.89964
4.58121
4.18504
3.79566
3.43445
3.10594
2.80934
2.54363
2.3071
2.09854
1.91664
1.76056
1.629
1.52094
1.43491
5.02817
4.67306
4.2481
3.84027
3.46724
3.13078
2.82856
2.5587
2.31899
2.10793
1.92403
1.76633
1.63342
1.5242
1.43707
5.16509
4.76767
4.31157
3.88458
3.49957
3.15516
2.84737
2.57341
2.33058
2.11706
1.9312
1.7719
1.63767
1.52731
1.43912
5.31141
4.86505
4.37528
3.92847
3.53135
3.17902
2.86574
2.58775
2.34185
2.12592
1.93814
1.77727
1.64174
1.53026
1.44102
5.4683
4.96515
4.43909
3.97182
3.56252
3.20234
2.88362
2.60167
2.35277
2.13448
1.94483
1.78242
1.64562
1.53305
1.44279
5.63712
5.06786
4.50281
4.01454
3.59302
3.22504
2.90099
2.61516
2.36332
2.14273
1.95124
1.78734
1.64929
1.53566
1.4444
5.81948
5.17303
4.56622
4.05648
3.62277
3.24711
2.91782
2.6282
2.37349
2.15065
1.95737
1.792
1.65274
1.53807
1.44584
6.01724
5.28042
4.6291
4.09755
3.6517
3.26848
2.93406
2.64075
2.38325
2.15821
1.96318
1.79639
1.65595
1.54027
1.44711
6.23264
5.38966
4.69118
4.1376
3.67976
3.28912
2.9497
2.65278
2.39257
2.16541
1.96868
1.80049
1.6589
1.54224
1.44818
6.46828
5.50026
4.75219
4.17653
3.70687
3.30898
2.9647
2.66429
2.40144
2.1722
1.97383
1.80428
1.66157
1.54397