/*--------------------------------*- C++ -*----------------------------------*\
  =========                 |
  \\      /  F ield         | OpenFOAM: The Open Source CFD Toolbox
   \\    /   O peration     | Website:  https://openfoam.org
    \\  /    A nd           | Version:  6.0
     \\/     M anipulation  |
\*---------------------------------------------------------------------------*/
FoamFile
{
    version     2.0;
    format      ascii;
    class       volScalarField;
    location    "1";
    object      p;
}
// * * * * * * * * * * * * * * * * * * * * * * * * * * * * * * * * * * * * * //

dimensions      [0 2 -2 0 0 0 0];

internalField   nonuniform List<scalar> 
14100
(
0.010806
0.010533
0.0099667
0.0091309
0.008046
0.0067208
0.005173
0.0030415
0.003131
-0.014365
0.061986
-0.16442
0.010804
0.010529
0.0099601
0.0091208
0.008033
0.006706
0.0051557
0.0031141
0.0019634
-0.0048224
0.018204
-0.012979
0.010801
0.010523
0.0099479
0.0091019
0.0080092
0.0066787
0.0051319
0.0030873
0.0019785
-0.0047178
0.020107
-0.051947
0.0108
0.010518
0.0099357
0.0090822
0.0079842
0.0066499
0.005109
0.0030569
0.0021979
-0.0051005
0.014375
-0.05977
0.010804
0.010518
0.0099286
0.0090684
0.0079659
0.0066309
0.0050997
0.0030684
0.0022361
-0.0045016
0.0046471
-0.041702
0.010814
0.010524
0.0099301
0.0090654
0.0079618
0.0066298
0.0051095
0.0031007
0.0022233
-0.0040569
-0.001506
-0.016908
0.010831
0.010539
0.009942
0.009076
0.0079736
0.0066439
0.0051318
0.0031562
0.0021668
-0.0037602
-0.002466
-0.023387
0.010856
0.010562
0.009964
0.009098
0.0079963
0.0066683
0.0051654
0.0032285
0.0020967
-0.0033999
-0.0032068
-0.02028
0.010886
0.010592
0.0099926
0.0091265
0.008026
0.0067023
0.005207
0.0032937
0.0020532
-0.003109
-0.0034263
-0.015876
0.01092
0.010624
0.010025
0.0091589
0.0080605
0.0067387
0.0052424
0.0033442
0.0020213
-0.0028099
-0.0033493
-0.012974
0.010956
0.010659
0.010058
0.0091918
0.0080914
0.0067643
0.0052652
0.0033923
0.0019966
-0.0024683
-0.0032668
-0.010902
0.010993
0.010695
0.01009
0.0092188
0.0081112
0.0067797
0.0052878
0.0034484
0.0019902
-0.0021327
-0.0031592
-0.0089271
0.011031
0.010728
0.010118
0.0092391
0.0081268
0.0068006
0.0053222
0.0035109
0.0020015
-0.0018215
-0.0029653
-0.007117
0.01107
0.010762
0.010146
0.0092628
0.0081526
0.0068357
0.0053648
0.0035735
0.0020247
-0.0015232
-0.0027075
-0.0056096
0.011112
0.010802
0.010182
0.0092986
0.0081914
0.0068775
0.0054068
0.0036349
0.0020586
-0.0012322
-0.0024206
-0.0043645
0.011163
0.01085
0.010228
0.0093428
0.0082333
0.0069169
0.0054466
0.0036972
0.0021036
-0.00095043
-0.002119
-0.0033133
0.011219
0.010904
0.010277
0.0093865
0.0082716
0.0069538
0.0054878
0.003762
0.0021587
-0.00067945
-0.0018089
-0.0024189
0.011277
0.010957
0.010324
0.0094275
0.0083089
0.0069931
0.0055325
0.0038289
0.0022222
-0.00041904
-0.0014966
-0.001657
0.011336
0.011011
0.010372
0.0094702
0.0083502
0.0070364
0.0055799
0.0038972
0.0022927
-0.00016888
-0.0011873
-0.0010056
0.011398
0.011069
0.010424
0.0095182
0.008396
0.0070823
0.0056289
0.0039667
0.0023692
7.1183e-05
-0.00088471
-0.00044621
0.011466
0.011132
0.010481
0.0095703
0.0084442
0.0071296
0.0056797
0.0040374
0.0024506
0.00030128
-0.00059158
3.6401e-05
0.011538
0.011199
0.010542
0.0096246
0.0084936
0.0071783
0.0057323
0.0041092
0.002536
0.00052158
-0.00030974
0.00045446
0.011613
0.011269
0.010604
0.0096806
0.0085448
0.0072293
0.0057869
0.0041819
0.0026244
0.00073226
-4.0464e-05
0.00081801
0.011692
0.011342
0.01067
0.0097391
0.0085986
0.0072824
0.0058432
0.0042553
0.0027152
0.00093349
0.00021545
0.0011352
0.011774
0.011419
0.010739
0.0098006
0.0086549
0.0073375
0.005901
0.0043293
0.0028075
0.0011255
0.00045755
0.0014128
0.011861
0.0115
0.010811
0.0098649
0.0087136
0.0073944
0.0059602
0.0044037
0.0029008
0.0013084
0.00068566
0.0016563
0.011953
0.011584
0.010886
0.0099319
0.0087745
0.0074532
0.0060208
0.0044784
0.0029945
0.0014824
0.00089978
0.0018701
0.012048
0.011672
0.010965
0.010002
0.0088378
0.0075139
0.0060826
0.0045533
0.0030881
0.0016476
0.0011001
0.0020579
0.012147
0.011764
0.011047
0.010074
0.0089035
0.0075763
0.0061456
0.0046282
0.003181
0.0018044
0.0012868
0.0022229
0.012251
0.01186
0.011132
0.01015
0.0089715
0.0076404
0.0062097
0.0047031
0.003273
0.0019528
0.0014602
0.0023676
0.012359
0.01196
0.011221
0.010228
0.0090419
0.0077061
0.0062748
0.0047777
0.0033636
0.002093
0.0016207
0.002494
0.012472
0.012065
0.011314
0.01031
0.0091146
0.0077736
0.0063409
0.004852
0.0034525
0.0022251
0.0017687
0.002604
0.01259
0.012173
0.01141
0.010394
0.0091896
0.0078427
0.0064078
0.004926
0.0035395
0.0023495
0.0019046
0.0026989
0.012712
0.012285
0.011509
0.010481
0.009267
0.0079134
0.0064756
0.0049993
0.0036242
0.0024661
0.0020288
0.00278
0.012839
0.012402
0.011613
0.010572
0.0093468
0.0079857
0.0065442
0.0050721
0.0037066
0.0025752
0.0021416
0.0028483
0.01297
0.012524
0.01172
0.010665
0.0094289
0.0080596
0.0066135
0.0051441
0.0037864
0.0026769
0.0022434
0.0029045
0.013107
0.01265
0.011831
0.010762
0.0095134
0.008135
0.0066834
0.0052153
0.0038634
0.0027714
0.0023347
0.0029493
0.013249
0.01278
0.011946
0.010862
0.0096002
0.0082121
0.006754
0.0052856
0.0039375
0.0028588
0.0024156
0.0029832
0.013397
0.012915
0.012064
0.010965
0.0096896
0.0082907
0.0068251
0.0053549
0.0040087
0.0029392
0.0024865
0.0030068
0.01355
0.013056
0.012187
0.011071
0.0097813
0.0083709
0.0068968
0.0054232
0.0040768
0.0030128
0.0025478
0.0030203
0.013708
0.013201
0.012314
0.01118
0.0098756
0.0084527
0.006969
0.0054905
0.0041417
0.0030797
0.0025996
0.0030242
0.013872
0.013351
0.012446
0.011293
0.0099724
0.008536
0.0070416
0.0055566
0.0042034
0.00314
0.0026421
0.0030186
0.014043
0.013506
0.012582
0.01141
0.010072
0.008621
0.0071147
0.0056215
0.0042618
0.0031937
0.0026758
0.0030037
0.014219
0.013667
0.012722
0.01153
0.010174
0.0087075
0.0071882
0.0056852
0.0043169
0.0032411
0.0027006
0.0029799
0.014401
0.013834
0.012866
0.011653
0.010278
0.0087957
0.0072622
0.0057477
0.0043686
0.0032821
0.0027168
0.0029472
0.01459
0.014006
0.013016
0.01178
0.010386
0.0088856
0.0073365
0.0058089
0.0044169
0.0033169
0.0027246
0.0029057
0.014786
0.014184
0.01317
0.011911
0.010496
0.0089771
0.0074113
0.0058688
0.0044618
0.0033455
0.0027241
0.0028555
0.014988
0.014367
0.013329
0.012046
0.010608
0.0090703
0.0074864
0.0059274
0.0045033
0.0033681
0.0027153
0.0027968
0.015197
0.014557
0.013493
0.012185
0.010724
0.0091653
0.007562
0.0059847
0.0045413
0.0033846
0.0026985
0.0027294
0.015414
0.014754
0.013662
0.012327
0.010843
0.009262
0.0076379
0.0060406
0.004576
0.0033951
0.0026737
0.0026535
0.015638
0.014956
0.013837
0.012474
0.010965
0.0093606
0.0077144
0.0060953
0.0046071
0.0033998
0.002641
0.0025689
0.01587
0.015166
0.014017
0.012625
0.01109
0.0094611
0.0077912
0.0061487
0.0046349
0.0033985
0.0026003
0.0024756
0.016109
0.015382
0.014202
0.012781
0.011218
0.0095636
0.0078686
0.0062007
0.0046592
0.0033914
0.0025519
0.0023737
0.016357
0.015606
0.014394
0.012941
0.011349
0.009668
0.0079465
0.0062515
0.0046801
0.0033785
0.0024956
0.002263
0.016613
0.015837
0.014591
0.013106
0.011484
0.0097746
0.008025
0.006301
0.0046976
0.0033598
0.0024315
0.0021435
0.016878
0.016075
0.014795
0.013275
0.011622
0.0098833
0.0081041
0.0063493
0.0047116
0.0033354
0.0023597
0.0020152
0.017151
0.016321
0.015004
0.01345
0.011764
0.0099942
0.0081838
0.0063963
0.0047223
0.0033052
0.00228
0.0018778
0.017435
0.016576
0.015221
0.013629
0.01191
0.010107
0.0082643
0.0064422
0.0047295
0.0032692
0.0021926
0.0017314
0.017727
0.016838
0.015444
0.013814
0.012059
0.010223
0.0083455
0.0064869
0.0047334
0.0032275
0.0020973
0.0015758
0.01803
0.01711
0.015674
0.014005
0.012213
0.010341
0.0084275
0.0065304
0.0047339
0.00318
0.0019941
0.0014109
0.018341
0.017389
0.015911
0.014201
0.012371
0.010462
0.0085105
0.0065729
0.0047311
0.0031268
0.0018829
0.0012366
0.018667
0.017679
0.016156
0.014402
0.012533
0.010586
0.0085944
0.0066143
0.0047249
0.0030677
0.0017638
0.0010526
0.018998
0.017977
0.016408
0.01461
0.012699
0.010712
0.0086794
0.0066547
0.0047153
0.0030029
0.0016366
0.00085888
0.019348
0.018287
0.01667
0.014824
0.01287
0.010842
0.0087655
0.0066942
0.0047024
0.0029322
0.0015012
0.00065518
0.019701
0.018604
0.016937
0.015045
0.013046
0.010974
0.0088528
0.0067327
0.0046862
0.0028556
0.0013575
0.00044131
0.020076
0.018936
0.017216
0.015272
0.013227
0.01111
0.0089415
0.0067703
0.0046666
0.0027731
0.0012055
0.00021708
0.020453
0.019273
0.017501
0.015506
0.013413
0.011249
0.0090316
0.0068071
0.0046437
0.0026846
0.001045
-1.7746e-05
0.020854
0.019629
0.017798
0.015748
0.013605
0.011392
0.0091232
0.0068432
0.0046174
0.0025901
0.00087583
-0.0002634
0.021258
0.019988
0.0181
0.015996
0.013802
0.011538
0.0092164
0.0068785
0.0045878
0.0024894
0.0006979
-0.00052013
0.021683
0.020367
0.018418
0.016254
0.014006
0.011689
0.0093114
0.0069132
0.0045548
0.0023826
0.00051103
-0.00078821
0.022123
0.020753
0.01874
0.016517
0.014214
0.011843
0.0094082
0.0069472
0.0045185
0.0022695
0.00031505
-0.0010679
0.022568
0.021154
0.019078
0.016793
0.014431
0.012002
0.0095071
0.0069807
0.0044788
0.0021499
0.00010978
-0.0013596
0.023051
0.021572
0.019424
0.017072
0.014651
0.012165
0.0096078
0.0070137
0.0044357
0.002024
-0.000105
-0.0016635
0.023514
0.021994
0.019782
0.017365
0.014882
0.012334
0.0097113
0.0070463
0.0043892
0.0018914
-0.0003295
-0.00198
0.024041
0.022449
0.020154
0.017664
0.015116
0.012505
0.0098164
0.0070783
0.0043391
0.001752
-0.00056395
-0.0023095
0.024532
0.022893
0.020531
0.017975
0.015361
0.012684
0.009925
0.0071103
0.0042856
0.0016058
-0.00080862
-0.0026524
0.025093
0.023383
0.020935
0.018297
0.015612
0.012866
0.010035
0.0071416
0.0042285
0.0014526
-0.0010638
-0.0030091
0.025632
0.023857
0.021332
0.018624
0.015871
0.013056
0.010149
0.0071732
0.0041679
0.0012921
-0.0013297
-0.00338
0.026209
0.024376
0.021767
0.018972
0.01614
0.01325
0.010265
0.0072039
0.0041035
0.0011243
-0.0016068
-0.0037656
0.026815
0.024895
0.022191
0.019317
0.016414
0.013451
0.010385
0.0072352
0.0040356
0.00094886
-0.0018953
-0.0041664
0.027403
0.025433
0.022651
0.019691
0.016703
0.013657
0.010507
0.0072655
0.0039635
0.00076555
-0.0021956
-0.004583
0.028074
0.026008
0.023114
0.02006
0.016994
0.01387
0.010634
0.0072968
0.0038879
0.00057429
-0.0025081
-0.0050159
0.028695
0.026566
0.023593
0.020456
0.017304
0.014092
0.010763
0.0073269
0.0038077
0.00037454
-0.0028333
-0.0054657
0.029401
0.02719
0.024102
0.020856
0.017613
0.014316
0.010896
0.007358
0.003724
0.00016638
-0.0031716
-0.0059331
0.030094
0.027788
0.024602
0.021272
0.017944
0.014554
0.011034
0.0073881
0.0036353
-5.0981e-05
-0.0035235
-0.0064187
0.030811
0.028442
0.025153
0.021708
0.018276
0.014792
0.011174
0.0074189
0.0035428
-0.00027731
-0.0038895
-0.0069234
0.031587
0.029105
0.025689
0.022145
0.018625
0.015046
0.011321
0.0074493
0.003445
-0.00051368
-0.0042703
-0.0074478
0.032331
0.029777
0.026267
0.022616
0.018985
0.015301
0.011468
0.0074793
0.0033429
-0.0007597
-0.0046663
-0.0079929
0.033158
0.030505
0.026856
0.023082
0.019353
0.01557
0.011624
0.0075101
0.0032352
-0.0010167
-0.0050785
-0.0085595
0.033978
0.031216
0.027457
0.023581
0.019742
0.015843
0.01178
0.0075391
0.0031225
-0.0012843
-0.0055072
-0.0091486
0.034821
0.031983
0.028098
0.024087
0.020132
0.016127
0.011945
0.00757
0.003004
-0.0015639
-0.0059537
-0.0097614
0.035729
0.032764
0.028735
0.024611
0.020547
0.016422
0.01211
0.0075976
0.0028792
-0.0018552
-0.0064183
-0.010399
0.036614
0.033555
0.029414
0.025159
0.020966
0.016721
0.012283
0.0076279
0.0027487
-0.0021596
-0.0069025
-0.011062
0.037564
0.034405
0.030106
0.025713
0.021405
0.017037
0.01246
0.0076541
0.0026103
-0.0024774
-0.0074067
-0.011752
0.038546
0.035246
0.030814
0.026298
0.021856
0.017355
0.012641
0.0076825
0.0024661
-0.0028093
-0.0079326
-0.012472
0.039513
0.036132
0.031562
0.026893
0.02232
0.01769
0.012828
0.007707
0.0023123
-0.0031567
-0.0084808
-0.013221
0.040577
0.037055
0.032313
0.027508
0.022803
0.01803
0.013017
0.0077319
0.0021522
-0.0035196
-0.0090529
-0.014002
0.041617
0.03797
0.0331
0.028148
0.023297
0.018383
0.013214
0.0077539
0.0019808
-0.0039003
-0.0096503
-0.014816
0.0427
0.038957
0.033911
0.028799
0.023809
0.018745
0.013412
0.0077738
0.0018018
-0.0042981
-0.010274
-0.015666
0.043858
0.03994
0.034733
0.029478
0.024336
0.019118
0.013617
0.0077917
0.0016104
-0.0047165
-0.010927
-0.016553
0.044972
0.040956
0.035599
0.030174
0.024878
0.019502
0.013824
0.0078049
0.0014089
-0.0051542
-0.011609
-0.017479
0.046193
0.042028
0.036472
0.030889
0.025437
0.019896
0.014037
0.0078163
0.001194
-0.0056155
-0.012324
-0.018448
0.047415
0.043084
0.037378
0.03163
0.026012
0.020301
0.014252
0.0078209
0.00096595
-0.006099
-0.013072
-0.019461
0.048652
0.044213
0.038315
0.032386
0.026603
0.020716
0.014471
0.0078224
0.0007232
-0.0066094
-0.013858
-0.020521
0.049988
0.045352
0.039262
0.033168
0.027212
0.021142
0.014692
0.0078158
0.00046358
-0.0071462
-0.014682
-0.021632
0.051293
0.046517
0.040252
0.033971
0.027836
0.021578
0.014915
0.0078036
0.00018728
-0.0077132
-0.015549
-0.022797
0.052681
0.04774
0.041258
0.034793
0.028479
0.022024
0.015141
0.007782
-0.0001098
-0.0083117
-0.016459
-0.024019
0.054109
0.048969
0.042295
0.035644
0.029137
0.02248
0.015366
0.0077515
-0.00042679
-0.0089448
-0.017418
-0.025302
0.055554
0.050252
0.043364
0.036512
0.029814
0.022946
0.015592
0.00771
-0.00076866
-0.0096154
-0.018429
-0.02665
0.057079
0.051568
0.044456
0.037409
0.030508
0.023421
0.015817
0.0076556
-0.0011351
-0.010326
-0.019496
-0.028069
0.058635
0.05292
0.045586
0.038328
0.03122
0.023905
0.01604
0.0075876
-0.001531
-0.011081
-0.020623
-0.029563
0.060247
0.05432
0.046744
0.039275
0.031951
0.024398
0.016259
0.0075026
-0.0019577
-0.011883
-0.021815
-0.031137
0.06192
0.055763
0.047941
0.040248
0.032699
0.024899
0.016475
0.0073997
-0.0024194
-0.012738
-0.023077
-0.032797
0.063657
0.057256
0.049172
0.041249
0.033469
0.025408
0.016684
0.007275
-0.0029196
-0.01365
-0.024417
-0.034551
0.065447
0.058795
0.050446
0.042283
0.034257
0.025923
0.016886
0.0071268
-0.003462
-0.014624
-0.025839
-0.036404
0.067322
0.060403
0.051762
0.043344
0.035066
0.026445
0.017078
0.0069508
-0.0040522
-0.015666
-0.027352
-0.038366
0.06927
0.062053
0.053121
0.044444
0.035896
0.026972
0.017258
0.0067437
-0.0046945
-0.016783
-0.028965
-0.040443
0.071285
0.063783
0.054538
0.045576
0.036748
0.027504
0.017424
0.0065011
-0.0053959
-0.017984
-0.030685
-0.042645
0.073411
0.065574
0.055998
0.046748
0.037624
0.028038
0.017572
0.0062176
-0.0061624
-0.019276
-0.032524
-0.044984
0.075607
0.067439
0.057526
0.047962
0.038522
0.028573
0.017699
0.0058878
-0.0070025
-0.020671
-0.034492
-0.047469
0.07792
0.069388
0.059107
0.049214
0.039445
0.029108
0.017801
0.0055042
-0.007925
-0.022179
-0.036603
-0.050112
0.080328
0.071414
0.060758
0.050517
0.04039
0.029638
0.017871
0.0050596
-0.0089404
-0.023814
-0.038871
-0.052928
0.08286
0.07354
0.062476
0.051862
0.041358
0.030162
0.017905
0.0045442
-0.010061
-0.025592
-0.041312
-0.05593
0.085507
0.075755
0.064264
0.05326
0.042348
0.030675
0.017893
0.0039472
-0.011302
-0.027531
-0.043943
-0.059134
0.088294
0.078083
0.066133
0.054708
0.043354
0.031172
0.017827
0.003256
-0.012679
-0.029651
-0.046785
-0.062557
0.091223
0.080519
0.068073
0.05621
0.044378
0.031647
0.017695
0.0024545
-0.014215
-0.031977
-0.049861
-0.066216
0.094307
0.083078
0.070102
0.057768
0.045409
0.032092
0.017483
0.0015255
-0.015932
-0.034537
-0.053194
-0.070129
0.097572
0.085771
0.07221
0.059379
0.046445
0.032495
0.017173
0.00044547
-0.017861
-0.037364
-0.056813
-0.074316
0.10102
0.088595
0.074413
0.061049
0.047477
0.032844
0.016746
-0.00081134
-0.020038
-0.040497
-0.060746
-0.078794
0.10469
0.091579
0.076708
0.062766
0.048494
0.03312
0.016176
-0.00228
-0.022507
-0.04398
-0.065028
-0.083582
0.10859
0.094707
0.079107
0.064536
0.049487
0.033301
0.015435
-0.0040018
-0.025322
-0.047862
-0.069691
-0.088695
0.11274
0.098019
0.081617
0.06634
0.050437
0.033357
0.014485
-0.0060319
-0.028549
-0.052203
-0.07477
-0.094145
0.11719
0.1015
0.084243
0.068173
0.051329
0.033256
0.01328
-0.0084393
-0.032267
-0.057064
-0.080298
-0.099941
0.12194
0.1052
0.086997
0.070013
0.052127
0.032951
0.011757
-0.011316
-0.036574
-0.062513
-0.086303
-0.10609
0.12707
0.10912
0.089875
0.071839
0.052799
0.032393
0.0098377
-0.01478
-0.041582
-0.068618
-0.092806
-0.11257
0.13255
0.11332
0.092877
0.073619
0.053284
0.031506
0.0074041
-0.018988
-0.047422
-0.075444
-0.099819
-0.11938
0.1385
0.11783
0.095989
0.075311
0.053517
0.030213
0.0043002
-0.024132
-0.054229
-0.083041
-0.10734
-0.12648
0.14494
0.12269
0.099187
0.076838
0.0534
0.028378
0.00027979
-0.03046
-0.062147
-0.091445
-0.11534
-0.13384
0.15205
0.12793
0.10245
0.078104
0.052848
0.025819
-0.0049831
-0.038236
-0.071284
-0.10065
-0.12378
-0.14142
0.15989
0.13357
0.10572
0.078927
0.051727
0.022162
-0.011953
-0.047747
-0.081726
-0.11062
-0.13259
-0.14913
0.16878
0.13965
0.10892
0.07915
0.04985
0.016862
-0.02113
-0.059192
-0.093443
-0.12125
-0.14167
-0.15689
0.17883
0.14618
0.11176
0.078545
0.046658
0.008972
-0.033095
-0.072721
-0.10637
-0.13239
-0.15089
-0.16464
0.19054
0.1533
0.11393
0.077099
0.041206
-0.0025192
-0.048135
-0.088168
-0.12025
-0.14385
-0.16012
-0.17223
0.2042
0.1608
0.11472
0.074062
0.031303
-0.018851
-0.066381
-0.10523
-0.13467
-0.15527
-0.16919
-0.17957
0.22098
0.16846
0.11425
0.067917
0.015173
-0.040508
-0.087533
-0.12352
-0.14938
-0.16643
-0.1779
-0.18655
0.24193
0.17491
0.11019
0.053998
-0.007545
-0.06569
-0.10985
-0.14174
-0.16354
-0.17692
-0.186
-0.19289
0.26956
0.18104
0.097569
0.024933
-0.039345
-0.093614
-0.13218
-0.15924
-0.17656
-0.18637
-0.19339
-0.19849
0.30578
0.1809
0.075554
-0.011637
-0.07535
-0.12145
-0.15262
-0.17488
-0.18789
-0.19442
-0.1997
-0.20316
0.35692
0.15613
0.031993
-0.041729
-0.10181
-0.14168
-0.16702
-0.18569
-0.19567
-0.20001
-0.20398
-0.20592
0.40111
0.083969
-0.040144
-0.074098
-0.12058
-0.15448
-0.17555
-0.19137
-0.1994
-0.2028
-0.20596
-0.20677
0.47025
0.44861
0.26218
-0.072167
-0.21275
-0.093298
0.043212
0.096878
0.10091
0.096019
0.10491
0.12907
0.15681
0.17302
0.17103
-0.085619
0.073486
-0.085459
-0.46447
-0.36971
-0.11873
-0.043436
-0.016281
-0.015844
-0.035989
-0.055857
-0.068628
-0.07094
-0.058254
-0.03434
-0.22296
-0.23688
-0.25814
-0.08732
0.20412
0.20104
0.070044
0.044856
0.052455
0.04194
0.024585
0.0094647
-0.0014086
-0.005691
-0.0034499
-0.12742
-0.18323
-0.11639
0.094193
0.20603
0.10515
0.0016792
-0.012896
-0.0025412
-0.0021949
-0.0053935
-0.0060338
-0.0048373
-0.0022733
0.0017681
0.04221
-0.043819
-0.0356
0.054351
0.093641
0.054394
0.026051
0.026062
0.028542
0.021513
0.012262
0.0068004
0.0045374
0.0042034
0.0055421
0.049732
-0.046973
-0.073167
-0.0064233
0.059705
0.064158
0.039205
0.024695
0.021552
0.017006
0.010559
0.006311
0.0048226
0.0050047
0.0061552
0.044208
0.01096
-0.018928
0.0098312
0.05358
0.054994
0.031914
0.01829
0.016775
0.015763
0.012063
0.0087634
0.0074457
0.0074925
0.0081452
0.038581
0.025595
0.00019291
0.0083336
0.033203
0.037703
0.025803
0.017575
0.016898
0.016771
0.014085
0.010923
0.0091576
0.0087208
0.0089481
0.030953
0.024839
0.0073902
0.0071334
0.021531
0.029046
0.025007
0.019256
0.016995
0.015911
0.013747
0.011246
0.0097047
0.0092573
0.0093764
0.02274
0.020557
0.010295
0.0089091
0.017814
0.024548
0.02303
0.018286
0.015446
0.014373
0.013193
0.01161
0.010374
0.0098349
0.0097705
0.016652
0.017301
0.01221
0.011083
0.015817
0.020042
0.019562
0.016624
0.014546
0.013714
0.012939
0.011774
0.010683
0.01007
0.0098735
0.013148
0.014772
0.012318
0.011454
0.013826
0.016517
0.01692
0.015513
0.01403
0.013132
0.012413
0.011538
0.010681
0.010118
0.0098603
0.01083
0.012465
0.011329
0.01099
0.012487
0.014357
0.015022
0.014363
0.013279
0.01244
0.011832
0.011211
0.010569
0.010073
0.0097882
0.009075
0.010619
0.010272
0.010421
0.01155
0.012814
0.013402
0.013154
0.012475
0.01182
0.011316
0.010845
0.010353
0.0099314
0.0096499
0.0077924
0.009262
0.009363
0.0097765
0.010683
0.011566
0.01207
0.012083
0.01172
0.011238
0.010814
0.01044
0.010065
0.0097222
0.0094591
0.0068757
0.008234
0.0085589
0.0090912
0.0098752
0.010559
0.011005
0.011155
0.010997
0.010663
0.010324
0.010028
0.0097414
0.0094672
0.0092313
0.0062053
0.0074302
0.0078601
0.0084429
0.0091532
0.0097253
0.010126
0.010342
0.010319
0.01011
0.009853
0.0096209
0.0093999
0.0091828
0.0089784
0.0057066
0.0068006
0.0072702
0.0078599
0.00851
0.0090123
0.0093822
0.0096308
0.0096959
0.0095838
0.0093998
0.0092218
0.009052
0.0088821
0.008709
0.0053346
0.0063064
0.0067752
0.0073429
0.0079377
0.008393
0.0087429
0.0090082
0.0091283
0.0090876
0.0089652
0.0088342
0.0087056
0.0085742
0.0084298
0.0050561
0.0059155
0.0063588
0.0068881
0.0074307
0.0078509
0.0081863
0.0084585
0.0086122
0.008623
0.0085507
0.0084599
0.0083653
0.0082652
0.0081464
0.0048467
0.0056035
0.0060072
0.0064892
0.0069822
0.0073729
0.007696
0.0079693
0.0081429
0.0081899
0.008157
0.0081001
0.0080338
0.0079595
0.0078629
0.0046885
0.0053523
0.0057085
0.0061392
0.0065847
0.0069489
0.0072603
0.0075307
0.0077151
0.007787
0.0077844
0.0077551
0.0077125
0.0076596
0.0075823
0.0045683
0.0051478
0.0054527
0.0058308
0.0062313
0.0065706
0.00687
0.0071347
0.0073238
0.0074122
0.0074322
0.0074253
0.0074023
0.0073674
0.0073066
0.0044761
0.0049793
0.0052316
0.0055576
0.0059154
0.006231
0.0065179
0.0067749
0.0069643
0.0070631
0.0070996
0.0071105
0.0071036
0.0070836
0.0070371
0.0044046
0.0048385
0.0050384
0.0053138
0.0056314
0.0059243
0.006198
0.0064458
0.0066326
0.0067373
0.0067855
0.0068101
0.0068163
0.0068088
0.0067745
0.004348
0.004719
0.0048675
0.0050943
0.0053743
0.0056452
0.0059054
0.006143
0.006325
0.0064324
0.0064885
0.0065235
0.0065403
0.0065431
0.0065193
0.004302
0.0046156
0.0047145
0.004895
0.0051396
0.0053894
0.005636
0.0058626
0.0060384
0.0061459
0.0062071
0.0062498
0.006275
0.0062864
0.0062716
0.0042634
0.0045244
0.0045755
0.0047121
0.0049236
0.0051533
0.0053862
0.0056014
0.00577
0.0058759
0.0059399
0.0059881
0.0060199
0.0060383
0.0060312
0.0042294
0.0044421
0.0044475
0.0045425
0.004723
0.0049335
0.0051529
0.0053567
0.0055174
0.0056204
0.0056854
0.0057374
0.0057743
0.0057984
0.005798
0.0041982
0.0043663
0.0043278
0.0043835
0.0045351
0.0047273
0.0049336
0.005126
0.0052784
0.0053776
0.0054423
0.0054968
0.0055375
0.0055663
0.0055717
0.0041681
0.0042948
0.0042145
0.0042331
0.0043575
0.0045324
0.0047259
0.004907
0.0050511
0.0051458
0.0052092
0.0052651
0.0053088
0.0053414
0.0053519
0.004138
0.0042261
0.0041057
0.004089
0.0041881
0.0043467
0.0045279
0.0046981
0.0048338
0.0049235
0.0049851
0.0050416
0.0050874
0.0051232
0.0051381
0.0041068
0.0041588
0.0039998
0.0039498
0.0040251
0.0041683
0.0043378
0.0044975
0.004625
0.0047096
0.0047686
0.0048253
0.0048727
0.0049111
0.00493
0.0040737
0.0040917
0.0038957
0.003814
0.0038669
0.0039957
0.0041541
0.0043038
0.0044233
0.0045027
0.004559
0.0046153
0.0046639
0.0047044
0.004727
0.004038
0.004024
0.0037923
0.0036804
0.0037123
0.0038275
0.0039755
0.0041157
0.0042276
0.0043018
0.0043551
0.0044108
0.0044603
0.0045028
0.0045287
0.0039991
0.0039547
0.0036887
0.003548
0.0035601
0.0036627
0.0038009
0.0039321
0.0040368
0.0041059
0.0041562
0.0042112
0.0042613
0.0043055
0.0043346
0.0039565
0.0038832
0.0035841
0.0034158
0.0034093
0.0035
0.0036292
0.003752
0.0038498
0.003914
0.0039613
0.0040155
0.0040664
0.0041122
0.0041443
0.0039097
0.003809
0.0034778
0.0032832
0.003259
0.0033387
0.0034594
0.0035744
0.0036658
0.0037254
0.0037698
0.0038233
0.0038748
0.0039222
0.0039574
0.0038583
0.0037314
0.0033693
0.0031494
0.0031085
0.0031778
0.0032908
0.0033985
0.003484
0.0035393
0.0035809
0.0036338
0.0036861
0.0037352
0.0037735
0.003802
0.00365
0.003258
0.0030138
0.0029571
0.0030167
0.0031225
0.0032236
0.0033037
0.003355
0.0033941
0.0034466
0.0034997
0.0035506
0.0035921
0.0037404
0.0035645
0.0031435
0.0028759
0.002804
0.0028546
0.0029539
0.0030489
0.0031241
0.0031718
0.0032086
0.003261
0.0033153
0.0033681
0.003413
0.0036735
0.0034744
0.0030253
0.0027351
0.0026489
0.002691
0.0027843
0.0028739
0.0029447
0.0029893
0.0030241
0.0030766
0.0031322
0.0031873
0.0032357
0.0036008
0.0033795
0.0029031
0.002591
0.002491
0.0025253
0.0026132
0.0026979
0.0027649
0.0028068
0.00284
0.002893
0.0029502
0.0030077
0.0030599
0.0035222
0.0032793
0.0027763
0.0024431
0.0023299
0.0023569
0.0024401
0.0025205
0.0025842
0.0026238
0.0026559
0.0027096
0.0027688
0.002829
0.0028854
0.0034375
0.0031737
0.0026446
0.0022909
0.0021652
0.0021855
0.0022645
0.0023412
0.0024022
0.00244
0.0024712
0.0025261
0.0025876
0.0026509
0.0027117
0.0033465
0.0030623
0.0025077
0.002134
0.0019963
0.0020106
0.0020859
0.0021595
0.0022183
0.0022548
0.0022856
0.0023421
0.0024063
0.002473
0.0025387
0.0032492
0.0029449
0.0023653
0.0019721
0.001823
0.0018317
0.001904
0.001975
0.0020322
0.0020679
0.0020986
0.0021572
0.0022246
0.0022951
0.002366
0.0031451
0.0028213
0.002217
0.0018048
0.0016448
0.0016484
0.0017183
0.0017873
0.0018434
0.0018787
0.00191
0.0019711
0.0020421
0.002117
0.0021936
0.0030343
0.0026911
0.0020626
0.0016319
0.0014614
0.0014605
0.0015285
0.001596
0.0016515
0.0016871
0.0017193
0.0017835
0.0018586
0.0019383
0.0020211
0.0029163
0.0025543
0.0019018
0.0014529
0.0012724
0.0012674
0.0013341
0.0014007
0.0014562
0.0014926
0.0015263
0.0015941
0.0016738
0.0017588
0.0018483
0.0027911
0.0024104
0.0017343
0.0012676
0.0010775
0.0010689
0.0011347
0.001201
0.0012572
0.0012949
0.0013306
0.0014025
0.0014875
0.0015783
0.0016751
0.0026584
0.0022593
0.0015598
0.0010757
0.00087634
0.00086456
0.00093014
0.00099666
0.0010541
0.0010936
0.0011319
0.0012086
0.0012994
0.0013966
0.0015012
0.002518
0.0021007
0.0013782
0.00087688
0.00066859
0.0006541
0.00071996
0.00078729
0.00084654
0.00088855
0.00092999
0.0010121
0.0011093
0.0012135
0.0013265
0.0023697
0.0019343
0.001189
0.00067083
0.00045395
0.00043718
0.00050386
0.00057258
0.00063427
0.00067939
0.00072457
0.00081272
0.00091692
0.0010288
0.001151
0.0022132
0.0017599
0.000992
0.00045723
0.00023208
0.00021348
0.00028151
0.00035222
0.00041699
0.00046584
0.00051538
0.00061023
0.00072215
0.00084229
0.00097428
0.0020484
0.0015771
0.00078688
0.00023576
2.6684e-06
-1.7344e-05
5.2595e-05
0.00012588
0.00019438
0.00024762
0.00030217
0.00040442
0.00052476
0.0006539
0.00079643
0.001875
0.0013858
0.00057333
6.0983e-06
-0.00023463
-0.00025561
-0.00018321
-0.00010674
-3.3864e-05
2.4444e-05
8.468e-05
0.00019507
0.00032457
0.00046346
0.00061728
0.0016928
0.0011857
0.00035103
-0.00023211
-0.00048014
-0.00050166
-0.00042624
-0.00034597
-0.00026803
-0.00020395
-0.00013733
-1.8024e-05
0.00012142
0.00027083
0.00043676
0.0015015
0.00097641
0.00011966
-0.0004792
-0.00073424
-0.00075583
-0.00067682
-0.00059213
-0.00050842
-0.00043784
-0.00036408
-0.00023506
-8.4852e-05
7.5896e-05
0.0002548
0.001301
0.00075771
-0.00012113
-0.00073553
-0.00099727
-0.0010185
-0.00093529
-0.00084554
-0.00075534
-0.0006775
-0.00059583
-0.00045622
-0.00029439
-0.00012144
7.1337e-05
0.0010909
0.00052926
-0.00037167
-0.0010015
-0.0012696
-0.00129
-0.001202
-0.0011065
-0.0010091
-0.00092317
-0.00083278
-0.00068169
-0.00050733
-0.00032127
-0.00011368
0.00087098
0.00029075
-0.00063232
-0.0012774
-0.0015516
-0.0015707
-0.0014773
-0.0013754
-0.0012699
-0.0011751
-0.0010752
-0.00091165
-0.0007238
-0.00052368
-0.00030028
0.00064092
4.1827e-05
-0.00090345
-0.0015637
-0.0018437
-0.001861
-0.0017616
-0.0016525
-0.0015382
-0.0014336
-0.0013232
-0.0011463
-0.00094391
-0.00072874
-0.00048848
0.00040041
-0.00021787
-0.0011855
-0.0018607
-0.0021463
-0.0021613
-0.0020551
-0.0019381
-0.0018142
-0.0016989
-0.001577
-0.0013857
-0.0011678
-0.0009365
-0.00067829
0.00014911
-0.00048872
-0.0014787
-0.0021689
-0.0024597
-0.002472
-0.0023584
-0.0022327
-0.0020982
-0.0019713
-0.001837
-0.00163
-0.0013955
-0.001147
-0.00086971
-0.0001133
-0.00077112
-0.0017837
-0.0024887
-0.0027845
-0.0027934
-0.0026717
-0.0025365
-0.0023904
-0.0022509
-0.0021031
-0.0018795
-0.0016272
-0.0013603
-0.0010627
-0.0003872
-0.0010655
-0.0021008
-0.0028206
-0.003121
-0.003126
-0.0029954
-0.0028498
-0.0026913
-0.0025381
-0.0023757
-0.0021342
-0.0018629
-0.0015764
-0.0012573
-0.00067296
-0.0013722
-0.0024304
-0.003165
-0.0034697
-0.0034703
-0.00333
-0.0031731
-0.0030011
-0.0028331
-0.002655
-0.0023943
-0.0021026
-0.0017953
-0.0014533
-0.00097095
-0.0016918
-0.0027732
-0.0035224
-0.0038311
-0.0038267
-0.0036758
-0.0035067
-0.0033201
-0.0031361
-0.002941
-0.0026598
-0.0023465
-0.002017
-0.0016507
-0.0012816
-0.0020248
-0.0031296
-0.0038934
-0.0042057
-0.0041956
-0.0040333
-0.003851
-0.0036487
-0.0034474
-0.003234
-0.0029309
-0.0025946
-0.0022415
-0.0018495
-0.0016053
-0.0023715
-0.0035001
-0.0042784
-0.004594
-0.0045775
-0.0044029
-0.0042064
-0.0039871
-0.0037672
-0.0035343
-0.0032077
-0.0028469
-0.0024687
-0.0020495
-0.0019426
-0.0027326
-0.0038854
-0.0046781
-0.0049966
-0.004973
-0.004785
-0.0045732
-0.0043357
-0.0040959
-0.0038418
-0.0034903
-0.0031034
-0.0026986
-0.0022505
-0.0022938
-0.0031086
-0.0042859
-0.0050932
-0.0054141
-0.0053825
-0.0051802
-0.0049518
-0.0046948
-0.0044336
-0.0041569
-0.0037788
-0.0033641
-0.002931
-0.0024525
-0.0026596
-0.0035002
-0.0047025
-0.0055241
-0.005847
-0.0058067
-0.0055889
-0.0053427
-0.0050648
-0.0047806
-0.0044796
-0.0040731
-0.003629
-0.003166
-0.0026552
-0.0030404
-0.0039078
-0.0051356
-0.0059716
-0.006296
-0.0062461
-0.0060117
-0.0057463
-0.0054459
-0.0051371
-0.0048102
-0.0043735
-0.003898
-0.0034033
-0.0028584
-0.0034369
-0.0043322
-0.005586
-0.0064364
-0.0067618
-0.0067013
-0.0064489
-0.0061631
-0.0058386
-0.0055034
-0.0051486
-0.0046798
-0.0041712
-0.0036428
-0.0030621
-0.0038495
-0.0047741
-0.0060546
-0.0069191
-0.0072449
-0.0071728
-0.0069012
-0.0065934
-0.0062431
-0.0058797
-0.0054952
-0.0049922
-0.0044484
-0.0038844
-0.0032658
-0.0042789
-0.0052342
-0.0065419
-0.0074207
-0.0077462
-0.0076614
-0.0073692
-0.0070376
-0.0066598
-0.0062662
-0.0058499
-0.0053107
-0.0047295
-0.004128
-0.0034693
-0.0047259
-0.0057132
-0.0070489
-0.0079418
-0.0082664
-0.0081677
-0.0078532
-0.0074964
-0.007089
-0.0066632
-0.006213
-0.0056352
-0.0050145
-0.0043731
-0.0036723
-0.005191
-0.0062121
-0.0075764
-0.0084834
-0.0088063
-0.0086924
-0.0083541
-0.00797
-0.0075311
-0.0070708
-0.0065844
-0.0059656
-0.0053032
-0.0046198
-0.0038746
-0.0056751
-0.0067316
-0.0081254
-0.0090463
-0.0093667
-0.0092362
-0.0088722
-0.008459