/*--------------------------------*- C++ -*----------------------------------*\
  =========                 |
  \\      /  F ield         | OpenFOAM: The Open Source CFD Toolbox
   \\    /   O peration     | Website:  https://openfoam.org
    \\  /    A nd           | Version:  6.0
     \\/     M anipulation  |
\*---------------------------------------------------------------------------*/
FoamFile
{
    version     2.0;
    format      ascii;
    class       volScalarField;
    location    "1";
    object      p;
}
// * * * * * * * * * * * * * * * * * * * * * * * * * * * * * * * * * * * * * //

dimensions      [0 2 -2 0 0 0 0];

internalField   nonuniform List<scalar> 
17000
(
3.4967
3.4742
3.5121
3.4479
3.4339
3.2715
3.13
2.8191
2.509
2.0567
1.6388
1.1648
3.4968
3.4741
3.5122
3.4478
3.4341
3.2714
3.1303
2.8192
2.5092
2.0567
1.6372
1.1629
3.4969
3.4737
3.5124
3.4475
3.4345
3.2713
3.1308
2.8192
2.5096
2.0567
1.635
1.1565
3.497
3.4729
3.5124
3.4469
3.4349
3.2711
3.1315
2.8193
2.5102
2.0567
1.6326
1.1507
3.4966
3.4716
3.5121
3.446
3.4352
3.2708
3.1322
2.8195
2.5108
2.0568
1.6302
1.1483
3.4957
3.47
3.5114
3.4448
3.4352
3.2704
3.1328
2.8198
2.5114
2.0568
1.6278
1.1475
3.4943
3.468
3.5103
3.4434
3.435
3.2699
3.1334
2.82
2.512
2.0568
1.6255
1.1466
3.4924
3.4655
3.5089
3.4417
3.4345
3.2693
3.134
2.8202
2.5127
2.0569
1.6232
1.1453
3.4901
3.4626
3.5071
3.4397
3.4339
3.2686
3.1345
2.8205
2.5134
2.0569
1.6208
1.1437
3.4873
3.4593
3.5049
3.4374
3.433
3.2678
3.1349
2.8208
2.5141
2.057
1.6185
1.1418
3.484
3.4555
3.5023
3.4347
3.4319
3.2668
3.1354
2.8211
2.5149
2.057
1.6162
1.1395
3.4802
3.4512
3.4993
3.4318
3.4306
3.2656
3.1357
2.8214
2.5157
2.0571
1.6139
1.1368
3.4759
3.4465
3.4959
3.4285
3.4291
3.2644
3.136
2.8216
2.5166
2.0572
1.6116
1.1337
3.4711
3.4412
3.492
3.4248
3.4272
3.2629
3.1363
2.8219
2.5175
2.0572
1.6092
1.1302
3.4658
3.4355
3.4878
3.4207
3.4252
3.2612
3.1364
2.8222
2.5184
2.0573
1.6069
1.1264
3.4599
3.4292
3.483
3.4163
3.4228
3.2594
3.1365
2.8224
2.5194
2.0574
1.6046
1.1221
3.4535
3.4224
3.4779
3.4115
3.4202
3.2574
3.1365
2.8226
2.5204
2.0575
1.6023
1.1175
3.4465
3.415
3.4722
3.4063
3.4173
3.2552
3.1365
2.8228
2.5214
2.0575
1.6
1.1125
3.4389
3.407
3.4661
3.4006
3.4141
3.2527
3.1363
2.8229
2.5225
2.0576
1.5977
1.1072
3.4307
3.3985
3.4595
3.3945
3.4105
3.25
3.136
2.823
2.5237
2.0577
1.5954
1.1016
3.4219
3.3893
3.4523
3.388
3.4067
3.2471
3.1357
2.823
2.5249
2.0578
1.5931
1.0956
3.4125
3.3796
3.4447
3.381
3.4025
3.2439
3.1352
2.823
2.5261
2.0579
1.5909
1.0893
3.4025
3.3692
3.4365
3.3735
3.398
3.2405
3.1345
2.8229
2.5273
2.058
1.5886
1.0827
3.3918
3.3581
3.4277
3.3656
3.393
3.2367
3.1337
2.8227
2.5286
2.0582
1.5864
1.0759
3.3804
3.3464
3.4184
3.3571
3.3878
3.2327
3.1328
2.8225
2.5299
2.0583
1.5842
1.0688
3.3684
3.334
3.4085
3.3481
3.3821
3.2284
3.1317
2.8221
2.5312
2.0585
1.582
1.0614
3.3557
3.3209
3.398
3.3385
3.376
3.2238
3.1305
2.8217
2.5326
2.0586
1.5798
1.0538
3.3422
3.3072
3.3869
3.3285
3.3695
3.2188
3.129
2.8211
2.5339
2.0588
1.5777
1.046
3.3281
3.2926
3.3751
3.3178
3.3626
3.2135
3.1274
2.8204
2.5353
2.0591
1.5757
1.038
3.3132
3.2774
3.3627
3.3066
3.3552
3.2078
3.1255
2.8196
2.5367
2.0593
1.5737
1.0299
3.2975
3.2614
3.3496
3.2947
3.3473
3.2018
3.1235
2.8187
2.5381
2.0596
1.5718
1.0216
3.281
3.2446
3.3359
3.2823
3.339
3.1954
3.1211
2.8176
2.5395
2.0599
1.5699
1.0132
3.2638
3.227
3.3214
3.2692
3.3301
3.1886
3.1186
2.8164
2.5409
2.0603
1.5682
1.0047
3.2457
3.2086
3.3063
3.2555
3.3208
3.1813
3.1158
2.815
2.5423
2.0607
1.5665
0.9961
3.2269
3.1895
3.2904
3.2411
3.3109
3.1737
3.1127
2.8135
2.5436
2.0611
1.565
0.9875
3.2072
3.1695
3.2737
3.2261
3.3005
3.1656
3.1093
2.8118
2.545
2.0616
1.5635
0.97891
3.1866
3.1486
3.2563
3.2104
3.2895
3.1571
3.1056
2.8099
2.5463
2.0621
1.5623
0.97034
3.1652
3.1269
3.2382
3.194
3.2779
3.1481
3.1016
2.8078
2.5476
2.0628
1.5612
0.96185
3.1429
3.1043
3.2192
3.1769
3.2658
3.1386
3.0973
2.8055
2.5489
2.0634
1.5603
0.95346
3.1197
3.0808
3.1994
3.1591
3.253
3.1287
3.0926
2.803
2.5501
2.0642
1.5595
0.94523
3.0955
3.0565
3.1789
3.1405
3.2397
3.1183
3.0876
2.8003
2.5513
2.065
1.559
0.93718
3.0705
3.0312
3.1574
3.1212
3.2256
3.1073
3.0822
2.7974
2.5524
2.066
1.5588
0.92937
3.0445
3.0051
3.1352
3.1011
3.211
3.0959
3.0765
2.7943
2.5535
2.067
1.5588
0.92183
3.0176
2.978
3.1121
3.0803
3.1957
3.084
3.0703
2.791
2.5546
2.0681
1.5591
0.91463
2.9897
2.95
3.0881
3.0587
3.1797
3.0715
3.0638
2.7874
2.5556
2.0694
1.5596
0.90781
2.9609
2.9211
3.0632
3.0364
3.163
3.0585
3.0569
2.7837
2.5565
2.0708
1.5606
0.90141
2.931
2.8912
3.0374
3.0132
3.1456
3.0449
3.0496
2.7796
2.5575
2.0723
1.5619
0.8955
2.9002
2.8603
3.0108
2.9893
3.1276
3.0308
3.0418
2.7754
2.5583
2.074
1.5635
0.89013
2.8684
2.8286
2.9832
2.9646
3.1088
3.0162
3.0336
2.7709
2.5591
2.0759
1.5656
0.88535
2.8356
2.7958
2.9548
2.9391
3.0893
3.001
3.025
2.7662
2.5599
2.0779
1.5682
0.88122
2.8018
2.7622
2.9254
2.9128
3.0691
2.9853
3.016
2.7613
2.5607
2.0802
1.5712
0.8778
2.767
2.7275
2.8951
2.8858
3.0481
2.9691
3.0065
2.7562
2.5614
2.0826
1.5747
0.87515
2.7312
2.692
2.8638
2.8579
3.0265
2.9523
2.9966
2.7508
2.562
2.0853
1.5787
0.87334
2.6944
2.6554
2.8317
2.8293
3.0041
2.9349
2.9862
2.7452
2.5627
2.0882
1.5833
0.87241
2.6566
2.618
2.7986
2.7999
2.981
2.9171
2.9755
2.7395
2.5633
2.0914
1.5886
0.87244
2.6177
2.5796
2.7646
2.7697
2.9572
2.8987
2.9643
2.7335
2.5639
2.0949
1.5944
0.87349
2.5779
2.5403
2.7297
2.7388
2.9326
2.8798
2.9526
2.7274
2.5646
2.0987
1.6009
0.87561
2.537
2.5001
2.6939
2.7071
2.9074
2.8604
2.9406
2.7211
2.5652
2.1029
1.6081
0.87888
2.4952
2.4589
2.6572
2.6747
2.8814
2.8405
2.9281
2.7146
2.5658
2.1074
1.616
0.88334
2.4524
2.4169
2.6196
2.6416
2.8548
2.8202
2.9153
2.708
2.5665
2.1123
1.6247
0.88907
2.4086
2.3741
2.5811
2.6078
2.8275
2.7994
2.902
2.7013
2.5673
2.1175
1.6343
0.89613
2.3639
2.3304
2.5418
2.5733
2.7995
2.7782
2.8884
2.6945
2.5681
2.1233
1.6446
0.90457
2.3182
2.2858
2.5016
2.5382
2.7709
2.7566
2.8744
2.6877
2.5691
2.1295
1.6558
0.91445
2.2715
2.2405
2.4606
2.5024
2.7417
2.7345
2.8602
2.6808
2.5701
2.1362
1.668
0.92584
2.224
2.1943
2.4188
2.4661
2.7119
2.7122
2.8456
2.6738
2.5713
2.1434
1.681
0.93878
2.1755
2.1474
2.3761
2.4292
2.6815
2.6895
2.8307
2.6669
2.5727
2.1512
1.6951
0.95334
2.1262
2.0998
2.3328
2.3917
2.6506
2.6665
2.8156
2.6601
2.5742
2.1596
1.7102
0.96957
2.0761
2.0515
2.2887
2.3537
2.6191
2.6433
2.8002
2.6533
2.576
2.1687
1.7263
0.98752
2.025
2.0025
2.2439
2.3153
2.5872
2.6199
2.7847
2.6467
2.578
2.1784
1.7436
1.0072
1.9732
1.9529
2.1984
2.2765
2.5549
2.5963
2.769
2.6403
2.5804
2.1888
1.762
1.0288
1.9206
1.9027
2.1523
2.2373
2.5221
2.5726
2.7532
2.634
2.583
2.2001
1.7815
1.0522
1.8673
1.8519
2.1056
2.1977
2.489
2.5488
2.7373
2.6281
2.5861
2.2121
1.8022
1.0775
1.8132
1.8006
2.0583
2.1578
2.4555
2.525
2.7215
2.6224
2.5895
2.225
1.8242
1.1048
1.7584
1.7488
2.0105
2.1177
2.4218
2.5012
2.7056
2.6171
2.5934
2.2387
1.8475
1.1341
1.703
1.6965
1.9622
2.0774
2.3879
2.4775
2.6898
2.6123
2.5978
2.2535
1.8721
1.1654
1.6469
1.6439
1.9134
2.0369
2.3538
2.4539
2.6742
2.6079
2.6028
2.2692
1.898
1.1988
1.5903
1.5908
1.8642
1.9963
2.3196
2.4306
2.6587
2.604
2.6084
2.286
1.9254
1.2343
1.533
1.5375
1.8147
1.9557
2.2853
2.4075
2.6436
2.6008
2.6146
2.3039
1.9541
1.2719
1.4752
1.4838
1.7649
1.9151
2.251
2.3847
2.6287
2.5983
2.6216
2.323
1.9844
1.3117
1.4169
1.43
1.7147
1.8746
2.2168
2.3623
2.6142
2.5964
2.6293
2.3433
2.0161
1.3537
1.3581
1.3759
1.6644
1.8342
2.1827
2.3404
2.6002
2.5955
2.6379
2.3649
2.0494
1.3979
1.2989
1.3216
1.6139
1.794
2.1488
2.3191
2.5867
2.5953
2.6474
2.3879
2.0842
1.4444
1.2392
1.2672
1.5632
1.754
2.1152
2.2983
2.5737
2.5962
2.6578
2.4122
2.1207
1.4932
1.1792
1.2127
1.5124
1.7143
2.0818
2.2782
2.5615
2.5981
2.6693
2.438
2.1588
1.5443
1.1187
1.1582
1.4616
1.6749
2.0488
2.2589
2.55
2.6011
2.6819
2.4654
2.1986
1.5977
1.0579
1.1036
1.4108
1.6359
2.0163
2.2404
2.5393
2.6053
2.6956
2.4944
2.2401
1.6534
0.9968
1.049
1.36
1.5974
1.9843
2.2228
2.5296
2.6108
2.7107
2.525
2.2834
1.7115
0.93534
0.99442
1.3093
1.5594
1.9528
2.2062
2.5208
2.6176
2.727
2.5573
2.3285
1.7719
0.87355
0.93989
1.2586
1.522
1.922
2.1906
2.5131
2.6259
2.7447
2.5915
2.3754
1.8348
0.81144
0.88542
1.2081
1.4851
1.8919
2.1761
2.5066
2.6357
2.764
2.6275
2.4242
1.9
0.74902
0.831
1.1578
1.4489
1.8626
2.1629
2.5013
2.6471
2.7847
2.6655
2.4749
1.9677
0.68627
0.77665
1.1076
1.4133
1.834
2.1509
2.4972
2.6602
2.8071
2.7054
2.5276
2.0377
0.62317
0.72236
1.0577
1.3785
1.8064
2.1402
2.4946
2.6751
2.8312
2.7474
2.5822
2.1102
0.5597
0.66811
1.0079
1.3444
1.7797
2.1309
2.4935
2.6918
2.8571
2.7915
2.6389
2.1852
0.49584
0.61389
0.95837
1.311
1.7539
2.123
2.4939
2.7104
2.8848
2.8378
2.6976
2.2626
0.43154
0.55966
0.90902
1.2784
1.7292
2.1167
2.4959
2.7311
2.9144
2.8864
2.7584
2.3424
0.36675
0.50539
0.85987
1.2466
1.7055
2.1119
2.4996
2.7538
2.946
2.9373
2.8213
2.4247
0.30141
0.45103
0.8109
1.2155
1.683
2.1087
2.5051
2.7786
2.9797
2.9905
2.8864
2.5094
0.23544
0.39651
0.76207
1.1852
1.6615
2.1071
2.5124
2.8056
3.0155
3.0461
2.9537
2.5967
0.16877
0.34175
0.71334
1.1557
1.6411
2.1072
2.5215
2.8349
3.0536
3.1043
3.0232
2.6863
0.1013
0.28669
0.66467
1.1268
1.6219
2.109
2.5326
2.8664
3.0938
3.1649
3.0949
2.7785
0.032918
0.2312
0.61599
1.0986
1.6039
2.1125
2.5457
2.9003
3.1364
3.2281
3.1689
2.8731
-0.036502
0.17518
0.56723
1.071
1.587
2.1177
2.5608
2.9367
3.1814
3.2938
3.2453
2.9701
-0.1071
0.11849
0.51829
1.044
1.5712
2.1246
2.578
2.9754
3.2287
3.3622
3.3239
3.0697
-0.17903
0.060994
0.46908
1.0174
1.5564
2.1332
2.5972
3.0166
3.2785
3.4333
3.4049
3.1717
-0.25246
0.0025198
0.41948
0.99113
1.5428
2.1434
2.6186
3.0603
3.3308
3.507
3.4883
3.2761
-0.32758
-0.057112
0.36936
0.96515
1.5301
2.1553
2.642
3.1064
3.3856
3.5834
3.574
3.383
-0.40459
-0.1181
0.31857
0.93929
1.5183
2.1688
2.6675
3.155
3.443
3.6626
3.6621
3.4923
-0.48373
-0.18066
0.26695
0.91342
1.5075
2.1838
2.6952
3.2061
3.5029
3.7444
3.7527
3.6041
-0.56524
-0.24504
0.21432
0.88738
1.4973
2.2003
2.7249
3.2597
3.5654
3.8289
3.8456
3.7183
-0.64936
-0.31149
0.16047
0.861
1.4878
2.2182
2.7567
3.3156
3.6305
3.9161
3.941
3.8349
-0.7364
-0.38028
0.10519
0.83408
1.4789
2.2373
2.7905
3.374
3.6981
4.006
4.0388
3.9539
-0.82664
-0.45172
0.04825
0.80642
1.4704
2.2576
2.8262
3.4347
3.7683
4.0986
4.1389
4.0753
-0.92042
-0.52612
-0.010602
0.7778
1.4621
2.279
2.8638
3.4977
3.841
4.1937
4.2415
4.1991
-1.0181
-0.60383
-0.07164
0.74796
1.4539
2.3012
2.9033
3.5629
3.9162
4.2914
4.3465
4.3252
-1.1199
-0.68519
-0.13515
0.71666
1.4456
2.3243
2.9445
3.6302
3.9939
4.3917
4.4538
4.4536
-1.2264
-0.7706
-0.20144
0.68362
1.4371
2.3479
2.9873
3.6995
4.074
4.4944
4.5635
4.5843
-1.3379
-0.86044
-0.27083
0.64853
1.4281
2.3719
3.0316
3.7708
4.1564
4.5995
4.6755
4.7173
-1.4549
-0.95515
-0.34367
0.6111
1.4183
2.3961
3.0774
3.8439
4.2412
4.7069
4.7898
4.8525
-1.5777
-1.0552
-0.42032
0.571
1.4076
2.4204
3.1244
3.9187
4.3282
4.8165
4.9063
4.9899
-1.7068
-1.1609
-0.50115
0.52789
1.3958
2.4445
3.1726
3.9951
4.4173
4.9283
5.0251
5.1294
-1.8427
-1.2729
-0.58655
0.48141
1.3825
2.4682
3.2218
4.0729
4.5085
5.0422
5.146
5.2711
-1.9859
-1.3916
-0.67692
0.4312
1.3675
2.4912
3.2718
4.152
4.6017
5.1581
5.2691
5.4149
-2.137
-1.5175
-0.77269
0.37689
1.3505
2.5133
3.3225
4.2322
4.6968
5.2758
5.3942
5.5608
-2.2963
-1.6512
-0.87428
0.31809
1.3312
2.5343
3.3737
4.3134
4.7937
5.3953
5.5214
5.7086
-2.4645
-1.7931
-0.98214
0.25441
1.3093
2.554
3.4253
4.3955
4.8923
5.5164
5.6506
5.8585
-2.6421
-1.9439
-1.0967
0.18546
1.2846
2.572
3.477
4.4782
4.9926
5.6391
5.7818
6.0103
-2.8296
-2.1039
-1.2184
0.11082
1.2567
2.5881
3.5288
4.5615
5.0943
5.7632
5.9148
6.1639
-3.0276
-2.2739
-1.3478
0.030103
1.2254
2.6021
3.5803
4.6451
5.1975
5.8887
6.0497
6.3195
-3.2368
-2.4544
-1.4852
-0.057091
1.1902
2.6137
3.6316
4.7289
5.302
6.0154
6.1863
6.4768
-3.4575
-2.6458
-1.6312
-0.15116
1.151
2.6227
3.6823
4.8129
5.4077
6.1433
6.3248
6.636
-3.6904
-2.8489
-1.7862
-0.25248
1.1075
2.6289
3.7324
4.8967
5.5146
6.2722
6.4649
6.7969
-3.9362
-3.064
-1.9506
-0.36143
1.0593
2.632
3.7817
4.9804
5.6227
6.4021
6.6068
6.9595
-4.1953
-3.2918
-2.1249
-0.47838
1.0062
2.6318
3.83
5.0639
5.7318
6.533
6.7503
7.1238
-4.4682
-3.5327
-2.3095
-0.60366
0.94793
2.6282
3.8773
5.1469
5.8419
6.6647
6.8956
7.2898
-4.7557
-3.7873
-2.5049
-0.73759
0.88429
2.621
3.9235
5.2296
5.9531
6.7973
7.0424
7.4573
-5.0581
-4.0561
-2.7114
-0.88047
0.81506
2.61
3.9684
5.3118
6.0653
6.9308
7.191
7.6265
-5.376
-4.3396
-2.9294
-1.0326
0.74004
2.5953
4.012
5.3935
6.1785
7.0651
7.3412
7.7972
-5.71
-4.6381
-3.1592
-1.1941
0.65908
2.5765
4.0544
5.4748
6.2928
7.2003
7.4932
7.9696
-6.0605
-4.9522
-3.4011
-1.3653
0.57206
2.5539
4.0954
5.5556
6.4083
7.3364
7.647
8.1434
-6.4281
-5.2822
-3.6556
-1.5463
0.47889
2.5273
4.1352
5.6361
6.5251
7.4736
7.8027
8.3188
-6.8131
-5.6284
-3.9227
-1.7372
0.37952
2.4967
4.1738
5.7164
6.6432
7.612
7.9604
8.4957
-7.216
-5.9913
-4.2028
-1.938
0.27393
2.4624
4.2112
5.7967
6.763
7.7517
8.1202
8.6742
-7.6372
-6.371
-4.496
-2.1489
0.16216
2.4243
4.2478
5.877
6.8845
7.8929
8.2822
8.8543
-8.0772
-6.7678
-4.8024
-2.3698
0.044283
2.3828
4.2835
5.9578
7.0081
8.0358
8.4468
9.036
-8.5363
-7.182
-5.1222
-2.6005
-0.07957
2.3379
4.3188
6.0392
7.134
8.1808
8.6139
9.2193
-9.0148
-7.6138
-5.4554
-2.8411
-0.20923
2.2901
4.3537
6.1216
7.2624
8.328
8.784
9.4044
-9.5132
-8.0632
-5.802
-3.0911
-0.34446
2.2395
4.3887
6.2054
7.3939
8.4779
8.9572
9.5913
-10.032
-8.5303
-6.162
-3.3505
-0.485
2.1867
4.4241
6.2909
7.5287
8.6309
9.1339
9.7802
-10.571
-9.0153
-6.5353
-3.6189
-0.63051
2.132
4.4602
6.3787
7.6672
8.7873
9.3144
9.9711
-11.13
-9.5182
-6.9219
-3.8959
-0.78062
2.076
4.4976
6.4692
7.81
8.9476
9.499
10.164
-11.711
-10.039
-7.3215
-4.1812
-0.93491
2.0192
4.5367
6.563
7.9574
9.1123
9.6882
10.36
-12.313
-10.578
-7.734
-4.4742
-1.0929
1.9621
4.5779
6.6606
8.1101
9.282
9.8823
10.558
-12.937
-11.134
-8.1592
-4.7746
-1.2541
1.9053
4.6219
6.7626
8.2685
9.4571
10.082
10.759
-13.583
-11.709
-8.5969
-5.0817
-1.4179
1.8497
4.6692
6.8697
8.4332
9.6383
10.287
10.963
-14.251
-12.301
-9.0468
-5.3949
-1.5838
1.7957
4.7204
6.9825
8.6047
9.8262
10.499
11.171
-14.943
-12.911
-9.5086
-5.7137
-1.7511
1.7442
4.7761
7.1017
8.7837
10.021
10.718
11.383
-15.657
-13.539
-9.9822
-6.0375
-1.9192
1.696
4.8369
7.2279
8.9707
10.224
10.944
11.599
-16.396
-14.184
-10.467
-6.3657
-2.0875
1.6517
4.9035
7.3619
9.1662
10.436
11.178
11.819
-17.16
-14.848
-10.964
-6.6975
-2.2552
1.6121
4.9765
7.5042
9.3708
10.657
11.42
12.045
-17.948
-15.53
-11.471
-7.0325
-2.4218
1.578
5.0564
7.6556
9.5851
10.887
11.671
12.277
-18.764
-16.231
-11.989
-7.3701
-2.5865
1.5501
5.144
7.8167
9.8095
11.128
11.932
12.516
-19.606
-16.95
-12.519
-7.7097
-2.7488
1.5292
5.2398
7.9879
10.044
11.38
12.203
12.761
-20.478
-17.689
-13.059
-8.0508
-2.908
1.5159
5.3444
8.17
10.29
11.644
12.485
13.014
-21.379
-18.448
-13.611
-8.3931
-3.0636
1.511
5.4582
8.3634
10.548
11.919
12.778
13.276
-22.313
-19.228
-14.173
-8.7362
-3.215
1.5149
5.5817
8.5685
10.817
12.206
13.082
13.547
-23.28
-20.03
-14.748
-9.0799
-3.3618
1.5284
5.7155
8.7857
11.098
12.507
13.398
13.827
-24.282
-20.856
-15.335
-9.424
-3.5037
1.5518
5.8598
9.0154
11.39
12.82
13.726
14.119
-25.323
-21.706
-15.934
-9.7687
-3.6402
1.5857
6.0149
9.2578
11.695
13.147
14.066
14.422
-26.406
-22.583
-16.548
-10.114
-3.7711
1.6303
6.1812
9.513
12.012
13.486
14.42
14.736
-27.532
-23.489
-17.176
-10.46
-3.8963
1.686
6.359
9.7812
12.341
13.84
14.786
15.064
-28.705
-24.426
-17.821
-10.808
-4.0157
1.7529
6.5483
10.062
12.682
14.206
15.165
15.405
-29.931
-25.397
-18.483
-11.157
-4.1293
1.8314
6.7493
10.357
13.035
14.585
15.557
15.759
-31.211
-26.405
-19.165
-11.51
-4.2371
1.9214
6.9621
10.664
13.398
14.978
15.962
16.128
-32.553
-27.454
-19.868
-11.866
-4.3393
2.023
7.187
10.984
13.773
15.383
16.379
16.512
-33.959
-28.546
-20.594
-12.227
-4.4361
2.1363
7.4239
11.316
14.159
15.8
16.809
16.911
-35.436
-29.688
-21.346
-12.594
-4.5278
2.2612
7.673
11.661
14.555
16.229
17.25
17.325
-36.99
-30.882
-22.127
-12.968
-4.6146
2.3979
7.9346
12.019
14.961
16.669
17.704
17.753
-38.628
-32.135
-22.94
-13.351
-4.6969
2.5463
8.2089
12.39
15.377
17.119
18.168
18.196
-40.355
-33.451
-23.787
-13.745
-4.775
2.7066
8.4964
12.773
15.802
17.58
18.642
18.654
-42.18
-34.837
-24.671
-14.151
-4.849
2.8791
8.7976
13.169
16.237
18.051
19.127
19.125
-44.111
-36.298
-25.597
-14.57
-4.9191
3.064
9.1131
13.578
16.681
18.531
19.621
19.609
-46.155
-37.84
-26.568
-15.006
-4.9854
3.2619
9.4441
14.001
17.136
19.021
20.123
20.106
-48.321
-39.472
-27.587
-15.459
-5.0477
3.4735
9.7916
14.439
17.601
19.519
20.633
20.613
-50.619
-41.199
-28.658
-15.93
-5.1058
3.6998
10.157
14.893
18.077
20.027
21.151
21.131
-53.058
-43.029
-29.786
-16.422
-5.1591
3.9421
10.543
15.364
18.566
20.544
21.676
21.658
-55.648
-44.97
-30.972
-16.935
-5.2069
4.2019
10.95
15.854
19.069
21.072
22.208
22.193
-58.401
-47.029
-32.223
-17.471
-5.2481
4.4812
11.382
16.366
19.587
21.611
22.746
22.735
-61.326
-49.216
-33.54
-18.03
-5.2812
4.7822
11.841
16.902
20.124
22.163
23.292
23.284
-64.435
-51.537
-34.927
-18.613
-5.3044
5.1076
12.331
17.465
20.682
22.729
23.846
23.838
-67.741
-54.001
-36.388
-19.22
-5.3156
5.4606
12.856
18.058
21.263
23.311
24.408
24.398
-71.256
-56.616
-37.926
-19.85
-5.3122
5.8444
13.418
18.685
21.872
23.912
24.98
24.963
-74.992
-59.392
-39.543
-20.502
-5.2911
6.263
14.023
19.351
22.512
24.535
25.564
25.534
-78.964
-62.337
-41.242
-21.176
-5.2491
6.7206
14.675
20.058
23.188
25.183
26.162
26.111
-83.185
-65.46
-43.026
-21.869
-5.1822
7.2216
15.379
20.813
23.903
25.86
26.776
26.694
-87.672
-68.769
-44.896
-22.579
-5.0864
7.7707
16.139
21.618
24.662
26.569
27.409
27.287
-92.44
-72.274
-46.855
-23.303
-4.9571
8.3729
16.96
22.48
25.471
27.315
28.064
27.891
-97.507
-75.986
-48.904
-24.039
-4.7895
9.0333
17.846
23.402
26.332
28.102
28.745
28.508
-102.89
-79.913
-51.045
-24.782
-4.5787
9.7568
18.804
24.388
27.25
28.932
29.456
29.141
-108.61
-84.068
-53.28
-25.529
-4.3192
10.549
19.835
25.442
28.23
29.812
30.199
29.793
-114.69
-88.461
-55.611
-26.275
-4.0058
11.414
20.945
26.568
29.273
30.743
30.98
30.468
-121.16
-93.106
-58.04
-27.016
-3.6329
12.357
22.137
27.767
30.384
31.729
31.801
31.171
-128.03
-98.016
-60.57
-27.749
-3.1949
13.383
23.412
29.042
31.563
32.771
32.666
31.904
-135.34
-103.21
-63.204
-28.467
-2.686
14.496
24.775
30.394
32.811
33.872
33.577
32.671
-143.13
-108.7
-65.946
-29.167
-2.1005
15.701
26.226
31.822
34.128
35.032
34.536
33.476
-151.42
-114.51
-68.801
-29.845
-1.4324
17.003
27.767
33.328
35.514
36.249
35.544
34.321
-160.26
-120.66
-71.777
-30.496
-0.67547
18.404
29.4
34.909
36.966
37.524
36.601
35.21
-169.69
-127.18
-74.88
-31.117
0.17682
19.911
31.126
36.564
38.482
38.852
37.708
36.142
-179.76
-134.09
-78.121
-31.705
1.1316
21.529
32.946
38.293
40.058
40.232
38.861
37.118
-190.53
-141.43
-81.511
-32.255
2.1967
23.265
34.864
40.093
41.692
41.658
40.059
38.137
-202.05
-149.25
-85.065
-32.767
3.3809
25.125
36.883
41.966
43.381
43.127
41.297
39.197
-214.39
-157.57
-88.801
-33.236
4.6943
27.121
39.008
43.912
45.121
44.634
42.571
40.294
-227.62
-166.45
-92.737
-33.662
6.1484
29.262
41.247
45.934
46.913
46.176
43.878
41.424
-241.82
-175.95
-96.899
-34.043
7.7565
31.564
43.611
48.037
48.756
47.75
45.212
42.58
-257.07
-186.13
-101.31
-34.378
9.5339
34.045
46.112
50.23
50.654
49.355
46.57
43.757
-273.47
-197.06
-106.02
-34.667
11.498
36.724
48.767
52.524
52.613
50.992
47.95
44.95
-291.11
-208.81
-111.04
-34.911
13.667
39.625
51.596
54.933
54.639
52.664
49.351
46.153
-310.1
-221.49
-116.45
-35.115
16.063
42.777
54.623
57.475
56.746
54.378
50.773
47.362
-330.55
-235.19
-122.28
-35.283
18.707
46.208
57.874
60.172
58.946
56.141
52.22
48.575
-352.58
-250.02
-128.61
-35.427
21.623
49.953
61.377
63.045
61.257
57.966
53.698
49.793
-376.31
-266.11
-135.52
-35.563
24.834
54.045
65.164
66.12
63.696
59.866
55.215
51.018
-401.87
-283.62
-143.11
-35.717
28.361
58.521
69.266
69.421
66.281
61.855
56.782
52.258
-429.38
-302.7
-151.51
-35.931
32.222
63.417
73.716
72.973
69.031
63.946
58.41
53.519
-458.99
-323.55
-160.87
-36.261
36.431
68.768
78.544
76.799
71.959
66.153
60.11
54.813
-490.82
-346.36
-171.4
-36.795
40.99
74.606
83.78
80.919
75.078
68.484
61.892
56.15
-525.01
-371.39
-183.33
-37.657
45.892
80.963
89.452
85.348
78.394
70.943
63.763
57.541
-561.69
-398.9
-196.98
-39.021
51.11
87.864
95.587
90.102
81.911
73.53
65.727
58.997
-600.96
-429.19
-212.74
-41.133
56.589
95.332
102.21
95.19
85.625
76.236
67.782
60.523
-642.95
-462.61
-231.07
-44.332
62.23
103.38
109.35
100.63
89.531
79.051
69.918
62.124
-687.72
-499.54
-252.58
-49.079
67.874
112
117.03
106.42
93.625
81.956
72.121
63.796
-735.34
-540.37
-277.96
-55.995
73.261
121.17
125.27
112.58
97.903
84.935
74.373
65.532
-785.81
-585.52
-308.04
-65.891
77.998
130.8
134.1
119.14
102.37
87.974
76.651
67.319
-839.06
-635.41
-343.81
-79.811
81.495
140.74
143.5
126.12
107.03
91.065
78.934
69.139
-894.95
-690.42
-386.35
-99.059
82.903
150.71
153.46
133.53
111.92
94.212
81.205
70.97
-953.2
-750.86
-436.45
-125.23
81.047
160.2
163.87
141.4
117.06
97.431
83.454
72.789
-1013.4
-816.79
-496.41
-160.1
74.348
168.48
174.53
149.7
122.5
100.75
85.684
74.577
-1074.8
-888.88
-566.36
-204.81
60.833
174.41
185.06
158.36
128.24
104.22
87.909
76.319
-1136.7
-966.11
-646.7
-262.28
38.179
176.44
194.88
167.2
134.29
107.86
90.154
78.007
-1197.8
-1047.2
-737.57
-334.06
3.8731
172.5
203.04
175.9
140.57
111.71
92.448
79.643
-1256.7
-1130.5
-838.17
-420.83
-44.042
160.09
208.12
183.98
146.92
115.75
94.818
81.234
-1311.7
-1213.9
-946.54
-522.53
-107.75
136.63
208.38
190.69
153.07
119.92
97.27
82.788
-1360.8
-1294.4
-1059.4
-637.63
-189.13
99.836
201.83
195.07
158.6
124.08
99.784
84.309
-1402.6
-1368.5
-1172.3
-762.67
-287.09
48.148
186.4
195.91
162.99
128.01
102.3
85.786
-1436.1
-1433.7
-1279.7
-892.49
-399.04
-18.256
160.41
191.8
165.64
131.44
104.71
87.194
-1461.1
-1486.6
-1376.4
-1020.8
-520.75
-98.681
123.14
181.71
165.97
134.08
106.9
88.494
-1478.5
-1525.8
-1458
-1141.7
-646.62
-190.63
75.279
165.19
163.58
135.72
108.75
89.637
-1489.7
-1551.7
-1522.3
-1250.4
-770.23
-288.4
19.806
142.81
158.41
136.25
110.18
90.583
-1496.7
-1566.5
-1570.2
-1348.3
-892.46
-392.34
-43.513
115.24
150.66
135.72
111.15
91.3
-1500.5
-1572.9
-1600.4
-1418.9
-988.88
-481.15
-101.71
87.055
141.59
134.34
111.62
91.73
-1502
-1576
-1623.6
-1469.9
-1055.5
-541.12
-142.75
66.062
134.03
132.68
111.63
91.87
1.2249
1.1716
1.1613
1.1852
1.225
1.2757
1.3346
1.3994
1.4684
1.54
1.6121
1.6841
0.95694
0.87726
0.86334
0.87598
0.89985
0.93197
0.97017
1.0127
1.0581
1.1051
1.1523
1.1984
0.81759
0.74791
0.72885
0.73414
0.75159
0.77801
0.81112
0.8491
0.89041
0.93384
0.97789
1.0216
0.83551
0.77945
0.75334
0.75286
0.76748
0.79267
0.82572
0.86451
0.90723
0.95245
0.99855
1.0446
0.86607
0.81267
0.78077
0.77541
0.78723
0.81078
0.84312
0.88191
0.92512
0.97112
1.0182
1.0654
0.88021
0.8272
0.79228
0.78341
0.79287
0.81494
0.84656
0.88528
0.92888
0.9756
1.0236
1.0718
0.88693
0.83564
0.79934
0.78796
0.79561
0.81662
0.84787
0.88683
0.93113
0.97887
1.0281
1.0775
0.89182
0.84244
0.80531
0.79204
0.79831
0.81861
0.84978
0.88922
0.93446
0.98346
1.0342
1.085
0.89543
0.84735
0.8096
0.79492
0.80018
0.82005
0.85138
0.89153
0.93792
0.98838
1.0407
1.0933
0.89748
0.85013
0.81188
0.7962
0.80076
0.82045
0.85217
0.89324
0.94099
0.99313
1.0474
1.1019
0.898
0.85101
0.81233
0.79592
0.80002
0.81975
0.85205
0.89423
0.94355
0.99761
1.0541
1.1108
0.8972
0.85025
0.81114
0.79418
0.798
0.81792
0.85098
0.89445
0.94553
1.0017
1.0606
1.1198
0.8952
0.84804
0.80844
0.79104
0.7947
0.81495
0.8489
0.89381
0.94683
1.0054
1.0669
1.1289
0.8921
0.84451
0.80433
0.78655
0.79014
0.8108
0.84575
0.89224
0.94737
1.0085
1.0729
1.1381
0.88797
0.83975
0.7989
0.78075
0.78431
0.80545
0.84149
0.88967
0.94707
1.0109
1.0785
1.1471
0.88286
0.83383
0.79223
0.77368
0.77722
0.79888
0.83607
0.88604
0.94585
1.0127
1.0837
1.156
0.87682
0.82683
0.78435
0.76537
0.76886
0.79105
0.82943
0.88128
0.94363
1.0136
1.0883
1.1646
0.86989
0.81879
0.77532
0.75583
0.75923
0.78193
0.82152
0.87531
0.94032
1.0136
1.0922
1.1729
0.8621
0.80974
0.76516
0.74506
0.74831
0.77148
0.81229
0.86805
0.93581
1.0126
1.0954
1.1808
0.85348
0.79972
0.75389
0.73308
0.73608
0.75965
0.80164
0.85941
0.93001
1.0105
1.0977
1.1881
0.84404
0.78874
0.74152
0.71986
0.7225
0.74639
0.78952
0.84928
0.92278
1.007
1.099
1.1947
0.83383
0.77683
0.72807
0.70541
0.70755
0.73165
0.77583
0.83756
0.91401
1.0022
1.0991
1.2005
0.82284
0.764
0.71353
0.68971
0.69118
0.71536
0.76048
0.82413
0.90354
0.99577
1.0978
1.2053
0.81112
0.75026
0.69791
0.67274
0.67337
0.69744
0.74339
0.80886
0.89121
0.98756
1.0949
1.2089
0.79867
0.73564
0.68122
0.65449
0.65406
0.67784
0.72443
0.7916
0.87685
0.97736
1.0903
1.211
0.78551
0.72014
0.66344
0.63494
0.63321
0.65648
0.70351
0.77223
0.86027
0.96496
1.0835
1.2114
0.77168
0.70378
0.64459
0.61406
0.61078
0.63328
0.68051
0.75056
0.84127
0.9501
1.0745
1.2098
0.75719
0.68657
0.62466
0.59184
0.58672
0.60816
0.65531
0.72645
0.81963
0.93251
1.0628
1.2057
0.74208
0.66853
0.60365
0.56826
0.56099
0.58104
0.62779
0.69971
0.79511
0.91189
1.048
1.1989
0.72636
0.64968
0.58158
0.5433
0.53354
0.55184
0.59782
0.67017
0.76747
0.88792
1.0299
1.1888
0.71006
0.63005
0.55844
0.51696
0.50433
0.52048
0.56527
0.63762
0.73645
0.86025
1.0079
1.1749
0.69323
0.60965
0.53425
0.48922
0.47332
0.48689
0.53001
0.60189
0.70177
0.82852
0.98157
1.1566
0.6759
0.58852
0.50903
0.46009
0.44049
0.45099
0.49192
0.56276
0.66313
0.79232
0.95038
1.1333
0.65811
0.5667
0.4828
0.42955
0.40579
0.41271
0.45087
0.52004
0.62025
0.75122
0.91377
1.1043
0.6399
0.54421
0.45558
0.39762
0.36922
0.37198
0.40673
0.47353
0.5728
0.70479
0.87111
1.0687
0.62132
0.5211
0.42741
0.36431
0.33075
0.32876
0.3594
0.42302
0.52048
0.65255
0.82174
1.0256
0.60243
0.49742
0.39832
0.32964
0.29038
0.28299
0.30875
0.36832
0.46296
0.59402
0.76495
0.97407
0.58328
0.47323
0.36836
0.29365
0.24811
0.23463
0.2547
0.30924
0.39994
0.5287
0.69998
0.91293
0.56393
0.44858
0.33758
0.25636
0.20396
0.18366
0.19714
0.2456
0.33109
0.45609
0.62606
0.84104
0.54445
0.42353
0.30604
0.21783
0.15794
0.13007
0.13602
0.17724
0.25612
0.37569
0.54236
0.75713
0.52492
0.39816
0.27381
0.17812
0.11011
0.073849
0.071276
0.10401
0.17474
0.28698
0.44806
0.65987
0.50539
0.37255
0.24097
0.1373
0.0605
0.015027
0.0028692
0.025785
0.086682
0.18951
0.34234
0.5479
0.48597
0.34678
0.20759
0.095435
0.0091866
-0.046364
-0.069213
-0.057529
-0.0082822
0.082797
0.22437
0.4198
0.46672
0.32094
0.17379
0.052631
-0.043752
-0.11027
-0.14496
-0.146
-0.11036
-0.033564
0.093375
0.27421
0.44774
0.29513
0.13965
0.0089868
-0.098219
-0.17661
-0.22434
-0.23968
-0.21971
-0.15995
-0.051396
0.10978
0.42912
0.26944
0.10528
-0.035382
-0.1541
-0.24528
-0.30728
-0.33855
-0.33646
-0.29669
-0.21063
-0.074715
0.41096
0.24398
0.070819
-0.080348
-0.21127
-0.31618
-0.3937
-0.44259
-0.46068
-0.44405
-0.38493
-0.28036
0.39336
0.21888
0.036379
-0.12577
-0.26958
-0.38914
-0.48346
-0.55171
-0.59237
-0.60222
-0.57484
-0.50805
0.37642
0.19423
0.0021001
-0.1715
-0.32887
-0.46401
-0.5764
-0.66578
-0.73151
-0.77136
-0.7808
-0.75841
0.36024
0.17018
-0.031873
-0.21737
-0.38895
-0.5406
-0.67235
-0.78465
-0.87799
-0.95153
-1.0031
-1.0318
0.34495
0.14685
-0.06539
-0.26321
-0.44963
-0.61868
-0.77106
-0.9081
-1.0317
-1.1427
-1.2419
-1.3281
0.33064
0.12437
-0.098291
-0.30883
-0.5107
-0.69802
-0.87229
-1.0359
-1.1923
-1.3449
-1.4971
-1.6468
0.31743
0.10288
-0.13041
-0.35404
-0.57193
-0.77837
-0.97573
-1.1677
-1.3597
-1.5577
-1.7685
-1.9869
0.30544
0.082505
-0.16159
-0.39864
-0.63308
-0.85942
-1.0811
-1.3031
-1.5334
-1.781
-2.0553
-2.3465
0.29477
0.063399
-0.19164
-0.4424
-0.69388
-0.94089
-1.188
-1.4418
-1.7131
-2.0141
-2.3565
-2.7232
0.28555
0.045701
-0.22038
-0.48512
-0.75408
-1.0224
-1.296
-1.5834
-1.8983
-2.2565
-2.6707
-3.1135
0.27789
0.029554
-0.24765
-0.52655
-0.81339
-1.1037
-1.4048
-1.7273
-2.0883
-2.5072
-2.9958
-3.5135
0.2719
0.015101
-0.27324
-0.56649
-0.87153
-1.1844
-1.5139
-1.873
-2.2826
-2.7651
-3.3295
-3.9184
0.26769
0.0024864
-0.29699
-0.60467
-0.92819
-1.2641
-1.6229
-2.0201
-2.4803
-3.0289
-3.6688
-4.3229
0.26537
-0.0081493
-0.31869
-0.64088
-0.98308
-1.3425
-1.7313
-2.1677
-2.6807
-3.297
-4.0105
-4.7219
0.26505
-0.016666
-0.33818
-0.67488
-1.0359
-1.4191
-1.8385
-2.3155
-2.8827
-3.5676
-4.3513
-5.11
0.26683
-0.022927
-0.35526
-0.70641
-1.0863
-1.4935
-1.9441
-2.4626
-3.0854
-3.8388
-4.6875
-5.4827
0.27082
-0.026799
-0.36976
-0.73525
-1.134
-1.5654
-2.0476
-2.6083
-3.2877
-4.1086
-5.0158
-5.8359
0.2771
-0.028152
-0.3815
-0.76116
-1.1787
-1.6343
-2.1484
-2.752
-3.4884
-4.375
-5.333
-6.1669
0.28577
-0.026863
-0.39032
-0.78392
-1.2201
-1.6999
-2.246
-2.8929
-3.6865
-4.6359
-5.6363
-6.4734
0.29691
-0.022812
-0.39604
-0.8033
-1.2579
-1.7617
-2.3399
-3.0303
-3.8807
-4.8894
-5.9235
-6.7546
0.31061
-0.015888
-0.39851
-0.81908
-1.2917
-1.8194
-2.4295
-3.1633
-4.0698
-5.1336
-6.1928
-7.0102
0.32693
-0.0059832
-0.39758
-0.83105
-1.3214
-1.8724
-2.5142
-3.2912
-4.2528
-5.3666
-6.4429
-7.2406
0.34595
0.0069997
-0.39312
-0.83902
-1.3466
-1.9206
-2.5936
-3.4132
-4.4284
-5.5869
-6.673
-7.4468
0.36773
0.023152
-0.38498
-0.8428
-1.367
-1.9634
-2.6672
-3.5283
-4.5955
-5.7929
-6.8828
-7.6301
0.39232
0.042558
-0.37304
-0.84221
-1.3825
-2.0006
-2.7342
-3.6359
-4.7531
-5.9834
-7.0724
-7.7921
0.41978
0.06529
-0.3572
-0.83709
-1.3927
-2.0318
-2.7944
-3.7351
-4.9001
-6.157
-7.2423
-7.9347
0.45014
0.091417
-0.33735
-0.82728
-1.3975
-2.0565
-2.8471
-3.825
-5.0356
-6.3131
-7.393
-8.0595
0.48344
0.121
-0.3134
-0.81265
-1.3966
-2.0746
-2.8919
-3.905
-5.1584
-6.4508
-7.525
-8.168
0.51971
0.15407
-0.28528
-0.79307
-1.3898
-2.0857
-2.9282
-3.9741
-5.2676
-6.5696
-7.6389
-8.2616
0.55897
0.19069
-0.25291
-0.76844
-1.377
-2.0895
-2.9556
-4.0318
-5.3622
-6.6692
-7.7349
-8.3412
0.60125
0.23088
-0.21625
-0.73867
-1.358
-2.0858
-2.9737
-4.0775
-5.441
-6.7494
-7.8133
-8.4074
0.64654
0.27467
-0.17525
-0.70367
-1.3328
-2.0744
-2.982
-4.1104
-5.5032
-6.8101
-7.8741
-8.4602
0.69485
0.32206
-0.12988
-0.6634
-1.3011
-2.0549
-2.9802
-4.1303
-5.5476
-6.8515
-7.9173
-8.4995
0.74619
0.37307
-0.080126
-0.6178
-1.2629
-2.0274
-2.9678
-4.1367
-5.5734
-6.8736
-7.9429
-8.5245
0.80055
0.42769
-0.025983
-0.56686
-1.2181
-1.9916
-2.9447
-4.1293
-5.5801
-6.8766
-7.9507
-8.5342
0.8579
0.48591