/*--------------------------------*- C++ -*----------------------------------*\
  =========                 |
  \\      /  F ield         | OpenFOAM: The Open Source CFD Toolbox
   \\    /   O peration     | Website:  https://openfoam.org
    \\  /    A nd           | Version:  6.0
     \\/     M anipulation  |
\*---------------------------------------------------------------------------*/
FoamFile
{
    version     2.0;
    format      ascii;
    class       surfaceScalarField;
    location    "1";
    object      phi;
}
// * * * * * * * * * * * * * * * * * * * * * * * * * * * * * * * * * * * * * //

dimensions      [0 3 -1 0 0 0 0];

internalField   nonuniform List<scalar> 
33692
(
4.0305e-05
0.0051807
1.6784e-09
8.066e-05
0.0050914
0.00011988
0.0049154
0.00015717
0.0046554
0.00019179
0.0043158
0.00022318
0.0039024
0.00025067
0.0034224
0.00027389
0.0028837
0.0002923
0.0022958
0.0003045
0.0016696
0.00031681
0.0010085
0.00056703
9.1987e-05
4.0046e-05
0.0051407
4.9698e-09
8.0148e-05
0.0050513
0.00011911
0.0048764
0.00015618
0.0046183
0.00019055
0.0042815
0.00022175
0.0038712
0.000249
0.0033951
0.00027205
0.0028606
0.0002903
0.0022775
0.00029976
0.0016602
0.00031892
0.0009893
0.00070246
0.00018349
3.9789e-05
0.0051009
8.1648e-09
7.9637e-05
0.0050114
0.00011835
0.0048377
0.00015518
0.0045815
0.00018933
0.0042473
0.00022032
0.0038402
0.00024737
0.0033681
0.00027018
0.0028378
0.00028845
0.0022592
0.00029546
0.0016532
0.00031815
0.0009666
0.00077323
0.00024738
3.9534e-05
0.0050613
1.1284e-08
7.9128e-05
0.0049718
0.0001176
0.0047992
0.00015419
0.0045449
0.00018812
0.0042134
0.0002189
0.0038095
0.00024576
0.0033412
0.00026832
0.0028152
0.00028668
0.0022409
0.00029194
0.0016479
0.00031487
0.00094367
0.00080216
0.00028594
3.9281e-05
0.0050221
1.4328e-08
7.8623e-05
0.0049325
0.00011685
0.004761
0.0001532
0.0045085
0.00018692
0.0041797
0.00021749
0.0037789
0.00024416
0.0033145
0.00026647
0.0027929
0.00028495
0.0022224
0.00028925
0.0016436
0.00030998
0.00092294
0.00080533
0.00030682
3.9029e-05
0.004983
1.7301e-08
7.8122e-05
0.0048934
0.00011611
0.004723
0.00015223
0.0044724
0.00018572
0.0041462
0.00021609
0.0037485
0.00024258
0.003288
0.00026463
0.0027709
0.00028319
0.0022038
0.0002873
0.0016395
0.00030453
0.00090572
0.00079347
0.00031638
3.8778e-05
0.0049442
2.0204e-08
7.7623e-05
0.0048545
0.00011537
0.0046852
0.00015125
0.0044365
0.00018454
0.0041129
0.00021469
0.0037184
0.00024102
0.0032617
0.00026282
0.0027491
0.00028139
0.0021853
0.00028591
0.001635
0.00029928
0.00089234
0.00077376
0.00031899
3.853e-05
0.0049057
2.3039e-08
7.7127e-05
0.0048159
0.00011463
0.0046477
0.00015029
0.0044009
0.00018336
0.0040798
0.00021331
0.0036884
0.00023947
0.0032356
0.00026102
0.0027275
0.00027953
0.0021668
0.00028486
0.0016297
0.00029465
0.00088256
0.00075079
0.00031762
3.8282e-05
0.0048673
2.5808e-08
7.6635e-05
0.0047776
0.0001139
0.0046105
0.00014933
0.0043655
0.00018219
0.0040469
0.00021193
0.0036587
0.00023793
0.0032096
0.00025925
0.0027062
0.00027763
0.0021484
0.00028397
0.0016233
0.00029078
0.00087575
0.00072728
0.00031429
3.8037e-05
0.0048293
2.8514e-08
7.6146e-05
0.0047395
0.00011318
0.0045734
0.00014837
0.0043303
0.00018102
0.0040143
0.00021056
0.0036291
0.00023641
0.0031837
0.00025752
0.0026851
0.00027569
0.0021302
0.00028309
0.0016159
0.00028764
0.0008712
0.00070461
0.0003103
3.7793e-05
0.0047915
3.1159e-08
7.5659e-05
0.0047016
0.00011246
0.0045366
0.00014743
0.0042953
0.00017987
0.0039819
0.00020921
0.0035998
0.0002349
0.003158
0.00025581
0.0026642
0.00027375
0.0021123
0.00028213
0.0016076
0.00028513
0.0008682
0.00068337
0.00030637
3.755e-05
0.0047539
3.3746e-08
7.5176e-05
0.004664
0.00011174
0.0045001
0.00014648
0.0042605
0.00017872
0.0039496
0.00020786
0.0035707
0.0002334
0.0031325
0.00025413
0.0026435
0.00027182
0.0020946
0.00028106
0.0015983
0.0002831
0.00086617
0.00066367
0.0003028
3.731e-05
0.0047165
3.6276e-08
7.4696e-05
0.0046266
0.00011103
0.0044637
0.00014555
0.004226
0.00017758
0.0039176
0.00020651
0.0035417
0.00023191
0.0031071
0.00025248
0.0026229
0.00026992
0.0020771
0.00027987
0.0015884
0.00028141
0.00086463
0.00064538
0.0002997
3.707e-05
0.0046794
3.8753e-08
7.4219e-05
0.0045894
0.00011032
0.0044276
0.00014462
0.0041917
0.00017645
0.0038858
0.00020518
0.003513
0.00023043
0.0030818
0.00025087
0.0026025
0.00026806
0.0020599
0.00027856
0.0015779
0.00027994
0.00086325
0.00062831
0.00029701
3.6832e-05
0.0046425
4.1178e-08
7.3745e-05
0.0045525
0.00010962
0.0043918
0.0001437
0.0041576
0.00017533
0.0038541
0.00020386
0.0034845
0.00022896
0.0030567
0.00024927
0.0025821
0.00026624
0.002043
0.00027717
0.0015669
0.00027861
0.00086181
0.00061227
0.00029466
3.6596e-05
0.0046059
4.3554e-08
7.3274e-05
0.0045159
0.00010892
0.0043561
0.00014278
0.0041238
0.00017421
0.0038227
0.00020255
0.0034561
0.00022751
0.0030318
0.0002477
0.0025619
0.00026447
0.0020262
0.00027571
0.0015557
0.00027735
0.00086017
0.00059707
0.00029254
3.6361e-05
0.0045695
4.5884e-08
7.2806e-05
0.0044794
0.00010822
0.0043207
0.00014187
0.0040901
0.0001731
0.0037915
0.00020125
0.003428
0.00022606
0.003007
0.00024616
0.0025419
0.00026273
0.0020096
0.00027421
0.0015442
0.00027611
0.00085827
0.00058258
0.00029059
3.6128e-05
0.0045333
4.817e-08
7.2341e-05
0.0044432
0.00010753
0.0042855
0.00014096
0.0040567
0.000172
0.0037604
0.00019996
0.0034
0.00022463
0.0029823
0.00024463
0.0025219
0.00026103
0.0019932
0.00027267
0.0015326
0.00027487
0.00085608
0.00056872
0.00028873
3.5896e-05
0.0044974
5.0415e-08
7.1879e-05
0.0044072
0.00010685
0.0042506
0.00014006
0.0040235
0.0001709
0.0037296
0.00019868
0.0033722
0.00022321
0.0029578
0.00024312
0.0025019
0.00025936
0.001977
0.00027113
0.0015208
0.00027362
0.00085359
0.0005554
0.00028693
3.5666e-05
0.0044617
5.2622e-08
7.142e-05
0.0043715
0.00010617
0.0042158
0.00013917
0.0039905
0.00016982
0.0036989
0.00019742
0.0033446
0.0002218
0.0029334
0.00024163
0.0024821
0.00025772
0.0019609
0.00026957
0.0015089
0.00027236
0.0008508
0.00054259
0.00028517
3.5437e-05
0.0044262
5.4794e-08
7.0963e-05
0.0043359
0.00010549
0.0041813
0.00013828
0.0039577
0.00016874
0.0036685
0.00019617
0.0033172
0.00022041
0.0029091
0.00024014
0.0024624
0.00025609
0.0019449
0.00026802
0.001497
0.00027107
0.00084775
0.00053025
0.00028342
3.5209e-05
0.0043909
5.6933e-08
7.051e-05
0.0043006
0.00010482
0.004147
0.0001374
0.0039251
0.00016767
0.0036382
0.00019493
0.0032899
0.00021902
0.0028851
0.00023867
0.0024427
0.00025449
0.0019291
0.00026646
0.0014851
0.00026978
0.00084443
0.00051836
0.00028167
3.4984e-05
0.0043559
5.9043e-08
7.006e-05
0.0042656
0.00010415
0.0041129
0.00013652
0.0038928
0.00016661
0.0036081
0.0001937
0.0032628
0.00021765
0.0028611
0.00023721
0.0024232
0.00025291
0.0019134
0.00026491
0.0014731
0.00026846
0.00084088
0.00050688
0.00027993
3.4759e-05
0.004321
6.1127e-08
6.9613e-05
0.0042307
0.00010349
0.004079
0.00013566
0.0038606
0.00016556
0.0035782
0.00019248
0.0032359
0.00021629
0.0028373
0.00023576
0.0024037
0.00025133
0.0018979
0.00026336
0.001461
0.00026713
0.0008371
0.00049581
0.0002782
3.4536e-05
0.0042864
6.3187e-08
6.9169e-05
0.0041961
0.00010283
0.0040453
0.0001348
0.0038286
0.00016451
0.0035485
0.00019128
0.0032092
0.00021494
0.0028136
0.00023432
0.0023843
0.00024977
0.0018824
0.00026181
0.001449
0.00026579
0.00083312
0.00048513
0.00027647
3.4315e-05
0.0042521
6.5225e-08
6.8729e-05
0.0041617
0.00010218
0.0040119
0.00013395
0.0037969
0.00016348
0.003519
0.00019009
0.0031825
0.0002136
0.0027901
0.00023289
0.002365
0.00024822
0.0018671
0.00026027
0.0014369
0.00026444
0.00082896
0.00047482
0.00027475
3.4095e-05
0.0042179
6.7241e-08
6.8292e-05
0.0041275
0.00010153
0.0039786
0.0001331
0.0037653
0.00016246
0.0034896
0.0001889
0.0031561
0.00021226
0.0027668
0.00023146
0.0023458
0.00024669
0.0018518
0.00025873
0.0014249
0.00026308
0.00082462
0.00046486
0.00027303
3.3877e-05
0.0041839
6.9233e-08
6.7858e-05
0.0040935
0.00010089
0.0039456
0.00013226
0.0037339
0.00016144
0.0034604
0.00018772
0.0031298
0.00021093
0.0027436
0.00023004
0.0023267
0.00024516
0.0018367
0.0002572
0.0014129
0.00026171
0.00082011
0.00045525
0.00027132
3.3661e-05
0.0041502
7.1197e-08
6.7428e-05
0.0040597
0.00010025
0.0039128
0.00013143
0.0037027
0.00016043
0.0034314
0.00018655
0.0031037
0.00020961
0.0027205
0.00022862
0.0023077
0.00024365
0.0018217
0.00025568
0.0014008
0.00026033
0.00081546
0.00044596
0.00026962
3.3447e-05
0.0041167
7.3127e-08
6.7001e-05
0.0040262
9.9623e-05
0.0038802
0.00013061
0.0036718
0.00015943
0.0034026
0.00018539
0.0030777
0.0002083
0.0026976
0.00022721
0.0022888
0.00024214
0.0018068
0.00025416
0.0013888
0.00025895
0.00081067
0.00043698
0.00026792
3.3234e-05
0.0040834
7.5013e-08
6.6578e-05
0.0039928
9.8997e-05
0.0038477
0.00012979
0.003641
0.00015843
0.003374
0.00018423
0.0030519
0.00020699
0.0026748
0.00022581
0.00227
0.00024064
0.0017919
0.00025264
0.0013768
0.00025756
0.00080575
0.00042831
0.00026624
3.3023e-05
0.0040503
7.6845e-08
6.6158e-05
0.0039597
9.8376e-05
0.0038155
0.00012898
0.0036104
0.00015745
0.0033455
0.00018308
0.0030263
0.00020569
0.0026522
0.00022442
0.0022512
0.00023916
0.0017772
0.00025113
0.0013648
0.00025617
0.00080072
0.00041992
0.00026456
3.2814e-05
0.0040174
7.861e-08
6.5742e-05
0.0039268
9.776e-05
0.0037835
0.00012817
0.0035799
0.00015646
0.0033172
0.00018194
0.0030008
0.0002044
0.0026298
0.00022304
0.0022326
0.00023769
0.0017626
0.00024963
0.0013529
0.00025477
0.00079557
0.0004118
0.00026289
3.2606e-05
0.0039847
8.0295e-08
6.5329e-05
0.003894
9.7148e-05
0.0037517
0.00012737
0.0035497
0.00015548
0.0032891
0.0001808
0.0029755
0.00020311
0.0026075
0.00022166
0.0022141
0.00023622
0.001748
0.00024813
0.001341
0.00025338
0.00079033
0.00040395
0.00026123
3.24e-05
0.0039522
8.189e-08
6.4919e-05
0.0038615
9.654e-05
0.0037201
0.00012657
0.0035197
0.00015451
0.0032612
0.00017967
0.0029503
0.00020183
0.0025853
0.00022029
0.0021956
0.00023477
0.0017335
0.00024664
0.0013291
0.00025198
0.000785
0.00039634
0.00025958
3.2196e-05
0.0039199
8.3382e-08
6.4511e-05
0.0038292
9.5935e-05
0.0036886
0.00012578
0.0034898
0.00015354
0.0032334
0.00017854
0.0029253
0.00020056
0.0025633
0.00021893
0.0021772
0.00023332
0.0017191
0.00024516
0.0013173
0.00025058
0.00077958
0.00038898
0.00025794
3.1993e-05
0.0038879
8.4763e-08
6.4106e-05
0.0037971
9.5334e-05
0.0036574
0.00012499
0.0034602
0.00015257
0.0032058
0.00017741
0.0029005
0.0001993
0.0025414
0.00021757
0.002159
0.00023189
0.0017048
0.00024368
0.0013055
0.00024918
0.00077409
0.00038184
0.00025631
3.1791e-05
0.003856
8.6029e-08
6.3704e-05
0.0037652
9.4736e-05
0.0036264
0.00012421
0.0034307
0.00015161
0.0031784
0.0001763
0.0028758
0.00019804
0.0025196
0.00021623
0.0021408
0.00023046
0.0016906
0.00024221
0.0012937
0.00024778
0.00076852
0.00037492
0.0002547
3.1591e-05
0.0038243
8.7175e-08
6.3304e-05
0.0037335
9.414e-05
0.0035955
0.00012343
0.0034014
0.00015065
0.0031512
0.00017519
0.0028513
0.00019679
0.002498
0.00021489
0.0021227
0.00022905
0.0016764
0.00024075
0.001282
0.00024638
0.0007629
0.0003682
0.00025309
3.1391e-05
0.0037928
8.8205e-08
6.2905e-05
0.0037019
9.3548e-05
0.0035649
0.00012265
0.0033723
0.0001497
0.0031242
0.00017408
0.0028269
0.00019555
0.0024766
0.00021356
0.0021046
0.00022764
0.0016623
0.00023929
0.0012704
0.00024498
0.00075722
0.00036169
0.00025149
3.1193e-05
0.0037616
8.912e-08
6.2509e-05
0.0036706
9.2958e-05
0.0035345
0.00012187
0.0033434
0.00014875
0.0030973
0.00017299
0.0028027
0.00019432
0.0024552
0.00021224
0.0020867
0.00022625
0.0016483
0.00023784
0.0012588
0.00024358
0.00075148
0.00035536
0.0002499
3.0996e-05
0.0037305
8.9929e-08
6.2115e-05
0.0036395
9.2372e-05
0.0035042
0.0001211
0.0033147
0.00014781
0.0030706
0.0001719
0.0027786
0.00019309
0.002434
0.00021093
0.0020689
0.00022486
0.0016344
0.0002364
0.0012472
0.00024218
0.0007457
0.00034922
0.00024833
3.08e-05
0.0036996
9.0639e-08
6.1722e-05
0.0036086
9.1788e-05
0.0034741
0.00012034
0.0032861
0.00014688
0.003044
0.00017081
0.0027546
0.00019188
0.002413
0.00020963
0.0020511
0.00022348
0.0016205
0.00023496
0.0012358
0.00024079
0.00073988
0.00034324
0.00024676
3.0605e-05
0.0036689
9.1261e-08
6.1332e-05
0.0035779
9.1207e-05
0.0034443
0.00011957
0.0032578
0.00014595
0.0030177
0.00016974
0.0027308
0.00019067
0.002392
0.00020833
0.0020335
0.00022211
0.0016068
0.00023354
0.0012243
0.00023939
0.00073402
0.00033743
0.0002452
3.041e-05
0.0036384
9.1806e-08
6.0943e-05
0.0035473
9.0629e-05
0.0034146
0.00011882
0.0032296
0.00014502
0.0029915
0.00016867
0.0027072
0.00018947
0.0023712
0.00020704
0.0020159
0.00022075
0.001593
0.00023211
0.001213
0.000238
0.00072813
0.00033178
0.00024366
3.0217e-05
0.0036081
9.2284e-08
6.0556e-05
0.003517
9.0054e-05
0.0033851
0.00011806
0.0032016
0.0001441
0.0029654
0.0001676
0.0026837
0.00018828
0.0023506
0.00020576
0.0019984
0.0002194
0.0015794
0.0002307
0.0012017
0.00023662
0.00072221
0.00032628
0.00024212
3.0025e-05
0.003578
9.2705e-08
6.0172e-05
0.0034868
8.9482e-05
0.0033558
0.00011731
0.0031737
0.00014319
0.0029395
0.00016655
0.0026603
0.00018709
0.00233
0.00020449
0.001981
0.00021805
0.0015658
0.00022929
0.0011904
0.00023524
0.00071627
0.00032092
0.00024059
2.9834e-05
0.003548
9.3081e-08
5.979e-05
0.0034569
8.8914e-05
0.0033266
0.00011657
0.0031461
0.00014228
0.0029138
0.0001655
0.0026371
0.00018592
0.0023096
0.00020322
0.0019637
0.00021672
0.0015523
0.00022789
0.0011793
0.00023386
0.00071031
0.0003157
0.00023908
2.9644e-05
0.0035183
9.3421e-08
5.9409e-05
0.0034271
8.8349e-05
0.0032977
0.00011583
0.0031186
0.00014138
0.0028883
0.00016446
0.0026141
0.00018475
0.0022893
0.00020196
0.0019465
0.00021539
0.0015389
0.0002265
0.0011681
0.00023248
0.00070433
0.00031061
0.00023757
2.9455e-05
0.0034887
9.3731e-08
5.9031e-05
0.0033975
8.7787e-05
0.0032689
0.00011509
0.0030913
0.00014049
0.0028629
0.00016342
0.0025911
0.00018359
0.0022691
0.00020072
0.0019294
0.00021407
0.0015256
0.00022512
0.0011571
0.00023111
0.00069833
0.00030565
0.00023607
2.9267e-05
0.0034594
9.402e-08
5.8656e-05
0.0033682
8.7229e-05
0.0032404
0.00011436
0.0030642
0.0001396
0.0028377
0.00016239
0.0025683
0.00018244
0.0022491
0.00019947
0.0019124
0.00021276
0.0015123
0.00022374
0.0011461
0.00022974
0.00069233
0.0003008
0.00023459
2.908e-05
0.0034302
9.4293e-08
5.8282e-05
0.003339
8.6674e-05
0.003212
0.00011364
0.0030372
0.00013871
0.0028126
0.00016137
0.0025457
0.00018129
0.0022292
0.00019824
0.0018954
0.00021146
0.001499
0.00022237
0.0011352
0.00022838
0.00068632
0.00029607
0.00023311
2.8895e-05
0.0034012
9.4554e-08
5.7911e-05
0.0033099
8.6123e-05
0.0031838
0.00011292
0.0030104
0.00013783
0.0027877
0.00016036
0.0025231
0.00018016
0.0022094
0.00019701
0.0018786
0.00021017
0.0014859
0.00022101
0.0011244
0.00022702
0.0006803
0.00029145
0.00023164
2.871e-05
0.0033724
9.4809e-08
5.7542e-05
0.0032811
8.5576e-05
0.0031557
0.0001122
0.0029838
0.00013696
0.0027629
0.00015935
0.0025007
0.00017903
0.0021897
0.00019579
0.0018618
0.00020888
0.0014728
0.00021965
0.0011136
0.00022567
0.00067429
0.00028693
0.00023019
2.8527e-05
0.0033438
9.506e-08
5.7176e-05
0.0032525
8.5032e-05
0.0031279
0.00011149
0.0029573
0.0001361
0.0027383
0.00015835
0.0024785
0.00017791
0.0021701
0.00019458
0.0018451
0.0002076
0.0014598
0.00021831
0.0011029
0.00022432
0.00066827
0.00028252
0.00022874
2.8345e-05
0.0033153
9.5309e-08
5.6812e-05
0.003224
8.4492e-05
0.0031002
0.00011078
0.002931
0.00013524
0.0027138
0.00015736
0.0024564
0.00017679
0.0021507
0.00019338
0.0018285
0.00020633
0.0014468
0.00021697
0.0010923
0.00022298
0.00066225
0.0002782
0.0002273
2.8164e-05
0.0032871
9.5559e-08
5.645e-05
0.0031957
8.3955e-05
0.0030727
0.00011008
0.0029049
0.00013438
0.0026895
0.00015637
0.0024344
0.00017569
0.0021314
0.00019218
0.001812
0.00020507
0.0014339
0.00021563
0.0010817
0.00022164
0.00065624
0.00027397
0.00022587
2.7984e-05
0.003259
9.581e-08
5.6091e-05
0.0031676
8.3422e-05
0.0030454
0.00010939
0.0028789
0.00013353
0.0026654
0.00015539
0.0024125
0.00017459
0.0021122
0.00019099
0.0017956
0.00020381
0.0014211
0.00021431
0.0010712
0.00022031
0.00065024
0.00026983
0.00022445
2.7806e-05
0.0032311
9.6065e-08
5.5734e-05
0.0031397
8.2892e-05
0.0030182
0.00010869
0.0028531
0.00013269
0.0026414
0.00015441
0.0023908
0.0001735
0.0020931
0.00018981
0.0017793
0.00020257
0.0014084
0.00021299
0.0010608
0.00021899
0.00064424
0.00026578
0.00022304
2.7628e-05
0.0032034
9.6323e-08
5.538e-05
0.0031119
8.2366e-05
0.0029912
0.00010801
0.0028275
0.00013185
0.0026176
0.00015344
0.0023692
0.00017241
0.0020741
0.00018864
0.0017631
0.00020133
0.0013957
0.00021168
0.0010504
0.00021767
0.00063826
0.0002618
0.00022164
2.7452e-05
0.0031758
9.6586e-08
5.5028e-05
0.0030843
8.1844e-05
0.0029644
0.00010732
0.002802
0.00013102
0.0025939
0.00015248
0.0023478
0.00017133
0.0020553
0.00018747
0.0017469
0.00020009
0.0013831
0.00021038
0.0010401
0.00021635
0.00063228
0.00025791
0.00022025
2.7277e-05
0.0031485
9.6853e-08
5.4678e-05
0.0030569
8.1324e-05
0.0029378
0.00010664
0.0027767
0.00013019
0.0025703
0.00015153
0.0023264
0.00017026
0.0020365
0.00018631
0.0017309
0.00019887
0.0013705
0.00020909
0.0010299
0.00021505
0.00062632
0.00025409
0.00021887
2.7103e-05
0.0031213
9.7126e-08
5.433e-05
0.0030297
8.0809e-05
0.0029113
0.00010597
0.0027515
0.00012937
0.0025469
0.00015058
0.0023052
0.0001692
0.0020179
0.00018516
0.0017149
0.00019765
0.001358
0.0002078
0.0010198
0.00021375
0.00062037
0.00025034
0.00021749
2.693e-05
0.0030942
9.7404e-08
5.3985e-05
0.0030027
8.0296e-05
0.002885
0.0001053
0.0027265
0.00012856
0.0025236
0.00014963
0.0022841
0.00016814
0.0019994
0.00018401
0.0016991
0.00019644
0.0013456
0.00020652
0.0010097
0.00021245
0.00061444
0.00024666
0.00021613
2.6759e-05
0.0030674
9.7688e-08
5.3642e-05
0.0029758
7.9787e-05
0.0028588
0.00010463
0.0027017
0.00012775
0.0025005
0.0001487
0.0022632
0.00016709
0.001981
0.00018287
0.0016833
0.00019524
0.0013332
0.00020525
0.00099969
0.00021116
0.00060853
0.00024304
0.00021477
2.6588e-05
0.0030407
9.7977e-08
5.3302e-05
0.0029491
7.9282e-05
0.0028328
0.00010397
0.002677
0.00012694
0.0024776
0.00014776
0.0022424
0.00016605
0.0019627
0.00018174
0.0016676
0.00019404
0.0013209
0.00020398
0.00098974
0.00020988
0.00060264
0.00023949
0.00021343
2.6419e-05
0.0030142
9.8272e-08
5.2963e-05
0.0029225
7.878e-05
0.002807
0.00010332
0.0026525
0.00012614
0.0024547
0.00014684
0.0022217
0.00016502
0.0019445
0.00018062
0.001652
0.00019285
0.0013087
0.00020273
0.00097987
0.0002086
0.00059676
0.000236
0.00021209
2.625e-05
0.0029878
9.8573e-08
5.2627e-05
0.0028961
7.8281e-05
0.0027814
0.00010266
0.0026281
0.00012535
0.0024321
0.00014592
0.0022011
0.00016399
0.0019265
0.0001795
0.0016365
0.00019167
0.0012965
0.00020148
0.00097006
0.00020733
0.0005909
0.00023257
0.00021076
2.6083e-05
0.0029616
9.888e-08
5.2293e-05
0.0028699
7.7785e-05
0.0027559
0.00010202
0.0026038
0.00012456
0.0024095
0.00014501
0.0021807
0.00016297
0.0019085
0.00017839
0.0016211
0.0001905
0.0012844
0.00020024
0.00096032
0.00020607
0.00058507
0.0002292
0.00020944
2.5917e-05
0.0029356
9.9192e-08
5.1961e-05
0.0028439
7.7293e-05
0.0027305
0.00010137
0.0025798
0.00012378
0.0023871
0.0001441
0.0021603
0.00016195
0.0018907
0.00017728
0.0016057
0.00018933
0.0012724
0.000199
0.00095065
0.00020481
0.00057926
0.00022588
0.00020813
2.5752e-05
0.0029098
9.9511e-08
5.1632e-05
0.002818
7.6804e-05
0.0027054
0.00010073
0.0025558
0.000123
0.0023649
0.0001432
0.0021401
0.00016094
0.0018729
0.00017619
0.0015905
0.00018817
0.0012604
0.00019777
0.00094105
0.00020356
0.00057347
0.00022262
0.00020683
2.5588e-05
0.0028841
9.9836e-08
5.1305e-05
0.0027923
7.6318e-05
0.0026804
0.0001001
0.002532
0.00012222
0.0023427
0.00014231
0.00212
0.00015994
0.0018553
0.0001751
0.0015753
0.00018702
0.0012484
0.00019655
0.00093151
0.00020232
0.0005677
0.00021941
0.00020553
2.5426e-05
0.0028586
1.0017e-07
5.098e-05
0.0027667
7.5836e-05
0.0026555
9.9469e-05
0.0025084
0.00012146
0.0023207
0.00014142
0.0021001
0.00015895
0.0018378
0.00017401
0.0015603
0.00018587
0.0012366
0.00019534
0.00092204
0.00020108
0.00056196
0.00021624
0.00020425
2.5264e-05
0.0028332
1.005e-07
5.0657e-05
0.0027413
7.5357e-05
0.0026308
9.8843e-05
0.0024849
0.00012069
0.0022989
0.00014053
0.0020802
0.00015796
0.0018203
0.00017294
0.0015453
0.00018473
0.0012248
0.00019414
0.00091263
0.00019985
0.00055625
0.00021312
0.00020297
2.5103e-05
0.002808
1.0085e-07
5.0336e-05
0.0027161
7.488e-05
0.0026063
9.822e-05
0.0024616
0.00011994
0.0022772
0.00013966
0.0020605
0.00015697
0.001803
0.00017187
0.0015304
0.0001836
0.0012131
0.00019294
0.00090329
0.00019863
0.00055055
0.00021005
0.0002017
2.4944e-05
0.0027829
1.012e-07
5.0017e-05
0.002691
7.4407e-05
0.0025819
9.7602e-05
0.0024384
0.00011918
0.0022556
0.00013878
0.0020409
0.000156
0.0017858
0.00017081
0.0015156
0.00018247
0.0012014
0.00019175
0.00089401
0.00019742
0.00054489
0.00020702
0.00020044
2.4785e-05
0.0027581
1.0155e-07
4.97e-05
0.0026661
7.3938e-05
0.0025576
9.6988e-05
0.0024153
0.00011844
0.0022341
0.00013792
0.0020214
0.00015503
0.0017687
0.00016975
0.0015009
0.00018135
0.0011898
0.00019057
0.0008848
0.00019621
0.00053925
0.00020404
0.00019919
2.4628e-05
0.0027333
1.0192e-07
4.9386e-05
0.0026414
7.3471e-05
0.0025335
9.6378e-05
0.0023924
0.00011769
0.0022128
0.00013706
0.0020021
0.00015407
0.0017517
0.0001687
0.0014862
0.00018024
0.0011783
0.00018939
0.00087565
0.000195
0.00053364
0.0002011
0.00019795
2.4471e-05
0.0027088
1.0229e-07
4.9073e-05
0.0026168
7.3007e-05
0.0025096
9.5772e-05
0.0023697
0.00011695
0.0021916
0.0001362
0.0019828
0.00015311
0.0017348
0.00016766
0.0014717
0.00017914
0.0011668
0.00018822
0.00086656
0.00019381
0.00052805
0.00019819
0.00019671
2.4316e-05
0.0026843
1.0266e-07
4.8763e-05
0.0025923
7.2547e-05
0.0024858
9.517e-05
0.002347
0.00011622
0.0021706
0.00013535
0.0019637
0.00015216
0.001718
0.00016662
0.0014572
0.00017804
0.0011554
0.00018706
0.00085754
0.00019262
0.0005225
0.00019533
0.00019549
2.4161e-05
0.0026601
1.0304e-07
4.8455e-05
0.002568
7.2089e-05
0.0024622
9.4572e-05
0.0023246
0.00011549
0.0021497
0.00013451
0.0019447
0.00015121
0.0017013
0.00016559
0.0014429
0.00017695
0.001144
0.00018591
0.00084858
0.00019144
0.00051697
0.0001925
0.00019427
2.4008e-05
0.002636
1.0343e-07
4.8149e-05
0.0025439
7.1635e-05
0.0024387
9.3978e-05
0.0023022
0.00011477
0.0021289
0.00013367
0.0019258
0.00015028
0.0016847
0.00016457
0.0014286
0.00017586
0.0011327
0.00018476
0.00083967
0.00019027
0.00051146
0.00018971
0.00019306
2.3856e-05
0.002612
1.0383e-07
4.7844e-05
0.0025199
7.1183e-05
0.0024154
9.3387e-05
0.00228
0.00011405
0.0021082
0.00013284
0.001907
0.00014934
0.0016682
0.00016355
0.0014144
0.00017478
0.0011215
0.00018362
0.00083083
0.0001891
0.00050599
0.00018695
0.00019185
2.3704e-05
0.0025882
1.0423e-07
4.7542e-05
0.0024961
7.0735e-05
0.0023922
9.2801e-05
0.0022579
0.00011334
0.0020877
0.00013201
0.0018883
0.00014842
0.0016518
0.00016254
0.0014002
0.00017371
0.0011103
0.00018249
0.00082206
0.00018794
0.00050055
0.00018423
0.00019066
2.3554e-05
0.0025645
1.0464e-07
4.7242e-05
0.0024724
7.0289e-05
0.0023691
9.2219e-05
0.002236
0.00011263
0.0020673
0.00013119
0.0018697
0.0001475
0.0016355
0.00016153
0.0013862
0.00017265
0.0010992
0.00018137
0.00081334
0.00018678
0.00049513
0.00018154
0.00018947
2.3405e-05
0.002541
1.0505e-07
4.6944e-05
0.0024488
6.9847e-05
0.0023462
9.164e-05
0.0022142
0.00011192
0.002047
0.00013037
0.0018513
0.00014658
0.0016193
0.00016054
0.0013722
0.00017159
0.0010881
0.00018025
0.00080468
0.00018564
0.00048974
0.00017888
0.0001883
2.3256e-05
0.0025177
1.0547e-07
4.6647e-05
0.0024254
6.9407e-05
0.0023235
9.1066e-05
0.0021926
0.00011122
0.0020268
0.00012956
0.0018329
0.00014567
0.0016031
0.00015955
0.0013584
0.00017054
0.0010771
0.00017914
0.00079608
0.0001845
0.00048438
0.00017625
0.00018712
2.3109e-05
0.0024944
1.059e-07
4.6353e-05
0.0024022
6.897e-05
0.0023009
9.0495e-05
0.002171
0.00011053
0.0020068
0.00012876
0.0018147
0.00014477
0.0015871
0.00015856
0.0013446
0.00016949
0.0010662
0.00017803
0.00078753
0.00018336
0.00047905
0.00017365
0.00018596
2.2962e-05
0.0024714
1.0634e-07
4.6061e-05
0.0023791
6.8536e-05
0.0022784
8.9927e-05
0.0021497
0.00010984
0.0019869
0.00012796
0.0017966
0.00014388
0.0015712
0.00015758
0.0013309
0.00016845
0.0010553
0.00017694
0.00077905
0.00018224
0.00047375
0.00017108
0.00018481
2.2817e-05
0.0024485
1.0678e-07
4.577e-05
0.0023561
6.8105e-05
0.002256
8.9364e-05
0.0021284
0.00010915
0.0019671
0.00012716
0.0017786
0.00014298
0.0015554
0.00015661
0.0013173
0.00016742
0.0010445
0.00017585
0.00077062
0.00018112
0.00046848
0.00016854
0.00018366
2.2672e-05
0.0024257
1.0723e-07
4.5482e-05
0.0023333
6.7677e-05
0.0022338
8.8804e-05
0.0021073
0.00010847
0.0019474
0.00012637
0.0017607
0.0001421
0.0015397
0.00015564
0.0013037
0.00016639
0.0010338
0.00017477
0.00076225
0.00018001
0.00046324
0.00016603
0.00018252
2.2529e-05
0.002403
1.0769e-07
4.5195e-05
0.0023107
6.7252e-05
0.0022118
8.8248e-05
0.0020863
0.00010779
0.0019279
0.00012558
0.0017429
0.00014122
0.001524
0.00015468
0.0012902
0.00016537
0.0010231
0.00017369
0.00075393
0.0001789
0.00045802
0.00016354
0.00018139
2.2386e-05
0.0023805
1.0815e-07
4.491e-05
0.0022881
6.683e-05
0.0021899
8.7696e-05
0.0020654
0.00010712
0.0019085
0.0001248
0.0017252
0.00014035
0.0015085
0.00015373
0.0012769
0.00016436
0.0010124
0.00017262
0.00074567
0.00017781
0.00045284
0.00016108
0.00018027
2.2244e-05
0.0023582
1.0862e-07
4.4628e-05
0.0022658
6.641e-05
0.0021681
8.7147e-05
0.0020447
0.00010645
0.0018892
0.00012403
0.0017076
0.00013948
0.001493
0.00015278
0.0012636
0.00016335
0.0010019
0.00017156
0.00073747
0.00017671
0.00044768
0.00015865
0.00017915
2.2104e-05
0.002336
1.091e-07
4.4347e-05
0.0022435
6.5993e-05
0.0021464
8.6602e-05
0.0020241
0.00010579
0.00187
0.00012326
0.0016902
0.00013862
0.0014777
0.00015184
0.0012503
0.00016235
0.00099135
0.0001705
0.00072932
0.00017563
0.00044256
0.00015623
0.00017804
2.1964e-05
0.0023139
1.0959e-07
4.4068e-05
0.0022214
6.5579e-05
0.0021249
8.6061e-05
0.0020036
0.00010513
0.0018509
0.0001225
0.0016728
0.00013776
0.0014624
0.0001509
0.0012372
0.00016136
0.00098089
0.00016945
0.00072123
0.00017455
0.00043746
0.00015385
0.00017694
2.1825e-05
0.002292
1.1008e-07
4.379e-05
0.0021994
6.5167e-05
0.0021036
8.5523e-05
0.0019832
0.00010447
0.001832
0.00012174
0.0016555
0.00013691
0.0014472
0.00014997
0.0012241
0.00016037
0.00097049
0.00016841
0.00071318
0.00017348
0.00043239
0.00015148
0.00017585
2.1687e-05
0.0022702
1.1058e-07
4.3515e-05
0.0021776
6.4759e-05
0.0020823
8.4989e-05
0.001963
0.00010382
0.0018131
0.00012098
0.0016384
0.00013607
0.0014321
0.00014905
0.0012112
0.00015939
0.00096015
0.00016738
0.0007052
0.00017242
0.00042735
0.00014914
0.00017476
2.155e-05
0.0022485
1.1109e-07
4.3241e-05
0.0021559
6.4353e-05
0.0020612
8.4458e-05
0.0019429
0.00010318
0.0017944
0.00012023
0.0016213
0.00013523
0.0014171
0.00014813
0.0011983
0.00015841
0.00094987
0.00016635
0.00069726
0.00017136
0.00042234
0.00014682
0.00017368
2.1414e-05
0.002227
1.1161e-07
4.297e-05
0.0021344
6.395e-05
0.0020402
8.3931e-05
0.0019229
0.00010253
0.0017758
0.00011949
0.0016044
0.00013439
0.0014022
0.00014722
0.0011854
0.00015744
0.00093964
0.00016533
0.00068938
0.00017031
0.00041736
0.00014452
0.00017261
2.1279e-05
0.0022056
1.1213e-07
4.27e-05
0.0021129
6.3549e-05
0.0020194
8.3407e-05
0.001903
0.0001019
0.0017573
0.00011875
0.0015875
0.00013356
0.0013874
0.00014631
0.0011727
0.00015648
0.00092947
0.00016431
0.00068154
0.00016927
0.00041241
0.00014224
0.00017155
2.1144e-05
0.0021843
1.1266e-07
4.2431e-05
0.0020917
6.3151e-05
0.0019986
8.2886e-05
0.0018833
0.00010126
0.0017389
0.00011801
0.0015708
0.00013274
0.0013727
0.00014541
0.00116
0.00015552
0.00091936
0.00016331
0.00067376
0.00016823
0.00040748
0.00013998
0.00017049
2.1011e-05
0.0021632
1.132e-07
4.2165e-05
0.0020705
6.2756e-05
0.0019781
8.237e-05
0.0018637
0.00010063
0.0017207
0.00011728
0.0015541
0.00013192
0.001358
0.00014452
0.0011474
0.00015457
0.0009093
0.0001623
0.00066603
0.0001672
0.00040258
0.00013774
0.00016944
2.0878e-05
0.0021422
1.1375e-07
4.19e-05
0.0020495
6.2363e-05
0.0019576
8.1856e-05
0.0018442
0.00010001
0.0017025
0.00011655
0.0015376
0.00013111
0.0013435
0.00014363
0.0011349
0.00015363
0.0008993
0.00016131
0.00065835
0.00016618
0.00039771
0.00013552
0.0001684
2.0746e-05
0.0021214
1.1431e-07
4.1637e-05
0.0020286
6.1973e-05
0.0019373
8.1346e-05
0.0018248
9.9387e-05
0.0016845
0.00011583
0.0015211
0.0001303
0.001329
0.00014275
0.0011224
0.00015269
0.00088936
0.00016032
0.00065072
0.00016516
0.00039287
0.00013331
0.00016737
2.0615e-05
0.0021006
1.1487e-07
4.1376e-05
0.0020078
6.1585e-05
0.001917
8.0839e-05
0.0018056
9.877e-05
0.0016666
0.00011512
0.0015048
0.0001295
0.0013146
0.00014187
0.0011101
0.00015176
0.00087948
0.00015934
0.00064314
0.00016415
0.00038806
0.00013113
0.00016634
2.0485e-05
0.00208
1.1544e-07
4.1117e-05
0.0019872
6.12e-05
0.001897
8.0336e-05
0.0017864
9.8158e-05
0.0016487
0.00011441
0.0014885
0.0001287
0.0013003
0.000141
0.0010978
0.00015083
0.00086964
0.00015836
0.0006356
0.00016315
0.00038327
0.00012896
0.00016532
2.0356e-05
0.0020596
1.1602e-07
4.0859e-05
0.0019667
6.0818e-05
0.001877
7.9836e-05
0.0017674
9.7549e-05
0.001631
0.0001137
0.0014724
0.00012791
0.0012861
0.00014013
0.0010856
0.00014991
0.00085987
0.00015739
0.00062812
0.00016215
0.00037851
0.00012681
0.0001643
2.0228e-05
0.0020392
1.1661e-07
4.0603e-05
0.0019463
6.0438e-05
0.0018572
7.9339e-05
0.0017485
9.6944e-05
0.0016134
0.000113
0.0014563
0.00012713
0.001272
0.00013927
0.0010734
0.00014899
0.00085015
0.00015643
0.00062068
0.00016116
0.00037378
0.00012468
0.0001633
2.01e-05
0.002019
1.1721e-07
4.0348e-05
0.0019261
6.0061e-05
0.0018375
7.8846e-05
0.0017297
9.6343e-05
0.0015959
0.0001123
0.0014404
0.00012634
0.001258
0.00013842
0.0010613
0.00014809
0.00084048
0.00015548
0.00061329
0.00016018
0.00036908
0.00012256
0.0001623
1.9974e-05
0.0019989
1.1781e-07
4.0096e-05
0.001906
5.9686e-05
0.0018179
7.8356e-05
0.0017111
9.5746e-05
0.0015785
0.00011161
0.0014245
0.00012557
0.001244
0.00013757
0.0010493
0.00014718
0.00083087
0.00015453
0.00060594
0.0001592
0.0003644
0.00012046
0.00016131
1.9848e-05
0.0019789
1.1843e-07
3.9845e-05
0.001886
5.9313e-05
0.0017984
7.7869e-05
0.0016925
9.5154e-05
0.0015612
0.00011092
0.0014088