/*--------------------------------*- C++ -*----------------------------------*\
  =========                 |
  \\      /  F ield         | OpenFOAM: The Open Source CFD Toolbox
   \\    /   O peration     | Website:  https://openfoam.org
    \\  /    A nd           | Version:  6.0
     \\/     M anipulation  |
\*---------------------------------------------------------------------------*/
FoamFile
{
    version     2.0;
    format      ascii;
    class       volVectorField;
    location    "1";
    object      U;
}
// * * * * * * * * * * * * * * * * * * * * * * * * * * * * * * * * * * * * * //

dimensions      [0 1 -1 0 0 0 0];

internalField   nonuniform List<vector> 
17000
(
(1 4.5096e-05 -1.6821e-17)
(0.99992 0.00021535 2.241e-17)
(1.0002 -0.00035935 -3.8492e-17)
(1.0005 -0.0010936 3.9571e-17)
(1.0017 -0.002287 -1.8077e-16)
(1.0035 -0.0038217 -9.2822e-17)
(1.0064 -0.0052256 8.0521e-17)
(1.0103 -0.0065776 -1.3746e-16)
(1.015 -0.0070118 3.1382e-17)
(1.0195 -0.0063732 -1.4412e-17)
(1.0207 -0.0042283 -7.4773e-18)
(1.0347 0.025288 -3.9716e-18)
(0.99994 0.00030058 2.5859e-17)
(1 0.00061901 -3.4738e-17)
(0.99993 -0.00011464 7.5251e-17)
(1.0008 -0.0011944 -1.7464e-17)
(1.0023 -0.0036018 8.386e-17)
(1.0058 -0.0061661 9.7632e-17)
(1.0108 -0.0095622 -4.6456e-17)
(1.0183 -0.011865 1.5112e-16)
(1.0275 -0.013587 -2.2996e-17)
(1.0356 -0.011633 7.4961e-19)
(1.0323 -0.0077326 2.01e-18)
(1.0927 0.048274 1.3586e-18)
(0.99986 0.00056293 -1.9813e-17)
(1.0001 0.0010518 4.7078e-17)
(0.99954 0.00017561 -2.6233e-17)
(1.0009 -0.0011642 8.9163e-17)
(1.0025 -0.0047755 4.5931e-17)
(1.0075 -0.00818 3.6503e-17)
(1.0143 -0.013537 6.9125e-17)
(1.0248 -0.016466 -6.7565e-17)
(1.0375 -0.019398 -2.7358e-17)
(1.0489 -0.01586 -6.0143e-18)
(1.0402 -0.011371 -7.2733e-19)
(1.1387 0.057765 4.2677e-18)
(0.99964 0.00082284 -8.5094e-18)
(1.0002 0.001529 -4.4791e-17)
(0.999 0.00050304 -6.7503e-17)
(1.001 -0.00098181 -4.4461e-17)
(1.0023 -0.0058198 -2.4078e-17)
(1.0088 -0.0098601 -1.4374e-16)
(1.0168 -0.01716 -1.9251e-16)
(1.03 -0.020427 1.6915e-17)
(1.0454 -0.024531 3.4926e-18)
(1.06 -0.01929 3.005e-17)
(1.0473 -0.01551 -1.0214e-17)
(1.161 0.061836 -4.9924e-18)
(0.99946 0.0010934 1.5249e-17)
(1.0004 0.0020485 7.2827e-18)
(0.99843 0.00091719 3.4408e-17)
(1.001 -0.00065066 -1.5112e-17)
(1.0019 -0.0066325 3.8405e-17)
(1.0097 -0.011196 2.9872e-17)
(1.0186 -0.020298 1.9591e-16)
(1.0339 -0.023757 -9.8388e-18)
(1.0515 -0.028963 -2.107e-17)
(1.0693 -0.022097 3.5581e-18)
(1.0548 -0.019917 7.085e-18)
(1.1676 0.060048 -1.323e-18)
(0.99932 0.0013778 8.858e-19)
(1.0005 0.0026107 -4.1925e-18)
(0.99785 0.0014279 -4.6127e-18)
(1.0008 -0.00016958 -7.7405e-19)
(1.0013 -0.0071968 -1.603e-16)
(1.0101 -0.012187 1.6943e-16)
(1.0198 -0.022952 3.9909e-18)
(1.0367 -0.0265 1.5245e-17)
(1.0562 -0.032797 5.2361e-17)
(1.077 -0.024438 -1.601e-17)
(1.0634 -0.024364 1.2901e-17)
(1.1665 0.055144 3.0453e-18)
(0.9992 0.0016757 -8.0954e-19)
(1.0007 0.003218 4.5599e-17)
(0.99724 0.0020334 -4.5143e-17)
(1.0006 0.00046553 -2.0442e-17)
(1.0005 -0.0075232 8.2854e-17)
(1.0102 -0.01284 -3.5214e-17)
(1.0203 -0.025162 -8.2478e-17)
(1.0386 -0.028717 -3.287e-17)
(1.0596 -0.036154 9.303e-18)
(1.0832 -0.026445 2.8516e-17)
(1.0728 -0.028709 -3.0597e-17)
(1.1621 0.0495 2.813e-18)
(0.99911 0.0019876 -1.199e-17)
(1.0009 0.0038734 1.7722e-17)
(0.9966 0.0027334 5.2331e-17)
(1.0002 0.0012577 9.1953e-17)
(0.99952 -0.0076196 4.5338e-17)
(1.0099 -0.013165 -4.3451e-17)
(1.0203 -0.026969 -3.9979e-17)
(1.0396 -0.030471 -1.4717e-17)
(1.062 -0.039132 3.7006e-18)
(1.088 -0.028221 -6.2102e-18)
(1.0828 -0.03284 2.6334e-17)
(1.1565 0.04387 -4.8791e-18)
(0.99902 0.0023144 4.7495e-18)
(1.0011 0.004579 -4.38e-17)
(0.99593 0.0035302 3.2162e-18)
(0.99982 0.0022076 -1.479e-17)
(0.99832 -0.0074899 1.3792e-17)
(1.0093 -0.013178 -9.9722e-18)
(1.0197 -0.028403 7.071e-18)
(1.0399 -0.03182 5.9288e-17)
(1.0636 -0.041799 -5.3297e-18)
(1.0916 -0.029835 -3.7849e-17)
(1.0926 -0.036657 -2.2287e-17)
(1.1504 0.038479 8.7264e-18)
(0.99896 0.0026573 1.6947e-17)
(1.0012 0.0053361 1.1073e-18)
(0.99523 0.0044257 4.0721e-17)
(0.99932 0.0033143 -9.9141e-17)
(0.99695 -0.0071386 -2.1929e-17)
(1.0083 -0.012895 8.5649e-17)
(1.0187 -0.029496 -6.1656e-17)
(1.0396 -0.032819 -7.1404e-17)
(1.0644 -0.044208 1.59e-17)
(1.094 -0.03133 9.9075e-18)
(1.1018 -0.040075 1.6673e-17)
(1.1443 0.033543 -1.2394e-18)
(0.99892 0.003017 -2.3367e-17)
(1.0015 0.0061455 -5.2364e-18)
(0.99451 0.0054208 -4.8793e-17)
(0.99874 0.0045754 7.5687e-18)
(0.99541 -0.0065722 3.1933e-17)
(1.0071 -0.012333 -5.9474e-17)
(1.0172 -0.030277 3.7842e-17)
(1.0386 -0.033513 8.0926e-17)
(1.0645 -0.04639 -4.3836e-17)
(1.0954 -0.032722 1.0867e-17)
(1.1097 -0.043028 -2.1662e-17)
(1.1382 0.029226 -8.1406e-18)
(0.9989 0.0033941 1.5342e-18)
(1.0017 0.0070075 4.3762e-17)
(0.99377 0.006515 -4.2898e-17)
(0.9981 0.0059876 3.0849e-17)
(0.99372 -0.0057991 -8.7846e-17)
(1.0056 -0.01151 -3.3814e-17)
(1.0154 -0.030775 9.3316e-18)
(1.0372 -0.033943 -3.2684e-17)
(1.0641 -0.048363 -3.0944e-17)
(1.0957 -0.034012 1.769e-17)
(1.1162 -0.045468 7.367e-18)
(1.1319 0.025597 1.0609e-19)
(0.99891 0.0037887 5.7676e-18)
(1.0019 0.007922 -4.4391e-18)
(0.99301 0.0077074 1.1887e-16)
(0.9974 0.0075469 3.1823e-17)
(0.9919 -0.0048282 5.0501e-17)
(1.0039 -0.010443 -4.8712e-17)
(1.0132 -0.031019 -2.0901e-17)
(1.0353 -0.034139 1.3095e-17)
(1.0631 -0.050131 3.6749e-17)
(1.095 -0.035182 -5.977e-17)
(1.1209 -0.04737 -1.2521e-17)
(1.1253 0.022658 4.9223e-18)
(0.99895 0.0042011 -1.7854e-17)
(1.0022 0.0088886 -1.5535e-17)
(0.99225 0.0089965 -9.4391e-17)
(0.99665 0.0092486 -6.9212e-17)
(0.98994 -0.0036691 -4.501e-17)
(1.0019 -0.0091501 6.1129e-17)
(1.0107 -0.031029 3.5675e-17)
(1.0331 -0.034126 -3.0189e-17)
(1.0615 -0.051687 -2.9471e-17)
(1.0935 -0.036211 -6.5568e-18)
(1.1237 -0.048733 1.7923e-17)
(1.1182 0.02038 -4.3745e-18)
(0.99902 0.0046311 9.6861e-18)
(1.0025 0.0099066 7.4119e-18)
(0.99148 0.01038 1.1236e-17)
(0.99585 0.011088 1.6631e-17)
(0.98787 -0.0023311 1.6048e-17)
(0.9998 -0.0076468 -2.4966e-17)
(1.008 -0.030825 1.1074e-18)
(1.0304 -0.033918 -4.205e-17)
(1.0595 -0.053018 2.8949e-17)
(1.0911 -0.03707 6.8549e-17)
(1.1247 -0.04957 -5.3183e-18)
(1.1107 0.01872 6.1228e-18)
(0.99912 0.0050788 -9.3385e-18)
(1.0028 0.010975 3.0481e-19)
(0.9907 0.011856 3.3576e-17)
(0.99501 0.013059 4.4069e-17)
(0.98569 -0.00082344 4.5309e-17)
(0.99748 -0.0059473 -2.5414e-17)
(1.005 -0.03042 -3.4775e-17)
(1.0274 -0.033521 6.5311e-17)
(1.0569 -0.054107 1.1507e-17)
(1.088 -0.037734 -7.4294e-17)
(1.1239 -0.049912 6.1734e-18)
(1.1027 0.017628 1.9631e-19)
(0.99925 0.0055438 2.1533e-17)
(1.0032 0.012093 7.6469e-18)
(0.98993 0.013423 -7.2807e-17)
(0.99414 0.015157 2.914e-17)
(0.98342 0.00084542 -1.104e-17)
(0.99499 -0.0040639 6.245e-17)
(1.0017 -0.029823 9.0408e-17)
(1.024 -0.032934 1.1695e-17)
(1.0537 -0.054937 4.1281e-17)
(1.084 -0.038181 6.2124e-17)
(1.1217 -0.049797 3.7596e-17)
(1.0942 0.017052 -4.8906e-18)
(0.99943 0.0060261 8.289e-18)
(1.0036 0.013258 -6.4673e-18)
(0.98916 0.015077 6.962e-17)
(0.99324 0.017377 -5.8935e-17)
(0.98106 0.0026677 7.7572e-17)
(0.99235 -0.0020065 6.5167e-19)
(0.99817 -0.029039 -5.9092e-17)
(1.0204 -0.03215 1.431e-17)
(1.05 -0.055493 -3.5938e-17)
(1.0794 -0.038398 -1.0907e-17)
(1.118 -0.04927 -1.5177e-17)
(1.0852 0.016945 -9.5526e-19)
(0.99964 0.0065252 -9.9998e-18)
(1.004 0.014471 -5.4133e-17)
(0.9884 0.016816 -2.9051e-17)
(0.99232 0.019715 3.3119e-17)
(0.97863 0.0046369 -5.6649e-18)
(0.98957 0.00021751 -4.4994e-17)
(0.99444 -0.028066 -7.9864e-18)
(1.0164 -0.031159 -3.8009e-18)
(1.0457 -0.055767 -4.3434e-17)
(1.074 -0.038377 -1.9762e-17)
(1.1132 -0.048379 -4.5596e-17)
(1.0758 0.017262 9.3747e-18)
(0.99989 0.0070411 -9.5373e-18)
(1.0045 0.015729 5.6553e-17)
(0.98765 0.018639 -3.9527e-17)
(0.99139 0.022165 1.6363e-17)
(0.97612 0.0067474 -3.7602e-17)
(0.98666 0.0026037 -7.3492e-17)
(0.99047 -0.026901 7.9695e-18)
(1.012 -0.029948 -7.7744e-18)
(1.0409 -0.055756 2.362e-17)
(1.0681 -0.038122 2.2766e-17)
(1.1074 -0.04717 4.1011e-17)
(1.0661 0.017966 -9.0775e-18)
(1.0002 0.0075735 6.9088e-18)
(1.005 0.017031 -2.7095e-18)
(0.98692 0.020542 6.4352e-18)
(0.99044 0.024725 -1.3726e-17)
(0.97355 0.0089954 -4.7397e-17)
(0.98363 0.0051506 -1.5705e-18)
(0.98628 -0.025535 -1.8518e-17)
(1.0073 -0.028504 -7.6078e-17)
(1.0356 -0.055463 3.3428e-17)
(1.0616 -0.037642 1.1235e-17)
(1.1009 -0.045686 1.7316e-18)
(1.0561 0.019023 2.0593e-18)
(1.0005 0.0081221 7.9035e-18)
(1.0056 0.018377 -6.2371e-17)
(0.9862 0.022525 1.2004e-16)
(0.98948 0.027392 1.0546e-17)
(0.97092 0.011379 2.8895e-17)
(0.98048 0.0078596 1.5135e-16)
(0.98186 -0.023958 1.0621e-16)
(1.0023 -0.026818 4.1336e-17)
(1.0298 -0.054899 -7.9868e-17)
(1.0546 -0.036952 -1.4422e-17)
(1.0936 -0.043965 2.4643e-18)
(1.0459 0.02041 -2.9321e-19)
(1.0009 0.0086868 -1.4849e-17)
(1.0062 0.019764 2.5004e-17)
(0.9855 0.024585 -1.6371e-17)
(0.98853 0.030164 -1.9209e-17)
(0.96823 0.013897 -5.1555e-17)
(0.97722 0.010735 -8.8311e-17)
(0.97721 -0.022159 -4.0988e-17)
(0.99697 -0.024884 -2.4954e-18)
(1.0235 -0.054082 2.3267e-17)
(1.0473 -0.036072 -1.3762e-17)
(1.0859 -0.042041 -4.2121e-17)
(1.0355 0.022103 7.2676e-18)
(1.0013 0.0092673 1.0891e-17)
(1.0069 0.021194 1.5562e-18)
(0.98483 0.026723 -4.4383e-17)
(0.98757 0.033038 -3.1487e-17)
(0.9655 0.016551 -1.6251e-17)
(0.97385 0.013784 -2.0865e-17)
(0.97232 -0.020129 -3.2574e-17)
(0.9913 -0.022701 -2.6715e-17)
(1.0169 -0.053035 -5.6898e-18)
(1.0395 -0.035024 -1.282e-17)
(1.0778 -0.039941 2.5524e-18)
(1.025 0.024086 -1.4723e-18)
(1.0018 0.0098637 3.728e-18)
(1.0076 0.022664 3.5553e-17)
(0.98418 0.028936 9.5707e-18)
(0.98662 0.036016 -3.3719e-18)
(0.96271 0.019346 2.0233e-17)
(0.97037 0.017014 4.8992e-17)
(0.9672 -0.017861 1.6123e-17)
(0.98533 -0.020275 3.1032e-17)
(1.0099 -0.051784 2.657e-17)
(1.0315 -0.033828 -1.6083e-17)
(1.0694 -0.037689 2.7298e-17)
(1.0145 0.026345 -5.7126e-18)
(1.0024 0.010476 -5.0847e-18)
(1.0084 0.024174 -4.739e-18)
(0.98356 0.031226 -3.4705e-17)
(0.98567 0.039099 -2.1151e-17)
(0.95987 0.022284 -7.0431e-18)
(0.96677 0.020435 -3.1677e-17)
(0.96185 -0.015349 1.5687e-18)
(0.97906 -0.017619 -3.6334e-17)
(1.0026 -0.050356 -2.3108e-18)
(1.0233 -0.032505 5.5527e-17)
(1.0607 -0.035302 1.3534e-17)
(1.0038 0.028869 4.9939e-19)
(1.0029 0.011104 -2.413e-18)
(1.0092 0.025725 -2.7414e-17)
(0.98296 0.033592 -1.1808e-17)
(0.98473 0.042288 -1.6383e-17)
(0.95699 0.025375 1.1445e-16)
(0.96307 0.024057 -2.293e-17)
(0.95627 -0.012595 2.3422e-17)
(0.97254 -0.01475 -1.8741e-17)
(0.99512 -0.048781 -2.1926e-17)
(1.0148 -0.031072 -1.4072e-17)
(1.0518 -0.032795 -5.5918e-19)
(0.99316 0.031649 -1.8201e-18)
(1.0036 0.011747 8.3904e-18)
(1.0101 0.027317 -9.7122e-18)
(0.9824 0.036037 4.0586e-17)
(0.98381 0.045587 7.6129e-17)
(0.95405 0.028624 -1.0863e-16)
(0.95925 0.027888 8.9033e-17)
(0.95048 -0.0096045 -4.2262e-17)
(0.96579 -0.01169 -1.6962e-17)
(0.9874 -0.047085 -1.6805e-17)
(1.0062 -0.029545 -1.8961e-17)
(1.0428 -0.030178 -4.1558e-18)
(0.98247 0.034677 -1.0757e-18)
(1.0043 0.012407 -1.4563e-18)
(1.0111 0.02895 -3.6554e-18)
(0.98188 0.038561 -3.7432e-18)
(0.9829 0.049001 -7.3734e-17)
(0.95107 0.032039 -2.9643e-17)
(0.95532 0.031934 -2.4284e-18)
(0.9445 -0.0063903 -5.9951e-17)
(0.95884 -0.0084666 8.5136e-17)
(0.97952 -0.045292 -5.3628e-19)
(0.99756 -0.027935 1.3467e-17)
(1.0336 -0.02746 4.8953e-18)
(0.97178 0.037945 -1.9725e-20)
(1.005 0.013084 -4.6713e-18)
(1.0121 0.030626 2.5922e-17)
(0.98138 0.041169 7.6029e-18)
(0.982 0.052534 1.0166e-16)
(0.94804 0.035629 5.2303e-17)
(0.95128 0.036198 -7.5927e-17)
(0.93834 -0.0029694 2.9689e-17)
(0.95173 -0.0051062 -4.5079e-17)
(0.97152 -0.043425 1.1449e-16)
(0.9888 -0.026251 -5.4907e-18)
(1.0243 -0.024648 6.1209e-19)
(0.96112 0.041448 -1.2398e-18)
(1.0059 0.013777 -4.8548e-18)
(1.0132 0.032345 1.8028e-17)
(0.98093 0.043863 -2.1488e-17)
(0.98112 0.056194 -9.8814e-17)
(0.94497 0.0394 9.6335e-17)
(0.94714 0.04068 4.8902e-17)
(0.93202 0.00063646 5.328e-17)
(0.9445 -0.0016366 1.8368e-17)
(0.96343 -0.0415 -9.5557e-18)
(0.97997 -0.024499 2.9667e-17)
(1.0149 -0.021746 -2.7637e-17)
(0.95048 0.045177 1.0183e-17)
(1.0067 0.014488 6.8043e-18)
(1.0143 0.034111 -3.4647e-17)
(0.98051 0.046647 -1.9928e-17)
(0.98025 0.059986 -5.7122e-18)
(0.94184 0.043356 -3.7113e-17)
(0.9429 0.045373 -9.6277e-19)
(0.92558 0.0044016 -4.3995e-17)
(0.93718 0.0019163 -2.5658e-17)
(0.95526 -0.039529 -1.0645e-16)
(0.97109 -0.022681 -2.1715e-17)
(1.0054 -0.018759 -7.1462e-18)
(0.93988 0.049128 -3.0245e-19)
(1.0077 0.015218 2.5934e-18)
(1.0156 0.035924 -2.7587e-18)
(0.98014 0.049526 -9.9661e-18)
(0.9794 0.063917 7.2225e-17)
(0.93868 0.0475 -1.1557e-16)
(0.93858 0.050267 -7.4461e-17)
(0.91904 0.0082984 5.5288e-17)
(0.9298 0.0055293 -2.7732e-18)
(0.94704 -0.037523 6.4685e-18)
(0.96218 -0.0208 2.3103e-17)
(0.9958 -0.015689 -4.7306e-18)
(0.92933 0.053292 2.6944e-18)
(1.0087 0.015966 -3.7624e-18)
(1.0169 0.037787 4.0807e-17)
(0.9798 0.052502 6.8793e-17)
(0.97858 0.067991 -2.1334e-17)
(0.93547 0.051831 9.3625e-18)
(0.93418 0.055349 3.3286e-17)
(0.91243 0.012298 -6.6273e-17)
(0.92239 0.0091828 5.3842e-17)
(0.93877 -0.035486 3.0831e-17)
(0.95323 -0.018854 -1.565e-17)
(0.98615 -0.012542 1.2903e-19)
(0.91885 0.057663 -2.2536e-19)
(1.0098 0.016734 -1.0569e-18)
(1.0182 0.039703 -5.925e-17)
(0.97951 0.055581 -1.1656e-17)
(0.97777 0.072213 1.2879e-17)
(0.93224 0.056346 1.3711e-16)
(0.92973 0.060597 9.5516e-18)
(0.90577 0.016374 6.1819e-17)
(0.91496 0.012862 -8.8325e-17)
(0.93047 -0.033421 3.2721e-17)
(0.94425 -0.016844 -2.4238e-17)
(0.97642 -0.0093196 2.6605e-17)
(0.90844 0.062232 -4.2224e-18)
(1.0109 0.017522 5.2977e-18)
(1.0197 0.041675 2.641e-17)
(0.97927 0.058765 -2.7741e-17)
(0.97699 0.076587 1.0597e-17)
(0.92898 0.061035 -8.2733e-17)
(0.92523 0.065992 -2.5246e-17)
(0.89908 0.0205 3.576e-18)
(0.90754 0.016555 6.362e-17)
(0.92212 -0.031326 2.834e-17)
(0.93524 -0.014769 -1.2079e-18)
(0.96664 -0.0060266 3.5196e-17)
(0.89813 0.066992 -5.4634e-18)
(1.0121 0.018332 3.285e-19)
(1.0212 0.043706 2.8601e-17)
(0.97907 0.062058 2.85e-17)
(0.97624 0.081112 -3.2655e-18)
(0.9257 0.065887 6.0529e-17)
(0.92071 0.071509 6.8144e-17)
(0.8924 0.024653 -1.807e-17)
(0.90013 0.020257 6.4167e-17)
(0.91373 -0.029202 -1.0888e-16)
(0.9262 -0.012625 -7.4379e-18)
(0.95679 -0.0026669 -5.0916e-17)
(0.88791 0.071933 1.2771e-18)
(1.0134 0.019163 -1.5335e-17)
(1.0228 0.045797 1.759e-17)
(0.97893 0.06546 -5.1321e-18)
(0.97551 0.085787 3.4337e-17)
(0.92241 0.070889 -4.5239e-17)
(0.91619 0.077122 -9.5803e-17)
(0.88573 0.028816 -6.4253e-18)
(0.89273 0.023965 -4.5989e-17)
(0.9053 -0.027042 1.1665e-16)
(0.91713 -0.010412 -2.4355e-18)
(0.94688 0.00075473 1.098e-17)
(0.8778 0.077045 6.2525e-18)
(1.0148 0.020016 3.8791e-18)
(1.0245 0.047952 -7.6124e-17)
(0.97884 0.068971 2.6075e-17)
(0.97482 0.090608 -1.1333e-16)
(0.91913 0.076022 5.3949e-17)
(0.91167 0.082808 1.5585e-16)
(0.87909 0.032974 -3.5187e-17)
(0.88536 0.02768 -6.4468e-17)
(0.89683 -0.024844 -3.7317e-17)
(0.90803 -0.0081288 -4.5536e-18)
(0.93693 0.0042333 1.1439e-17)
(0.86782 0.082318 -5.7204e-18)
(1.0162 0.020891 8.7501e-18)
(1.0263 0.050171 2.2289e-17)
(0.97882 0.072591 -7.9485e-17)
(0.97417 0.095568 1.0288e-16)
(0.91586 0.081268 -1.4741e-16)
(0.90719 0.088543 -1.2855e-16)
(0.87248 0.037118 4.2759e-17)
(0.87801 0.031407 1.163e-16)
(0.8883 -0.022602 -4.8604e-17)
(0.89889 -0.0057739 1.2066e-17)
(0.92692 0.0077633 -4.9558e-18)
(0.85797 0.087741 5.4107e-19)
(1.0178 0.021788 -1.4904e-18)
(1.0282 0.052456 4.7458e-17)
(0.97885 0.076316 6.3457e-17)
(0.97357 0.10066 -7.0446e-17)
(0.91262 0.086606 3.3106e-17)
(0.90275 0.094305 7.9266e-17)
(0.86592 0.041243 2.3277e-17)
(0.87068 0.035151 -1.2161e-17)
(0.87972 -0.020312 6.8551e-17)
(0.88972 -0.0033471 2.1498e-17)
(0.91688 0.011339 2.0448e-18)
(0.84827 0.093303 5.6341e-19)
(1.0194 0.022706 3.3114e-18)
(1.0302 0.054807 -5.2891e-17)
(0.97895 0.080142 -1.4084e-17)
(0.97301 0.10587 2.7703e-17)
(0.90942 0.092015 1.5953e-16)
(0.89836 0.10008 -7.1509e-17)
(0.85941 0.045348 -5.3319e-17)
(0.86337 0.03892 -9.4365e-18)
(0.87108 -0.01797 -6.8177e-17)
(0.88052 -0.00084816 2.4428e-17)
(0.90679 0.014953 -1.7461e-18)
(0.83872 0.098991 3.316e-18)
(1.0211 0.023646 -2.6501e-18)
(1.0323 0.057224 3.3036e-17)
(0.97913 0.084062 -2.2808e-17)
(0.97251 0.11119 7.9979e-17)
(0.90626 0.097477 -1.5012e-16)
(0.89404 0.10585 9.2045e-17)
(0.85293 0.049437 -7.8076e-18)
(0.85606 0.042724 -6.4264e-18)
(0.86237 -0.01557 7.0936e-17)
(0.87128 0.0017224 -1.6859e-17)
(0.89667 0.018598 -7.0185e-18)
(0.82934 0.10479 -8.5585e-19)
(1.0229 0.024606 3.6023e-19)
(1.0344 0.059706 -6.1982e-18)
(0.97938 0.088069 2.7836e-17)
(0.97208 0.11659 -8.9017e-17)
(0.90317 0.10297 7.4195e-17)
(0.88979 0.1116 2.138e-17)
(0.84651 0.053515 2.7497e-17)
(0.84876 0.046569 -1.1121e-16)
(0.85359 -0.01311 -3.485e-17)
(0.862 0.0043639 -7.7282e-17)
(0.88653 0.022269 -2.0527e-17)
(0.82014 0.11069 -6.2228e-18)
(1.0249 0.025586 -4.7626e-18)
(1.0367 0.06225 4.1604e-18)
(0.97971 0.092155 -5.1831e-17)
(0.97171 0.12208 3.3105e-18)
(0.90014 0.10848 -1.8876e-17)
(0.88563 0.11733 6.0624e-19)
(0.84011 0.057591 5.0825e-17)
(0.84146 0.050467 1.5096e-16)
(0.84474 -0.010586 9.8091e-18)
(0.85269 0.0070748 4.849e-17)
(0.87635 0.025955 -3.6428e-18)
(0.81113 0.11667 1.127e-17)
(1.0269 0.026583 4.586e-18)
(1.0391 0.064853 2.4499e-18)
(0.98013 0.09631 7.0097e-17)
(0.97143 0.12763 -3.8116e-17)
(0.89718 0.114 -4.3239e-17)
(0.88155 0.12304 -4.4178e-17)
(0.83375 0.061674 -2.3562e-17)
(0.83414 0.054425 -6.0831e-17)
(0.83582 -0.0079966 8.1782e-18)
(0.84334 0.0098536 4.847e-17)
(0.86615 0.02965 2.3904e-17)
(0.80231 0.12272 -1.0025e-17)
(1.029 0.027596 -4.6336e-18)
(1.0416 0.067513 -5.5446e-17)
(0.98063 0.10052 -3.0043e-17)
(0.97122 0.13323 6.8089e-18)
(0.8943 0.11951 1.0859e-16)
(0.87755 0.12873 -7.562e-17)
(0.82742 0.065776 -5.9596e-17)
(0.82682 0.05845 -5.7325e-17)
(0.82682 -0.0053394 -5.1627e-17)
(0.83395 0.012698 -1.0542e-16)
(0.85594 0.033344 -1.7935e-17)
(0.7937 0.12882 5.0734e-18)
(1.0312 0.028623 2.3422e-18)
(1.0442 0.070224 4.6427e-17)
(0.98123 0.10479 1.4079e-17)
(0.9711 0.13886 8.1723e-17)
(0.8915 0.12501 -1.2536e-16)
(0.87363 0.13441 1.0717e-16)
(0.8211 0.069908 -1.0206e-18)
(0.81947 0.062551 1.3565e-16)
(0.81774 -0.0026133 3.6846e-17)
(0.82452 0.015606 1.3828e-16)
(0.8457 0.037028 1.0016e-17)
(0.78531 0.13496 4.7027e-18)
(1.0335 0.029663 -4.6558e-18)
(1.0469 0.072983 9.7828e-18)
(0.98193 0.10909 2.1597e-17)
(0.97108 0.14451 -3.2015e-17)
(0.88879 0.13049 1.0704e-16)
(0.86979 0.14007 -1.1334e-16)
(0.81479 0.07408 9.1759e-17)
(0.81211 0.066733 -1.8506e-17)
(0.80858 0.00018253 2.2591e-17)
(0.81506 0.018575 -1.0146e-16)
(0.83546 0.040693 3.068e-17)
(0.77714 0.14112 -1.0554e-17)
(1.0359 0.030714 5.0644e-18)
(1.0498 0.075784 -2.7123e-17)
(0.98273 0.11342 -4.0254e-17)
(0.97115 0.15018 -3.7151e-17)
(0.88616 0.13596 1.0721e-17)
(0.86603 0.14573 -2.9561e-17)
(0.80849 0.078306 -5.0162e-17)
(0.80471 0.071002 -8.6846e-17)
(0.79934 0.0030484 -2.347e-17)
(0.80556 0.021602 2.3828e-17)
(0.82521 0.044329 -3.0333e-17)
(0.76919 0.14727 6.1183e-18)
(1.0385 0.031773 1.1961e-17)
(1.0527 0.078623 3.4459e-18)
(0.98363 0.11778 -1.0499e-17)
(0.97132 0.15585 2.7168e-17)
(0.88362 0.14141 -1.4563e-16)
(0.86234 0.1514 2.2028e-17)
(0.80219 0.082594 8.3874e-17)
(0.79729 0.075361 -3.6605e-17)
(0.79002 0.0059844 9.3255e-18)
(0.79603 0.024683 -7.5532e-18)
(0.81495 0.047926 6.9768e-18)
(0.76148 0.15341 -4.6078e-18)
(1.0411 0.03284 -7.8832e-18)
(1.0558 0.081495 1.658e-17)
(0.98464 0.12215 -3.0549e-17)
(0.97159 0.16152 -1.7286e-17)
(0.88116 0.14685 1.0846e-16)
(0.85872 0.15709 3.9632e-17)
(0.79589 0.086955 -3.7479e-17)
(0.78984 0.079816 5.9864e-17)
(0.78063 0.0089902 1.4928e-17)
(0.78645 0.027816 1.823e-17)
(0.80469 0.051474 -9.6137e-18)
(0.75401 0.15951 -8.4737e-20)
(1.0439 0.033912 -1.1806e-17)
(1.059 0.084395 -5.9746e-18)
(0.98575 0.12653 3.2042e-17)
(0.97197 0.16718 2.65e-17)
(0.87878 0.15228 3.3396e-17)
(0.85516 0.16281 8.0276e-17)
(0.78958 0.091397 -3.246e-17)
(0.78236 0.084369 -1.1312e-17)
(0.77115 0.012065 -1.8223e-17)
(0.77684 0.030996 -4.3392e-19)
(0.79442 0.054962 1.6113e-19)
(0.74678 0.16555 3.3886e-18)
(1.0468 0.034988 1.9739e-17)
(1.0623 0.087318 -3.0542e-18)
(0.98698 0.13091 3.6375e-17)
(0.97246 0.17284 -1.5631e-17)
(0.87647 0.15772 -2.9872e-17)
(0.85166 0.16857 -1.0602e-16)
(0.78325 0.095929 -5.7519e-17)
(0.77485 0.089022 2.9404e-17)
(0.76159 0.015209 3.5394e-18)
(0.7672 0.034221 3.3375e-18)
(0.78416 0.058379 2.6016e-18)
(0.73979 0.17151 3.0354e-19)
(1.0498 0.036067 -1.9556e-17)
(1.0657 0.090262 2.8731e-17)
(0.98832 0.1353 -5.3128e-17)
(0.97305 0.1785 3.4566e-17)
(0.87425 0.16317 -9.86e-19)
(0.8482 0.17438 7.1752e-17)
(0.77691 0.10056 5.6328e-17)
(0.76731 0.093777 -2.9552e-17)
(0.75195 0.01842 3.7118e-17)
(0.75751 0.037485 -1.4966e-17)
(0.7739 0.061715 2.289e-17)
(0.73305 0.17737 6.4373e-18)
(1.0529 0.037148 1.4843e-17)
(1.0693 0.093224 -2.0915e-17)
(0.98976 0.13969 -8.4927e-18)
(0.97374 0.18415 2.5233e-17)
(0.87209 0.16865 -3.1853e-17)
(0.8448 0.18026 -4.4048e-17)
(0.77056 0.10529 6.0345e-17)
(0.75973 0.098635 -2.7853e-17)
(0.74224 0.021697 -4.5408e-17)
(0.74779 0.040786 1.5192e-17)
(0.76364 0.064958 -1.323e-17)
(0.72655 0.18311 -5.049e-18)
(1.0562 0.038231 5.9519e-18)
(1.073 0.096201 -2.1684e-17)
(0.99133 0.14408 9.1982e-17)
(0.97454 0.1898 -4.2905e-17)
(0.87 0.17416 1.7262e-17)
(0.84144 0.1862 -3.5521e-17)
(0.76419 0.11013 -7.9752e-17)
(0.75213 0.1036 5.4542e-17)
(0.73245 0.02504 4.8214e-17)
(0.73803 0.044119 -3.8002e-17)
(0.75339 0.068097 -7.6468e-18)
(0.72029 0.18871 -1.5877e-18)
(1.0596 0.039314 -1.7376e-17)
(1.0768 0.099191 6.7527e-18)
(0.993 0.14848 -4.1701e-17)
(0.97545 0.19546 5.2832e-18)
(0.86798 0.17971 2.3557e-17)
(0.83811 0.19223 8.637e-17)
(0.75779 0.11508 8.6e-19)
(0.74449 0.10866 -3.2803e-18)
(0.72258 0.028447 -6.6633e-17)
(0.72823 0.04748 6.0329e-18)
(0.74314 0.071121 -4.5116e-18)
(0.71428 0.19415 6.6013e-19)
(1.0631 0.040398 -2.6623e-18)
(1.0807 0.10219 -4.6779e-18)
(0.99479 0.15288 -5.9471e-17)
(0.97646 0.20113 -1.0438e-17)
(0.86603 0.18532 -3.7368e-17)
(0.83483 0.19835 -2.4329e-17)
(0.75139 0.12014 -2.2247e-17)
(0.73682 0.11384 2.1623e-17)
(0.71264 0.031917 1.8825e-17)
(0.71839 0.050865 2.0122e-17)
(0.7329 0.074019 1.4701e-17)
(0.7085 0.1994 -2.1095e-18)
(1.0667 0.041482 6.672e-18)
(1.0848 0.10521 3.5683e-18)
(0.99668 0.15729 5.6898e-17)
(0.97757 0.20682 -1.073e-17)
(0.86413 0.19099 -1.9837e-17)
(0.83158 0.20456 -2.7628e-17)
(0.74496 0.12533 7.4454e-17)
(0.72912 0.11911 -3.9678e-17)
(0.70263 0.035449 1.0848e-17)
(0.70851 0.054269 2.6479e-17)
(0.72266 0.07678 -8.7875e-18)
(0.70295 0.20444 -3.8183e-19)
(1.0705 0.042568 -8.8187e-18)
(1.089 0.10824 9.0549e-18)
(0.99869 0.16172 1.8876e-17)
(0.97878 0.21254 3.8682e-17)
(0.8623 0.19673 7.0049e-17)
(0.82836 0.21087 -4.666e-17)
(0.73851 0.13063 -2.8581e-17)
(0.72139 0.12449 2.3763e-18)
(0.69254 0.039042 -3.2306e-17)
(0.69859 0.057687 -2.9241e-17)
(0.71243 0.079392 2.0342e-17)
(0.69762 0.20925 2.3853e-18)
(1.0743 0.043656 1.4197e-17)
(1.0933 0.11128 1.6604e-17)
(1.0008 0.16616 -1.8172e-17)
(0.98009 0.2183 -3.5016e-17)
(0.86052 0.20256 8.6162e-18)
(0.82518 0.21729 7.6568e-17)
(0.73205 0.13606 -5.0068e-17)
(0.71364 0.12998 -1.4503e-18)
(0.68239 0.042693 4.1446e-17)
(0.68863 0.061116 -2.5687e-17)
(0.70221 0.081845 -1.7422e-17)
(0.69251 0.21381 -1.2265e-18)
(1.0783 0.044747 1.6162e-18)
(1.0977 0.11434 1.4187e-18)
(1.0031 0.17064 -5.8011e-17)
(0.98149 0.2241 -4.5188e-17)
(0.8588 0.20848 -7.7763e-17)
(0.82203 0.22381 9.2623e-18)
(0.72558 0.14162 1.4486e-17)
(0.70585 0.13557 -7.9756e-18)
(0.67217 0.046402 -3.4234e-17)
(0.67862 0.064551 4.8403e-17)
(0.69198 0.084127 1.3205e-17)
(0.68761 0.2181 -1.1387e-18)
(1.0825 0.045841 -8.1196e-18)
(1.1023 0.11742 -1.5326e-17)
(1.0054 0.17514 7.7207e-17)
(0.983 0.22995 6.7579e-17)
(0.85714 0.21449 -1.2631e-18)
(0.81891 0.23045 1.2834e-17)
(0.71909 0.1473 -1.8782e-17)
(0.69804 0.14126 1.1107e-17)
(0.66188 0.050168 3.6636e-17)
(0.66858 0.067987 -1.2049e-17)
(0.68176 0.086229 4.6289e-18)
(0.6829 0.22209 2.1703e-18)
(1.0868 0.046941 -4.5521e-19)
(1.107 0.12052 1.0263e-17)
(1.0079 0.17968 -3.3409e-17)
(0.98459 0.23586 -6.2715e-17)
(0.85554 0.22061 3.8869e-17)
(0.81581 0.23721 -8.0763e-17)
(0.71258 0.15311 2.2185e-17)
(0.69021 0.14705 -2.6274e-17)
(0.65152 0.053989 3.2894e-18)
(0.65848 0.07142 1.2492e-17)
(0.67154 0.08814 -5.6182e-18)
(0.67837 0.22576 -4.9094e-18)
(1.0912 0.048046 4.513e-18)
(1.1119 0.12365 -2.8148e-17)
(1.0104 0.18427 3.3584e-17)
(0.98628 0.24184 5.4969e-17)
(0.85399 0.22683 -7.1598e-17)
(0.81275 0.24408 -5.247e-18)
(0.70607 0.15905 3.6836e-17)
(0.68235 0.15295 -3.5719e-17)
(0.6411 0.057864 -3.4148e-17)
(0.64835 0.074844 6.2179e-18)
(0.66131 0.08985 -1.0031e-17)
(0.67401 0.2291 4.3995e-18)
(1.0957 0.049159 2.826e-18)
(1.1168 0.1268 1.4901e-17)
(1.0131 0.18891 -1.5748e-17)
(0.98806 0.24789 4.5105e-17)
(0.85251 0.23317 3.5119e-17)
(0.80973 0.25108 2.6788e-17)
(0.69955 0.16512 -4.17e-17)
(0.67447 0.15894 5.1314e-17)
(0.63062 0.061793 -3.5699e-19)
(0.63816 0.078257 -4.9333e-17)
(0.65108 0.091349 5.0485e-18)
(0.6698 0.23208 -2.6239e-19)
(1.1004 0.050281 -4.6307e-18)
(1.1219 0.12998 1.4771e-17)
(1.0159 0.1936 -5.2672e-17)
(0.98994 0.25401 -3.8262e-17)
(0.85108 0.23963 8.1363e-18)
(0.80673 0.25819 2.7808e-17)
(0.69303 0.17132 4.347e-17)
(0.66657 0.16503 4.8054e-18)
(0.62007 0.065773 2.9957e-18)
(0.62792 0.081653 3.3019e-17)
(0.64084 0.092629 5.486e-18)
(0.66572 0.23468 -2.5222e-18)
(1.1052 0.051412 -3.5042e-18)
(1.1272 0.13319 -4.2533e-18)
(1.0189 0.19835 5.5691e-17)
(0.99191 0.26022 6.2461e-19)
(0.84971 0.24621 4.789e-17)
(0.80377 0.26543 -4.1517e-17)
(0.6865 0.17765 -2.5574e-17)
(0.65865 0.17122 -6.1438e-18)
(0.60947 0.069804 5.9392e-19)
(0.61764 0.085027 2.0344e-17)
(0.63059 0.093681 -1.7145e-17)
(0.66176 0.23688 -3.0272e-18)
(1.1101 0.052556 1.0076e-18)
(1.1325 0.13644 -1.3899e-17)
(1.0219 0.20317 -5.2412e-17)
(0.99397 0.26652 8.854e-18)
(0.84841 0.25291 3.9759e-18)
(0.80084 0.27279 7.2169e-19)
(0.67996 0.18411 -1.3426e-17)
(0.65071 0.17751 4.759e-17)
(0.59882 0.073885 4.1684e-17)
(0.6073 0.088375 -1.7896e-17)
(0.62032 0.094496 2.6441e-17)
(0.65789 0.23867 7.189e-18)
(1.1153 0.053711 6.0787e-18)
(1.138 0.13974 9.9405e-18)
(1.0251 0.20806 9.0518e-17)
(0.99612 0.27292 5.5141e-19)
(0.84718 0.25974 -2.3029e-17)
(0.79794 0.28028 1.7413e-18)
(0.67343 0.19071 -3.8878e-17)
(0.64275 0.18389 -2.5041e-17)
(0.58811 0.078014 -3.9388e-17)
(0.59691 0.091694 1.9099e-17)
(0.61003 0.095067 -1.6577e-17)
(0.65411 0.24003 -2.2533e-18)
(1.1205 0.054881 -7.0721e-18)
(1.1437 0.14307 -1.4233e-17)
(1.0283 0.21302 -8.7548e-17)
(0.99837 0.27941 -1.4272e-17)
(0.84601 0.2667 -6.888e-18)
(0.79508 0.28788 2.1596e-17)
(0.66691 0.19744 2.6684e-17)
(0.63478 0.19036 1.0847e-17)
(0.57734 0.082192 -3.9646e-17)
(0.58646 0.094978 -7.097e-18)
(0.59973 0.095388 5.1393e-18)
(0.65037 0.24094 1.647e-18)
(1.1259 0.056066 -3.4961e-18)
(1.1494 0.14645 1.9249e-17)
(1.0318 0.21806 5.9696e-17)
(1.0007 0.286 -6.3086e-17)
(0.84491 0.27379 -6.3594e-18)
(0.79226 0.29562 1.5319e-17)
(0.66039 0.2043 9.0131e-19)
(0.62679 0.19693 2.7023e-18)
(0.56653 0.086416 5.9247e-17)
(0.57596 0.098223 -7.0805e-19)
(0.58939 0.095452 -1.4657e-17)
(0.64666 0.24139 -5.0959e-18)
(1.1315 0.057267 5.8269e-18)
(1.1554 0.14988 -7.4898e-18)
(1.0353 0.22319 6.1799e-18)
(1.0031 0.29269 9.7625e-17)
(0.84388 0.28102 -6.4523e-18)
(0.78947 0.30348 -2.293e-17)
(0.65388 0.21129 7.3916e-17)
(0.61878 0.20359 -4.8748e-17)
(0.55567 0.090687 -7.4778e-17)
(0.5654 0.10143 1.2236e-18)
(0.57902 0.095254 1.9912e-17)
(0.64296 0.24136 1.8472e-18)
(1.1372 0.058485 -6.4183e-19)
(1.1614 0.15336 1.0083e-17)
(1.039 0.2284 -1.4406e-17)
(1.0057 0.29949 -5.3318e-17)
(0.84293 0.28838 -3.4597e-17)
(0.78673 0.31146 6.0247e-17)
(0.64738 0.21841 -3.2008e-17)
(0.61076 0.21033 1.797e-17)
(0.54476 0.095003 1.7608e-17)
(0.55478 0.10458 -2.8853e-17)
(0.56861 0.094789 -1.7855e-17)
(0.63924 0.24084 3.0922e-18)
(1.143 0.059722 -6.4112e-19)
(1.1676 0.15689 -2.6521e-18)
(1.0428 0.2337 -1.6996e-17)
(1.0083 0.30639 2.1598e-17)
(0.84205 0.29588 4.6536e-17)
(0.78403 0.31956 -5.3642e-17)
(0.6409 0.22567 -1.9286e-17)
(0.60273 0.21717 1.183e-17)
(0.53381 0.099365 7.1843e-17)
(0.5441 0.10769 -1.7768e-17)
(0.55816 0.094053 2.8557e-17)
(0.63547 0.23983 2.65e-18)
(1.1491 0.060978 -7.1846e-19)
(1.1739 0.16048 -4.448e-18)
(1.0467 0.23909 1.8727e-17)
(1.011 0.3134 -2.6438e-17)
(0.84126 0.30351 2.2972e-17)
(0.78136 0.32779 -1.3789e-17)
(0.63444 0.23306 -2.1514e-17)
(0.59469 0.22409 -4.8985e-17)
(0.52282 0.10377 -6.8071e-17)
(0.53336 0.11074 3.1144e-17)
(0.54766 0.093044 -5.4675e-18)
(0.63162 0.23831 -5.7586e-18)
(1.1553 0.062255 1.7336e-18)
(1.1804 0.16413 -8.7275e-18)
(1.0508 0.24457 -2.9826e-17)
(1.0138 0.32053 5.4668e-17)
(0.84055 0.31129 -2.3089e-17)
(0.77875 0.33614 5.4142e-17)
(0.62799 0.24058 1.0716e-17)
(0.58665 0.23109 1.6995e-17)
(0.5118 0.10822 1.4227e-17)
(0.52255 0.11373 5.5665e-18)
(0.53711 0.09176 -5.1891e-18)
(0.62768 0.23628 -1.3849e-18)
(1.1617 0.063552 5.0072e-18)
(1.1871 0.16784 -1.1141e-17)
(1.055 0.25015 1.2381e-17)
(1.0167 0.32777 -3.8029e-17)
(0.83992 0.3192 -2.1212e-17)
(0.77617 0.34462 1.77e-17)
(0.62158 0.24824 -4.125e-17)
(0.57859 0.23818 7.386e-17)
(0.50073 0.11271 3.0416e-17)
(0.51167 0.11666 2.6001e-19)
(0.5265 0.090199 2.1565e-18)
(0.6236 0.23373 4.097e-20)
(1.1682 0.064871 7.7052e-19)
(1.1938 0.17161 3.5972e-17)
(1.0593 0.25582 -9.0483e-18)
(1.0198 0.33512 4.6735e-18)
(0.83939 0.32725 -1.9901e-18)
(0.77365 0.35322 -1.4544e-17)
(0.61519 0.25602 9.1058e-17)
(0.57053 0.24535 -7.2256e-17)
(0.48964 0.11725 9.5267e-18)
(0.50073 0.11953 -4.6142e-17)
(0.51583 0.088361 -5.662e-18)
(0.61937 0.23066 3.7912e-18)
(1.175 0.066213 -7.2544e-18)
(1.2008 0.17544 -2.565e-18)
(1.0639 0.2616 2.3471e-17)
(1.0229 0.34258 -5.6667e-17)
(0.83895 0.33544 3.1928e-18)
(0.77117 0.36193 -6.2844e-17)
(0.60883 0.26394 2.9709e-17)
(0.56246 0.2526 2.3628e-17)
(0.47851 0.12183 -2.7697e-17)
(0.48973 0.12233 7.2513e-17)
(0.50509 0.086248 -1.8326e-17)
(0.61496 0.22706 3.3284e-18)
(1.1819 0.067577 9.3463e-18)
(1.2079 0.17933 -1.7395e-17)
(1.0685 0.26747 -3.5339e-17)
(1.0261 0.35015 4.2705e-17)
(0.83861 0.34377 -2.0696e-17)
(0.76874 0.37077 -4.6841e-17)
(0.60251 0.27199 -3.9711e-17)