/*--------------------------------*- C++ -*----------------------------------*\
  =========                 |
  \\      /  F ield         | OpenFOAM: The Open Source CFD Toolbox
   \\    /   O peration     | Website:  https://openfoam.org
    \\  /    A nd           | Version:  6.0
     \\/     M anipulation  |
\*---------------------------------------------------------------------------*/
FoamFile
{
    version     2.0;
    format      ascii;
    class       volVectorField;
    location    "1";
    object      U;
}
// * * * * * * * * * * * * * * * * * * * * * * * * * * * * * * * * * * * * * //

dimensions      [0 1 -1 0 0 0 0];

internalField   nonuniform List<vector> 
22000
(
(1 -3.535e-06 1.096e-19)
(1 -1.376e-05 -1.4903e-19)
(1 -2.4227e-05 2.6092e-19)
(1 -3.3666e-05 -2.8559e-19)
(1 -4.4803e-05 1.3858e-18)
(1 -5.2513e-05 7.9873e-19)
(1.0001 -7.0911e-05 -7.8185e-19)
(1.0002 -8.0754e-05 1.6232e-18)
(1.0004 -0.00036655 -4.6275e-19)
(0.99818 0.0033738 3.1142e-19)
(1.0305 -0.060191 1.9888e-19)
(0.81504 0.72861 3.0118e-19)
(1 -1.03e-05 -1.6543e-19)
(1 -4.1309e-05 2.2695e-19)
(1 -7.0629e-05 -5.0126e-19)
(1.0001 -9.6354e-05 1.2398e-19)
(1.0001 -0.00012803 -6.3183e-19)
(1.0002 -0.00015841 -8.2603e-19)
(1.0003 -0.00018757 4.439e-19)
(1.0004 -0.00025026 -1.7546e-18)
(1.0012 -0.00027947 3.3358e-19)
(0.9996 -0.0020088 -1.6695e-20)
(1.0072 0.021206 -6.036e-20)
(1.0057 -0.35544 -2.8437e-19)
(1 -1.6997e-05 1.2683e-19)
(1 -6.7805e-05 -3.0777e-19)
(1.0001 -0.00011317 1.7479e-19)
(1.0001 -0.00016068 -6.3336e-19)
(1.0002 -0.00019675 -3.4661e-19)
(1.0003 -0.00025694 -3.0982e-19)
(1.0004 -0.00031041 -6.6158e-19)
(1.0006 -0.00037749 7.8488e-19)
(1.0013 -0.0005768 3.9696e-19)
(1.003 -0.0011604 1.2464e-19)
(0.99151 0.0029596 2.3768e-20)
(1.0407 -0.031475 -1.72e-19)
(1 -2.3506e-05 5.4526e-20)
(1 -9.2973e-05 2.9319e-19)
(1.0001 -0.00015717 4.505e-19)
(1.0002 -0.00022131 3.16e-19)
(1.0003 -0.00026849 1.8187e-19)
(1.0004 -0.00033117 1.2192e-18)
(1.0006 -0.00043195 1.8427e-18)
(1.0009 -0.00050525 -1.9653e-19)
(1.0013 -0.00074327 -5.1147e-20)
(1.0043 -0.0022281 -6.2393e-19)
(0.99395 0.0027305 2.9e-19)
(1.0175 -0.0034751 2.8009e-19)
(1 -3.0093e-05 -9.7755e-20)
(1 -0.00011889 -4.7632e-20)
(1.0001 -0.00020368 -2.298e-19)
(1.0002 -0.00027164 1.0753e-19)
(1.0003 -0.00035132 -2.9053e-19)
(1.0005 -0.00039911 -2.5343e-19)
(1.0007 -0.00050771 -1.8761e-18)
(1.0011 -0.00066878 1.1441e-19)
(1.0015 -0.00061301 3.0526e-19)
(1.0046 -0.0032692 -7.2501e-20)
(0.99808 0.0023357 -2.0165e-19)
(1.0043 -0.017379 6.4187e-20)
(1 -3.7324e-05 -5.6898e-21)
(1.0001 -0.00014641 2.7577e-20)
(1.0001 -0.00024632 3.0894e-20)
(1.0002 -0.0003231 5.5812e-21)
(1.0004 -0.00042372 1.2133e-18)
(1.0006 -0.00049175 -1.4401e-18)
(1.0008 -0.0005598 -3.8074e-20)
(1.0012 -0.00076006 -1.7736e-19)
(1.0015 -0.00083286 -7.5947e-19)
(1.005 -0.0015768 3.318e-19)
(1.0001 -0.0053376 -3.621e-19)
(1.0034 0.0007118 -1.7052e-19)
(1 -4.5013e-05 5.1953e-21)
(1.0001 -0.00017292 -2.9936e-19)
(1.0001 -0.00028323 3.0216e-19)
(1.0003 -0.00038742 1.4599e-19)
(1.0004 -0.00047284 -6.274e-19)
(1.0006 -0.00059616 2.9945e-19)
(1.0009 -0.00065208 7.9044e-19)
(1.0012 -0.00077099 3.8254e-19)
(1.0014 -0.0011705 -1.343e-19)
(1.0049 -0.00072327 -5.8484e-19)
(1.0022 -0.0053917 8.6153e-19)
(1.0025 0.00016558 -1.4832e-19)
(1 -5.2293e-05 7.7033e-20)
(1.0001 -0.00019652 -1.1654e-19)
(1.0001 -0.00032234 -3.5046e-19)
(1.0003 -0.00045394 -6.569e-19)
(1.0004 -0.00052575 -3.4361e-19)
(1.0007 -0.00066752 3.699e-19)
(1.001 -0.00078852 3.831e-19)
(1.0013 -0.00083814 1.7113e-19)
(1.0012 -0.0012166 -5.2978e-20)
(1.0042 -0.0013844 1.3244e-19)
(1.0038 -0.0023647 -7.4393e-19)
(0.99973 -0.0093448 2.3646e-19)
(0.99999 -5.8939e-05 -3.0534e-20)
(1 -0.00021968 2.8807e-19)
(1.0002 -0.00036946 -2.1528e-20)
(1.0003 -0.00050491 1.0567e-19)
(1.0005 -0.00061025 -1.0446e-19)
(1.0007 -0.00070398 8.5137e-20)
(1.0011 -0.00090138 -6.7924e-20)
(1.0015 -0.0010078 -6.8902e-19)
(1.0012 -0.0012058 7.7474e-20)
(1.0035 -0.0016395 7.7046e-19)
(1.0041 -0.0022608 6.2989e-19)
(0.9986 -0.014186 -4.1446e-19)
(0.99998 -6.5818e-05 -1.0904e-19)
(1 -0.00024598 -7.2765e-21)
(1.0002 -0.00041796 -2.7297e-19)
(1.0003 -0.00054422 7.0892e-19)
(1.0005 -0.00070815 1.661e-19)
(1.0007 -0.000763 -7.285e-19)
(1.001 -0.00094011 5.895e-19)
(1.0017 -0.0011764 8.294e-19)
(1.0015 -0.0014127 -2.2827e-19)
(1.003 -0.0012224 -2.0059e-19)
(1.004 -0.0034893 -4.6991e-19)
(0.99903 -0.013058 6.0905e-20)
(0.99997 -7.356e-05 1.5045e-19)
(1 -0.00027428 3.4525e-20)
(1.0001 -0.00045672 3.2722e-19)
(1.0003 -0.00059446 -5.4191e-20)
(1.0005 -0.00077779 -2.4191e-19)
(1.0008 -0.00087927 5.0638e-19)
(1.001 -0.00094722 -3.6259e-19)
(1.0017 -0.0012341 -9.3881e-19)
(1.002 -0.0017302 6.3121e-19)
(1.0025 -0.00092568 -2.1807e-19)
(1.0041 -0.0039523 6.0203e-19)
(0.99961 -0.011543 3.6849e-19)
(0.99995 -8.137e-05 -9.8712e-21)
(1 -0.00029931 -2.8866e-19)
(1.0001 -0.00048619 2.8796e-19)
(1.0003 -0.00066578 -2.2079e-19)
(1.0005 -0.00080972 6.6544e-19)
(1.0008 -0.0010085 2.8777e-19)
(1.001 -0.0010154 -8.9475e-20)
(1.0015 -0.0011735 3.7933e-19)
(1.0024 -0.0019617 4.4326e-19)
(1.0021 -0.00093848 -3.5157e-19)
(1.0044 -0.0039691 -2.07e-19)
(0.99993 -0.011162 -8.7506e-21)
(0.99993 -8.7885e-05 -3.7188e-20)
(1 -0.00031881 2.9204e-20)
(1.0001 -0.00051932 -7.9823e-19)
(1.0003 -0.00073822 -2.2788e-19)
(1.0005 -0.00083953 -3.8269e-19)
(1.0009 -0.0010805 4.146e-19)
(1.0012 -0.0011695 1.9942e-19)
(1.0014 -0.0010936 -1.513e-19)
(1.0026 -0.0020508 -5.2729e-19)
(1.002 -0.0010439 1.1899e-18)
(1.0046 -0.0040964 3.4141e-19)
(1.0002 -0.010959 -2.1807e-19)
(0.99991 -9.2994e-05 1.1534e-19)
(0.99998 -0.00033704 1.026e-19)
(1.0001 -0.00056434 6.3438e-19)
(1.0003 -0.00078319 4.9628e-19)
(1.0005 -0.00090715 3.4145e-19)
(1.0009 -0.0010811 -5.2032e-19)
(1.0013 -0.0013311 -3.4107e-19)
(1.0013 -0.0011213 3.496e-19)
(1.0025 -0.0020218 4.2055e-19)
(1.0021 -0.0011602 1.2561e-19)
(1.0048 -0.0043107 -4.9436e-19)
(1.0004 -0.01055 1.8672e-19)
(0.9999 -9.8081e-05 -6.255e-20)
(0.99997 -0.00035954 -4.9177e-20)
(1.0001 -0.00061263 -7.55e-20)
(1.0003 -0.0008003 -1.192e-19)
(1.0006 -0.0010093 -1.2179e-19)
(1.0008 -0.001066 2.1267e-19)
(1.0014 -0.0014091 -1.0759e-20)
(1.0016 -0.0013046 4.8583e-19)
(1.0022 -0.0019094 -4.1406e-19)
(1.0023 -0.001325 -1.3488e-18)
(1.0049 -0.0044944 1.4276e-19)
(1.0007 -0.010067 -2.6104e-19)
(0.99988 -0.00010438 6.0558e-20)
(0.99996 -0.00038618 -2.1825e-21)
(1.0001 -0.0006488 -2.2615e-19)
(1.0003 -0.00082173 -3.1668e-19)
(1.0006 -0.0010975 -3.4406e-19)
(1.0008 -0.0011106 2.1656e-19)
(1.0014 -0.0013869 3.3157e-19)
(1.0019 -0.0015744 -7.548e-19)
(1.0018 -0.001764 -1.6392e-19)
(1.0026 -0.0015507 1.4528e-18)
(1.0051 -0.0046339 -1.6892e-19)
(1.0009 -0.0095947 -7.4013e-21)
(0.99987 -0.00011153 -1.396e-19)
(0.99995 -0.00041127 -5.1005e-20)
(1.0001 -0.0006696 4.9134e-19)
(1.0003 -0.00087651 -2.0985e-19)
(1.0007 -0.0011307 8.3949e-20)
(1.0009 -0.0012438 -5.3213e-19)
(1.0012 -0.0013221 -8.6256e-19)
(1.0022 -0.0018106 -1.3435e-19)
(1.0015 -0.0016492 -5.8511e-19)
(1.003 -0.0018136 -1.2096e-18)
(1.0051 -0.0047434 -1.0064e-18)
(1.0011 -0.0091404 2.0168e-19)
(0.99985 -0.000118 -5.3882e-20)
(0.99994 -0.00043007 4.2842e-20)
(1.0001 -0.00068859 -4.7021e-19)
(1.0003 -0.0009588 4.2463e-19)
(1.0006 -0.0011239 -5.897e-19)
(1.001 -0.0014162 -5.3559e-21)
(1.0011 -0.0012961 5.635e-19)
(1.0024 -0.0019312 -1.6424e-19)
(1.0014 -0.0016111 5.1028e-19)
(1.0033 -0.002089 2.129e-19)
(1.0052 -0.0048267 4.0885e-19)
(1.0013 -0.0087029 3.7053e-20)
(0.99983 -0.00012276 6.5047e-20)
(0.99992 -0.00044435 3.6105e-19)
(1.0001 -0.0007227 1.9659e-19)
(1.0004 -0.0010351 -2.3892e-19)
(1.0006 -0.0011347 4.3252e-20)
(1.0011 -0.0015351 3.8376e-19)
(1.0011 -0.0013699 7.5756e-20)
(1.0023 -0.0019227 4.4489e-20)
(1.0014 -0.0016638 6.1253e-19)
(1.0036 -0.0023607 3.7951e-19)
(1.0052 -0.0048846 1.2053e-18)
(1.0015 -0.0082857 -3.7816e-19)
(0.99981 -0.00012656 6.2215e-20)
(0.9999 -0.00046119 -3.7783e-19)
(1.0001 -0.00077546 2.6792e-19)
(1.0003 -0.0010768 -1.184e-19)
(1.0006 -0.0012063 2.8604e-19)
(1.0011 -0.0015458 6.269e-19)
(1.0013 -0.0015532 -7.5812e-20)
(1.0022 -0.0018201 9.0749e-20)
(1.0016 -0.0017987 -3.3394e-19)
(1.0039 -0.002618 -4.3551e-19)
(1.0052 -0.00492 -1.0801e-18)
(1.0016 -0.0078912 3.6269e-19)
(0.99978 -0.00013133 -4.507e-20)
(0.99988 -0.00048609 1.7912e-20)
(1.0001 -0.00083251 -4.3351e-20)
(1.0003 -0.001085 9.9077e-20)
(1.0006 -0.00133 3.6088e-19)
(1.001 -0.0014793 1.3371e-20)
(1.0015 -0.0017943 1.7595e-19)
(1.0019 -0.0016785 8.7319e-19)
(1.0018 -0.001998 -4.6909e-19)
(1.0041 -0.0028534 -2.1098e-19)
(1.0051 -0.0049364 -4.3057e-20)
(1.0018 -0.0075202 -8.2562e-20)
(0.99976 -0.00013824 -5.1736e-20)
(0.99986 -0.000517 4.1859e-19)
(1.0001 -0.00087367 -8.1569e-19)
(1.0003 -0.00109 -7.6707e-20)
(1.0007 -0.0014584 -2.2004e-19)
(1.0009 -0.0014222 -1.2921e-18)
(1.0017 -0.002007 -1.0102e-18)
(1.0017 -0.0015546 -4.7395e-19)
(1.0021 -0.0022417 1.1179e-18)
(1.0043 -0.0030627 2.748e-19)
(1.0051 -0.0049375 -6.1491e-20)
(1.0019 -0.0071726 1.069e-20)
(0.99974 -0.00014645 9.7423e-20)
(0.99984 -0.0005457 -1.6784e-19)
(1 -0.0008916 1.1097e-19)
(1.0003 -0.0011279 1.392e-19)
(1.0008 -0.0015413 3.9326e-19)
(1.0009 -0.0014487 7.5432e-19)
(1.0018 -0.002121 3.9005e-19)
(1.0016 -0.0014938 2.8652e-20)
(1.0025 -0.0025093 -3.2713e-19)
(1.0045 -0.0032444 2.5871e-19)
(1.0051 -0.0049262 1.0839e-18)
(1.0021 -0.0068481 -2.8251e-19)
(0.99971 -0.00015383 -7.1553e-20)
(0.99982 -0.00056546 -1.031e-20)
(1 -0.00089967 3.0253e-19)
(1.0003 -0.0012115 2.2896e-19)
(1.0007 -0.0015558 1.2413e-19)
(1.001 -0.0015789 1.7829e-19)
(1.0018 -0.0021157 3.0959e-19)
(1.0016 -0.0015204 3.0523e-19)
(1.0028 -0.0027818 7.76e-20)
(1.0046 -0.0033997 2.3862e-19)
(1.005 -0.0049057 -7.0136e-20)
(1.0022 -0.0065457 5.8169e-20)
(0.99969 -0.00015892 -2.4605e-20)
(0.9998 -0.00057723 -2.4051e-19)
(1 -0.00092057 -6.5484e-20)
(1.0003 -0.0013169 2.4733e-20)
(1.0007 -0.0015202 -1.5446e-19)
(1.0011 -0.0017799 -4.1887e-19)
(1.0017 -0.002019 -1.533e-19)
(1.0016 -0.0016365 -3.5454e-19)
(1.0031 -0.0030442 -3.7003e-19)
(1.0047 -0.0035309 2.9527e-19)
(1.005 -0.0048782 -6.9668e-19)
(1.0024 -0.0062648 2.1955e-19)
(0.99966 -0.00016215 3.3581e-20)
(0.99978 -0.00058872 3.1847e-20)
(0.99999 -0.00096703 2.3778e-19)
(1.0003 -0.0014015 1.5465e-19)
(1.0006 -0.0014854 5.4048e-20)
(1.0012 -0.0019902 2.7111e-19)
(1.0015 -0.0018839 -1.4916e-20)
(1.0018 -0.0018285 4.1337e-19)
(1.0033 -0.0032862 3.1191e-20)
(1.0047 -0.0036411 -1.0258e-18)
(1.0049 -0.0048458 -3.4032e-19)
(1.0025 -0.006004 -1.952e-20)
(0.99963 -0.00016543 1.6018e-20)
(0.99975 -0.00060796 1.8641e-19)
(0.99998 -0.0010322 8.1362e-20)
(1.0003 -0.0014367 1.2034e-19)
(1.0006 -0.0015056 -8.764e-19)
(1.0013 -0.0021478 1.9619e-19)
(1.0014 -0.0017655 -2.2192e-19)
(1.002 -0.002075 2.1198e-19)
(1.0035 -0.0035021 3.0042e-19)
(1.0048 -0.0037336 2.6017e-19)
(1.0049 -0.0048101 1.6497e-20)
(1.0026 -0.0057623 6.8798e-20)
(0.9996 -0.0001707 -5.5789e-20)
(0.99972 -0.00063753 6.6533e-20)
(0.99997 -0.0010962 -2.7908e-19)
(1.0003 -0.0014277 -5.578e-19)
(1.0006 -0.0016054 8.3273e-19)
(1.0014 -0.0022136 -7.6273e-19)
(1.0013 -0.0017067 4.0062e-19)
(1.0023 -0.0023529 1.9141e-19)
(1.0037 -0.0036896 2.2761e-19)
(1.0048 -0.0038116 3.4589e-19)
(1.0049 -0.0047725 1.0605e-19)
(1.0027 -0.0055386 3.9953e-20)
(0.99957 -0.00017863 9.6273e-21)
(0.9997 -0.00067309 2.544e-20)
(0.99995 -0.0011404 2.5759e-20)
(1.0003 -0.0014076 5.4212e-19)
(1.0007 -0.0017669 2.2781e-19)
(1.0013 -0.0021842 2.0726e-20)
(1.0012 -0.0017312 5.6727e-19)
(1.0025 -0.0026411 -9.6621e-19)
(1.0038 -0.0038492 4.1847e-21)
(1.0048 -0.0038779 -2.4502e-19)
(1.0049 -0.0047339 -1.1932e-19)
(1.0029 -0.0053316 -1.3383e-22)
(0.99954 -0.00018813 3.1222e-20)
(0.99968 -0.00070625 -1.7793e-19)
(0.99993 -0.0011586 -5.2636e-20)
(1.0002 -0.0014144 -7.4895e-19)
(1.0007 -0.0019424 -4.0183e-19)
(1.0012 -0.0020887 6.5133e-19)
(1.0013 -0.0018432 -2.8157e-19)
(1.0028 -0.0029223 5.1022e-19)
(1.0039 -0.0039832 -1.5605e-18)
(1.0048 -0.0039352 9.9356e-20)
(1.0048 -0.0046951 -1.2287e-20)
(1.003 -0.0051402 4.6049e-20)
(0.99951 -0.00019694 3.2661e-20)
(0.99965 -0.00072965 -1.246e-19)
(0.9999 -0.0011598 1.4916e-19)
(1.0002 -0.0014707 7.3006e-19)
(1.0008 -0.0020808 -7.4165e-19)
(1.0011 -0.0019745 -4.2007e-19)
(1.0014 -0.0020313 -5.0426e-19)
(1.003 -0.0031845 -2.0839e-19)
(1.004 -0.004095 1.3251e-19)
(1.0048 -0.0039854 -5.3201e-19)
(1.0048 -0.0046569 6.7833e-19)
(1.0031 -0.0049634 -3.8289e-19)
(0.99948 -0.00020302 -4.5814e-20)
(0.99962 -0.00074148 2.3986e-19)
(0.99987 -0.0011625 1.3905e-19)
(1.0002 -0.0015744 4.3194e-20)
(1.0008 -0.0021492 2.857e-19)
(1.001 -0.0018887 8.1565e-21)
(1.0016 -0.0022746 4.156e-19)
(1.0031 -0.0034206 2.8907e-19)
(1.0041 -0.0041881 1.4397e-18)
(1.0048 -0.0040302 3.8927e-19)
(1.0048 -0.0046195 1.716e-19)
(1.0032 -0.0048001 1.1725e-20)
(0.99944 -0.0002059 -1.7602e-20)
(0.99958 -0.00074677 1.9553e-20)
(0.99984 -0.0011852 7.0298e-20)
(1.0002 -0.0017019 -5.3615e-19)
(1.0008 -0.0021424 8.9265e-19)
(1.0009 -0.0018652 6.41e-19)
(1.0018 -0.0025497 -5.2231e-19)
(1.0033 -0.0036276 3.0859e-20)
(1.0041 -0.0042662 -9.0153e-20)
(1.0048 -0.0040711 -4.0933e-19)
(1.0048 -0.0045834 1.1094e-19)
(1.0033 -0.0046494 -1.0106e-19)
(0.99941 -0.00020698 2.5526e-20)
(0.99955 -0.00075475 -2.8512e-19)
(0.99982 -0.001237 -4.8177e-19)
(1.0003 -0.0018201 1.5899e-19)
(1.0007 -0.0020802 -7.1638e-20)
(1.0009 -0.0019204 -2.8665e-19)
(1.002 -0.0028346 6.2568e-19)
(1.0034 -0.0038057 -6.0644e-19)
(1.0041 -0.0043325 -4.1585e-19)
(1.0048 -0.004109 2.7946e-19)
(1.0048 -0.0045489 -6.3359e-21)
(1.0034 -0.0045104 8.7325e-21)
(0.99937 -0.00020883 7.2372e-21)
(0.99952 -0.00077373 4.1594e-19)
(0.9998 -0.0013128 8.1563e-20)
(1.0003 -0.0019 -9.6245e-20)
(1.0006 -0.0019976 -1.0625e-18)
(1.001 -0.0020532 -8.2233e-20)
(1.0021 -0.0031119 -5.8382e-19)
(1.0035 -0.0039571 9.9223e-19)
(1.0042 -0.00439 -4.3817e-19)
(1.0048 -0.0041447 4.2685e-19)
(1.0048 -0.0045161 -6.3945e-19)
(1.0035 -0.0043823 1.5856e-19)
(0.99933 -0.00021374 -3.6348e-20)
(0.99949 -0.00080675 -1.8557e-19)
(0.99979 -0.0013966 1.9579e-19)
(1.0002 -0.0019281 -7.9661e-20)
(1.0006 -0.0019322 6.4222e-19)
(1.0011 -0.0022499 2.1828e-19)
(1.0023 -0.0033696 -3.3612e-20)
(1.0035 -0.0040854 -7.1552e-19)
(1.0042 -0.0044409 -3.7681e-19)
(1.0048 -0.0041788 2.0032e-20)
(1.0048 -0.0044851 -8.3604e-19)
(1.0036 -0.0042642 2.0491e-19)
(0.9993 -0.00022258 -2.3811e-21)
(0.99946 -0.0008503 -2.0286e-19)
(0.99977 -0.0014688 -2.0193e-19)
(1.0002 -0.0019095 2.4269e-20)
(1.0005 -0.0019139 -4.7121e-19)
(1.0012 -0.0024902 -5.8963e-19)
(1.0024 -0.0036006 1.7065e-19)
(1.0036 -0.0041945 -7.191e-19)
(1.0042 -0.0044871 1.4459e-18)
(1.0048 -0.0042119 1.2831e-19)
(1.0048 -0.0044562 1.2096e-18)
(1.0037 -0.0041554 -4.7993e-20)
(0.99926 -0.00023443 1.0627e-19)
(0.99942 -0.00089618 -1.2627e-19)
(0.99975 -0.0015149 3.6239e-20)
(1.0001 -0.0018639 -2.6028e-19)
(1.0005 -0.0019591 3.5284e-19)
(1.0013 -0.0027521 8.3072e-19)
(1.0025 -0.0038026 6.0378e-20)
(1.0036 -0.0042881 5.1547e-19)
(1.0042 -0.0045302 -1.5451e-18)
(1.0048 -0.0042442 4.0073e-20)
(1.0048 -0.0044293 -2.6021e-19)
(1.0038 -0.0040554 -2.3524e-19)
(0.99922 -0.00024709 -2.6706e-20)
(0.99939 -0.0009352 5.4552e-19)
(0.99971 -0.0015301 -1.8688e-19)
(1.0001 -0.0018178 8.6054e-19)
(1.0005 -0.0020695 -4.2233e-19)
(1.0014 -0.0030164 -1.3536e-18)
(1.0026 -0.003976 3.3163e-19)
(1.0036 -0.0043699 7.2044e-19)
(1.0042 -0.0045712 4.9404e-19)
(1.0048 -0.004276 7.6306e-20)
(1.0048 -0.0044045 -2.678e-19)
(1.0039 -0.0039634 2.1562e-19)
(0.99917 -0.00025797 -6.1146e-20)
(0.99935 -0.00096072 -1.5961e-19)
(0.99967 -0.0015199 5.7082e-19)
(1 -0.001796 -7.8378e-19)
(1.0005 -0.0022356 1.1563e-18)
(1.0015 -0.0032684 1.118e-18)
(1.0026 -0.0041236 -4.0367e-19)
(1.0036 -0.0044428 -1.299e-18)
(1.0042 -0.0046111 6.386e-19)
(1.0048 -0.0043076 -2.0886e-19)
(1.0049 -0.0043819 1.1682e-19)
(1.004 -0.0038789 -2.0427e-20)
(0.99913 -0.00026509 1.0461e-20)
(0.99931 -0.00097086 -3.4446e-19)
(0.99963 -0.0014978 -4.5741e-19)
(1 -0.0018156 5.3941e-19)
(1.0006 -0.0024412 -2.59e-19)
(1.0016 -0.0034988 -6.9092e-19)
(1.0027 -0.004249 -2.1951e-19)
(1.0036 -0.0045093 1.3673e-19)
(1.0042 -0.0046503 -8.9827e-19)
(1.0048 -0.0043391 -3.6771e-19)
(1.0049 -0.0043615 -4.6983e-20)
(1.0041 -0.0038015 -2.1364e-20)
(0.99908 -0.00026776 -2.3527e-20)
(0.99927 -0.00096873 3.8591e-19)
(0.99958 -0.0014799 1.0173e-19)
(0.99999 -0.0018839 -2.1255e-19)
(1.0007 -0.0026679 -1.2585e-18)
(1.0017 -0.0037028 6.2446e-19)
(1.0027 -0.0043563 5.0309e-19)
(1.0036 -0.0045713 1.0603e-19)
(1.0042 -0.0046894 8.9e-19)
(1.0048 -0.0043706 -4.1404e-19)
(1.0049 -0.0043434 4.0737e-20)
(1.0042 -0.0037305 -1.2586e-19)
(0.99904 -0.00026669 1.8805e-20)
(0.99922 -0.00096115 -2.4254e-19)
(0.99954 -0.0014806 1.6652e-19)
(0.99999 -0.0019982 -6.1938e-19)
(1.0007 -0.0028988 1.1873e-18)
(1.0017 -0.0038795 -8.0611e-19)
(1.0027 -0.0044495 7.3394e-20)
(1.0036 -0.0046305 7.1919e-20)
(1.0042 -0.0047287 -9.2352e-19)
(1.0048 -0.0044023 2.8724e-19)
(1.0049 -0.0043274 1.6141e-19)
(1.0043 -0.0036657 3.2552e-20)
(0.99899 -0.00026373 -2.6242e-21)
(0.99918 -0.00095638 4.5515e-20)
(0.99951 -0.0015097 -2.0388e-19)
(1 -0.0021492 6.9078e-19)
(1.0008 -0.0031207 -5.8861e-19)
(1.0018 -0.0040309 -1.8877e-19)
(1.0027 -0.0045321 -2.5972e-19)
(1.0036 -0.0046878 1.2367e-18)
(1.0042 -0.0047684 4.5257e-19)
(1.0048 -0.0044343 1.3001e-18)
(1.005 -0.0043136 4.6774e-19)
(1.0044 -0.0036066 2.3705e-19)
(0.99895 -0.00026129 3.4486e-20)
(0.99914 -0.00096189 -3.1366e-20)
(0.99948 -0.0015705 3.8291e-19)
(1 -0.002324 -2.5356e-20)
(1.0008 -0.0033249 1.5005e-19)
(1.0018 -0.0041599 -6.9127e-21)
(1.0027 -0.0046069 -4.8018e-19)
(1.0036 -0.0047442 -1.6784e-18)
(1.0043 -0.0048088 -1.2691e-19)
(1.0048 -0.0044666 -8.1679e-19)
(1.005 -0.0043021 7.9125e-20)
(1.0045 -0.0035528 -4.3034e-19)
(0.9989 -0.00026163 -3.3345e-20)
(0.99909 -0.00098277 -1.8965e-20)
(0.99946 -0.0016607 -5.1981e-19)
(1 -0.002509 3.0078e-19)
(1.0009 -0.0035069 3.463e-19)
(1.0018 -0.0042706 3.8861e-19)
(1.0027 -0.0046763 2.2259e-19)
(1.0036 -0.0048002 6.7613e-19)
(1.0043 -0.0048498 -1.0516e-19)
(1.0048 -0.0044994 -8.0887e-19)
(1.005 -0.0042927 -5.4283e-19)
(1.0046 -0.0035041 3.8329e-19)
(0.99885 -0.00026644 3.4075e-20)
(0.99905 -0.001021 4.2092e-19)
(0.99943 -0.0017742 2.2386e-19)
(1 -0.0026927 -5.1825e-20)
(1.0009 -0.0036656 -8.7194e-19)
(1.0018 -0.0043667 6.6905e-19)
(1.0027 -0.0047421 5.6388e-19)
(1.0036 -0.0048562 6.3635e-19)
(1.0043 -0.0048917 6.6265e-19)
(1.0049 -0.0045327 1.7499e-18)
(1.0051 -0.0042856 4.0155e-19)
(1.0046 -0.00346 -1.9426e-19)
(0.99881 -0.00027654 -1.7185e-20)
(0.99901 -0.0010755 -3.5347e-19)
(0.99941 -0.0019023 -1.0606e-19)
(1 -0.0028664 -6.4972e-19)
(1.0009 -0.0038022 1.0103e-18)
(1.0018 -0.0044518 -9.5167e-19)
(1.0027 -0.0048058 9.8403e-21)
(1.0036 -0.0049125 -1.5044e-18)
(1.0043 -0.0049345 -4.7239e-19)
(1.0049 -0.0045665 -2.2877e-18)
(1.0051 -0.0042806 -2.2612e-19)
(1.0047 -0.0034204 -1.8024e-19)
(0.99876 -0.00029188 3.4966e-20)
(0.99897 -0.0011432 -7.5853e-20)
(0.99939 -0.0020365 -1.6461e-19)
(1 -0.0030249 2.5537e-19)
(1.0009 -0.0039197 -8.6633e-19)
(1.0018 -0.004529 1.0088e-18)
(1.0027 -0.0048682 -8.6951e-19)
(1.0036 -0.0049694 2.0639e-19)
(1.0043 -0.0049782 -2.8793e-19)
(1.0049 -0.0046011 1.6717e-18)
(1.0052 -0.0042778 -6.8176e-19)
(1.0048 -0.0033849 4.0533e-19)
(0.9987 -0.0003117 -3.7918e-20)
(0.99893 -0.0012197 2.1109e-19)
(0.99936 -0.0021694 3.0649e-19)
(1 -0.0031657 3.0009e-19)
(1.0008 -0.0040212 -8.8928e-20)
(1.0017 -0.0046007 2.6517e-19)
(1.0026 -0.0049302 4.7596e-19)
(1.0036 -0.005027 9.6319e-19)
(1.0043 -0.0050229 2.9922e-19)
(1.0049 -0.0046363 -3.9282e-19)
(1.0052 -0.0042771 6.7144e-19)
(1.0049 -0.0033533 -2.3457e-19)
(0.99865 -0.00033478 -9.1231e-20)
(0.99888 -0.0013004 -2.612e-20)
(0.99933 -0.0022953 8.139e-20)
(1 -0.0032888 -2.1948e-19)
(1.0008 -0.0041101 1.1904e-18)
(1.0017 -0.0046687 -1.9628e-19)
(1.0026 -0.0049922 -7.9681e-19)
(1.0036 -0.0050854 4.051e-19)
(1.0043 -0.0050687 -1.1808e-19)
(1.005 -0.0046723 1.2226e-19)
(1.0053 -0.0042785 -1.5407e-19)
(1.005 -0.0033255 1.771e-19)
(0.99859 -0.00035977 6.0015e-20)
(0.99883 -0.0013811 -1.3129e-19)
(0.9993 -0.002411 2.387e-19)
(0.99997 -0.0033957 1.4209e-19)
(1.0008 -0.0041897 -8.8956e-19)
(1.0017 -0.0047345 -3.5606e-19)
(1.0026 -0.0050546 3.5607e-19)
(1.0036 -0.0051447 -6.6361e-19)
(1.0043 -0.0051156 -1.8826e-19)
(1.005 -0.0047092 -2.9734e-19)
(1.0053 -0.004282 2.0886e-19)
(1.0051 -0.0033011 3.3784e-21)
(0.99853 -0.00038536 9.1747e-20)
(0.99878 -0.0014586 4.7789e-20)
(0.99926 -0.0025147 -2.4852e-19)
(0.99994 -0.0034888 -2.1767e-19)
(1.0008 -0.0042626 -2.7717e-19)
(1.0017 -0.0047992 -7.265e-19)
(1.0026 -0.0051176 3.0889e-19)
(1.0036 -0.0052049 1.254e-19)
(1.0044 -0.0051637 2.3042e-19)
(1.005 -0.004747 6.4812e-21)
(1.0054 -0.0042877 -5.814e-21)
(1.0052 -0.00328 -1.3018e-19)
(0.99846 -0.00041049 -1.548e-19)
(0.99872 -0.0015308 2.5002e-20)
(0.99921 -0.0026065 -2.8704e-19)
(0.9999 -0.0035707 1.3006e-19)
(1.0007 -0.0043309 2.4645e-19)
(1.0016 -0.0048635 9.611e-19)
(1.0026 -0.0051814 5.4887e-19)
(1.0036 -0.0052661 -3.2553e-19)
(1.0044 -0.0052129 -4.4048e-20)
(1.005 -0.0047857 -5.3678e-20)
(1.0054 -0.0042953 -5.8059e-20)
(1.0053 -0.0032621 -1.142e-20)
(0.99839 -0.00043439 1.5484e-19)
(0.99866 -0.0015966 -2.3641e-19)
(0.99916 -0.0026875 4.2348e-19)
(0.99985 -0.0036441 -2.8962e-19)
(1.0007 -0.0043962 7.0638e-21)
(1.0016 -0.0049279 -6.5421e-19)
(1.0026 -0.0052462 -5.3817e-19)
(1.0036 -0.0053284 3.2771e-19)
(1.0044 -0.0052633 -4.6418e-19)
(1.0051 -0.0048254 2.3916e-19)
(1.0055 -0.0043051 -4.9062e-19)
(1.0054 -0.0032472 -2.4414e-19)
(0.99832 -0.00045661 -1.1891e-19)
(0.99859 -0.0016558 1.7223e-19)
(0.9991 -0.002759 7.0988e-20)
(0.9998 -0.0037112 -2.1527e-19)
(1.0006 -0.0044599 2.6728e-19)
(1.0016 -0.0049928 4.026e-19)
(1.0026 -0.0053119 -5.7806e-19)
(1.0036 -0.0053917 3.0873e-19)
(1.0044 -0.005315 5.6919e-19)
(1.0051 -0.0048662 -2.4306e-19)
(1.0055 -0.0043169 2.8266e-19)
(1.0055 -0.0032351 1.9315e-19)
(0.99825 -0.00047695 -4.9182e-20)
(0.99853 -0.0017088 1.8283e-19)
(0.99905 -0.002823 -7.4713e-19)
(0.99975 -0.0037739 3.6373e-19)
(1.0006 -0.0045227 -1.4603e-19)
(1.0016 -0.0050583 3.272e-19)
(1.0025 -0.0053787 7.6491e-19)
(1.0036 -0.0054561 -6.0446e-19)
(1.0044 -0.0053679 -6.0057e-19)
(1.0051 -0.0049081 6.0153e-19)
(1.0056 -0.0043307 1.6082e-19)
(1.0056 -0.0032258 6.08e-20)
(0.99817 -0.00049546 1.424e-19)
(0.99846 -0.0017564 -5.5934e-20)
(0.99898 -0.0028812 3.3994e-19)
(0.9997 -0.0038337 -4.5901e-20)
(1.0006 -0.0045854 -2.0143e-19)
(1.0015 -0.0051248 -7.9819e-19)
(1.0025 -0.0054467 -8.1301e-21)
(1.0036 -0.0055217 3.6637e-20)
(1.0044 -0.0054222 8.3017e-19)
(1.0052 -0.0049511 -9.8567e-20)
(1.0056 -0.0043465 9.2386e-20)
(1.0056 -0.003219 -2.4491e-20)
(0.99809 -0.0005123 2.2791e-20)
(0.99838 -0.0017996 4.1851e-20)
(0.99892 -0.0029351 4.9517e-19)
(0.99964 -0.0038919 9.0273e-20)
(1.0005 -0.0046484 3.1933e-19)
(1.0015 -0.0051922 2.2434e-19)
(1.0025 -0.0055158 2.1458e-19)
(1.0035 -0.0055884 -2.3974e-19)
(1.0045 -0.0054778 -2.3425e-19)
(1.0052 -0.0049953 -3.1864e-19)
(1.0057 -0.0043642 -3.071e-19)
(1.0057 -0.0032147 7.8669e-20)
(0.99801 -0.00052772 -5.5903e-20)
(0.99831 -0.0018393 -2.9526e-20)
(0.99885 -0.0029861 -4.7526e-19)
(0.99959 -0.0039492 9.4603e-20)
(1.0005 -0.004712 1.7194e-19)
(1.0015 -0.0052608 2.5739e-19)
(1.0025 -0.0055861 -7.1983e-19)
(1.0035 -0.0056564 4.4045e-19)
(1.0045 -0.0055348 -1.3371e-19)
(1.0052 -0.0050407 -4.1434e-19)
(1.0058 -0.004384 1.8049e-19)
(1.0058 -0.0032129 1.4027e-20)
(0.99793 -0.00054201 7.6144e-20)
(0.99823 -0.0018763 -7.932e-20)
(0.99879 -0.0030352 -1.6159e-19)
(0.99953 -0.0040064 -3.4336e-19)
(1.0004 -0.0047763 -6.096e-19)
(1.0014 -0.0053305 4.3889e-19)
(1.0025 -0.0056577 2.7639e-19)
(1.0035 -0.0057257 -2.6226e-20)
(1.0045 -0.0055932 3.9897e-19)
(1.0053 -0.0050874 4.5532e-19)
(1.0058 -0.0044057 -4.1576e-19)
(1.0059 -0.0032133 -8.6369e-20)
(0.99785 -0.00055545 -1.2317e-19)
(0.99816 -0.0019116 -1.5019e-19)
(0.99872 -0.0030833 1.5476e-19)
(0.99947 -0.0040637 3.1265e-19)
(1.0004 -0.0048417 -7.8508e-20)
(1.0014 -0.0054014 -7.2227e-19)
(1.0025 -0.0057305 4.867e-19)
(1.0035 -0.0057962 1.6212e-20)
(1.0045 -0.0056531 -5.1061e-19)
(1.0053 -0.0051354 3.9539e-19)
(1.0059 -0.0044294 3.5447e-19)
(1.006 -0.0032159 4.5205e-20)
(0.99776 -0.00056828 -1.4997e-20)
(0.99808 -0.0019458 -1.4832e-20)
(0.99864 -0.0031309 5.0755e-19)
(0.99941 -0.0041216 4.1192e-19)
(1.0003 -0.004908 6.8545e-19)
(1.0014 -0.0054735 -8.9471e-20)
(1.0025 -0.0058047 -1.4064e-19)
(1.0036 -0.0058681 8.8771e-20)
(1.0045 -0.0057145 4.2081e-19)
(1.0054 -0.0051848 -7.4813e-19)
(1.0059 -0.0044551 -2.653e-19)
(1.0061 -0.0032208 4.0745e-20)
(0.99767 -0.00058073 7.2593e-20)
(0.99799 -0.0019793 1.4164e-19)
(0.99857 -0.0031786 -6.7958e-19)
(0.99935 -0.0041802 -6.169e-19)
(1.0003 -0.0049755 1.2676e-20)
(1.0013 -0.0055469 -1.247e-19)
(1.0024 -0.0058802 1.8399e-19)
(1.0036 -0.0059413 -1.2366e-19)
(1.0046 -0.0057774 -4.4887e-19)
(1.0054 -0.0052356 1.8511e-19)
(1.006 -0.0044827 -8.9761e-20)
(1.0062 -0.0032277 -7.5841e-20)
(0.99759 -0.00059297 4.4463e-21)
(0.99791 -0.0020125 -9.7749e-20)
(0.9985 -0.0032265 2.9801e-19)
(0.99929 -0.0042397 5.8282e-19)
(1.0002 -0.0050441 -3.4868e-19)
(1.0013 -0.0056216 7.7549e-19)
(1.0024 -0.0059571 -2.1696e-19)
(1.0036 -0.0060159 2.9256e-19)
(1.0046 -0.0058419 -3.8943e-20)
(1.0054 -0.0052879 -1.9024e-19)
(1.0061 -0.0045122 1.1315e-19)
(1.0063 -0.0032366 1.6991e-19)
(0.9975 -0.00060513 -4.1985e-20)
(0.99783 -0.0020458 2.7198e-19)
(0.99842 -0.0032749 -3.0571e-19)
(0.99922 -0.0043001 -5.1329e-19)
(1.0002 -0.005114 6.4978e-19)
(1.0013 -0.0056977 5.2365e-20)
(1.0024 -0.0060354 -3.628e-19)
(1.0036 -0.006092 3.9761e-19)
(1.0046 -0.0059079 4.1735e-19)
(1.0055 -0.0053416 -9.2995e-20)
(1.0062 -0.0045437 1.969e-19)
(1.0064 -0.0032476 -1.5039e-19)
(0.9974 -0.00061732 -2.7419e-20)
(0.99774 -0.0020794 -1.4423e-19)
(0.99835 -0.0033241 1.4292e-19)
(0.99916 -0.0043616 -4.3152e-19)
(1.0001 -0.0051851 -3.1811e-19)
(1.0012 -0.0057751 -2.5955e-19)
(1.0024 -0.0061152 4.1159e-19)
(1.0036 -0.0061696 -5.7221e-19)
(1.0046 -0.0059756 4.2176e-21)
(1.0055 -0.0053968 7.4295e-19)
(1.0062 -0.004577 -9.7616e-20)
(1.0065 -0.0032605 9.5958e-21)
(0.99731 -0.00062963 4.4215e-20)
(0.99766 -0.0021134 -1.4835e-19)
(0.99827 -0.003374 4.9522e-19)
(0.99909 -0.0044241 3.6442e-19)
(1.0001 -0.0052574 -7.37e-20)
(1.0012 -0.005854 -2.7268e-19)
(1.0024 -0.0061964 -4.3093e-19)
(1.0036 -0.0062486 -5.3724e-20)
(1.0047 -0.0060449 -3.6884e-20)
(1.0056 -0.0054536 -4.9741e-19)
(1.0063 -0.0046124 -1.0353e-19)
(1.0066 -0.0032753 8.2879e-20)
(0.99722 -0.00064211 3.4784e-20)
(0.99757 -0.0021478 4.1735e-20)
(0.99819 -0.0034248 -5.2716e-19)
(0.99903 -0.0044878 -7.7978e-21)
(1 -0.0053311 -4.469e-19)
(1.0012 -0.0059343 4.0946e-19)
(1.0024 -0.0062792 2.5393e-19)
(1.0036 -0.0063292 6.8451e-20)
(1.0047 -0.0061159 -7.2346e-21)
(1.0056 -0.005512 -3.0233e-19)
(1.0064 -0.0046496 3.2429e-19)
(1.0067 -0.0032919 9.5643e-20)
(0.99712 -0.0006548 -9.6564e-21)
(0.99748 -0.0021829 1.4494e-19)
(0.99811 -0.0034766 5.0902e-19)
(0.99896 -0.0045527 -8.9899e-20)
(0.99998 -0.0054062 -4.0465e-20)
(1.0011 -0.006016 -5.8663e-21)
(1.0023 -0.0063635 1.341e-19)
(1.0036 -0.0064115 -5.3171e-19)
(1.0047 -0.0061887 -5.0297e-19)
(1.0057 -0.005572 2.6597e-19)
(1.0065 -0.0046888 -4.9286e-19)
(1.0068 -0.0033104 -2.2719e-19)
(0.99703 -0.00066773 -6.2854e-20)
(0.99739 -0.0022187 -1.0528e-19)
(0.99803 -0.0035292 -8.9108e-19)
(0.99889 -0.0046188 -8.6252e-21)
(0.99993 -0.0054826 2.1643e-19)
(1.0011 -0.0060993 -1.616e-20)
(1.0023 -0.0064495 3.9053e-19)
(1.0036 -0.0064953 2.8019e-19)
(1.0047 -0.0062632 4.756e-19)
(1.0057 -0.0056337 -2.7994e-19)
(1.0065 -0.0047299 3.0876e-19)
(1.0069 -0.0033308 7.0999e-20)
(0.99693 -0.00068094 7.4406e-20)
(0.99729 -0.0022551 1.5616e-19)
(0.99795 -0.0035829 8.7589e-19)
(0.99882 -0.0046861 1.4283e-19)
(0.99987 -0.0055604 6.495e-20)
(1.0011 -0.0061841 -2.168e-19)
(1.0023 -0.006537 -2.6732e-19)
(1.0036 -0.0065808 -1.212e-19)
(1.0048 -0.0063396 4.7563e-19)
(1.0058 -0.0056971 1.0546e-19)
(1.0066 -0.004773 -9.2847e-20)
(1.007 -0.0033528 -4.8594e-20)
(0.99683 -0.00069443 3.8974e-20)
(0.9972 -0.0022922 -2.1412e-19)
(0.99787 -0.0036377 -6.0766e-19)
(0.99875 -0.0047547 6.5426e-19)
(0.99982 -0.0056397 6.104e-20)
(1.001 -0.0062705 -1.5577e-19)
(1.0023 -0.0066263 -8.4277e-21)
(1.0036 -0.0066681 -3.0019e-20)
(1.0048 -0.0064177 -7.1058e-19)
(1.0058 -0.0057623 1.1488e-20)
(1.0067 -0.004818 2.6364e-19)
(1.0071 -0.0033767 1.4937e-19)
(0.99672 -0.00070822 -6.3578e-20)
(0.99711 -0.0023301 8.4523e-20)
(0.99778 -0.0036935 -6.9066e-20)
(0.99868 -0.0048245 -1.0226e-18)
(0.99976 -0.0057204 6.3179e-20)
(1.001 -0.0063585 2.3382e-19)
(1.0023 -0.0067173 -7.4974e-19)
(1.0036 -0.0067571 5.4587e-19)
(1.0048 -0.0064978 8.9296e-19)
(1.0059 -0.0058292 -1.6069e-20)
(1.0068 -0.004865 -3.5306e-19)
(1.0072 -0.0034023 -5.4146e-20)
(0.99662 -0.00072233 7.6169e-21)
(0.99701 -0.0023688 -1.1965e-19)
(0.9977 -0.0037503 1.4865e-19)
(0.99861 -0.0048957 5.6494e-19)
(0.99971 -0.0058027 3.4525e-19)
(1.0009 -0.0064481 -6.2096e-19)
(1.0023 -0.00681 3.2476e-19)
(1.0036 -0.0068479 -2.0144e-19)
(1.0049 -0.0065798 -2.1218e-19)
(1.0059 -0.005898 4.1236e-19)
(1.0069 -0.0049139 3.1379e-19)
(1.0073 -0.0034296 -8.5737e-20)
(0.99652 -0.00073675 8.0429e-21)
(0.99691 -0.0024083 2.9157e-20)
(0.99761 -0.0038083 1.83e-19)
(0.99854 -0.0049682 -2.3398e-19)
(0.99965 -0.0058865 -4.6554e-19)
(1.0009 -0.0065395 5.5379e-19)
(1.0022 -0.0069045 1.9694e-19)
(1.0036 -0.0069405 -1.323e-19)
(1.0049 -0.0066637 -8.5363e-19)
(1.006 -0.0059686 2.4864e-19)
(1.0069 -0.0049648 -4.91e-19)
(1.0074 -0.0034586 -6.9013e-20)
(0.99641 -0.00075151 9.4993e-21)
(0.99681 -0.0024485 5.3268e-20)
(0.99752 -0.0038674 -2.0879e-19)
(0.99846 -0.0050421 2.9089e-19)
(0.99959 -0.0059718 -2.3526e-19)
(1.0009 -0.0066325 1.4422e-19)
(1.0022 -0.0070009 2.2106e-19)
(1.0036 -0.0070351 5.4865e-19)
(1.0049 -0.0067496 8.058e-19)
(1.0061 -0.0060412 -4.4087e-19)
(1.007 -0.0050178 9.8687e-20)
(1.0075 -0.0034894 1.5329e-19)
(0.9963 -0.00076661 -2.0816e-20)
(0.99671 -0.0024897 1.1151e-19)
(0.99743 -0.0039277 3.3744e-19)
(0.99839 -0.0051174 -6.1359e-19)
(0.99954 -0.0060588 2.3486e-19)
(1.0008 -0.0067274 -5.6951e-19)
(1.0022 -0.0070991 -1.0974e-19)