/*--------------------------------*- C++ -*----------------------------------*\
  =========                 |
  \\      /  F ield         | OpenFOAM: The Open Source CFD Toolbox
   \\    /   O peration     | Website:  https://openfoam.org
    \\  /    A nd           | Version:  6.0
     \\/     M anipulation  |
\*---------------------------------------------------------------------------*/
FoamFile
{
    version     2.0;
    format      ascii;
    class       volVectorField;
    location    "1";
    object      U;
}
// * * * * * * * * * * * * * * * * * * * * * * * * * * * * * * * * * * * * * //

dimensions      [0 1 -1 0 0 0 0];

internalField   nonuniform List<vector> 
15000
(
(0.999994 4.1737e-06 -7.95966e-17)
(0.999947 -1.70837e-05 1.08393e-16)
(0.999864 -6.14091e-05 -1.90623e-16)
(0.999761 -0.000142642 2.10388e-16)
(0.999665 -0.000260708 -1.03816e-15)
(0.999611 -0.000393482 -6.15469e-16)
(0.999619 -0.000499337 6.30066e-16)
(0.99968 -0.000557784 -1.39589e-15)
(0.999791 -0.000516103 4.38115e-16)
(0.999893 -0.00044267 -3.22177e-16)
(1.00001 -8.18855e-05 -3.11712e-16)
(1.00136 0.00179996 -4.5904e-16)
(0.999988 1.16469e-05 1.16685e-16)
(0.999906 -3.23834e-05 -1.60392e-16)
(0.999756 -0.000117805 3.56199e-16)
(0.999569 -0.000278191 -8.89658e-17)
(0.999398 -0.000509231 4.62063e-16)
(0.999308 -0.000759393 6.22463e-16)
(0.999338 -0.000947369 -3.50509e-16)
(0.999463 -0.00104207 1.48302e-15)
(0.999675 -0.000942953 -3.11094e-16)
(0.999881 -0.00080018 1.59501e-17)
(0.999952 -0.000169923 8.14326e-17)
(1.00287 0.00258414 1.52867e-16)
(0.999986 1.84559e-05 -8.88759e-17)
(0.999916 -3.70982e-05 2.16116e-16)
(0.999784 -0.000128488 -1.23457e-16)
(0.999616 -0.000296796 4.51554e-16)
(0.999457 -0.00054107 2.51663e-16)
(0.999368 -0.000805803 2.31527e-16)
(0.999393 -0.00100637 5.18551e-16)
(0.999512 -0.00112181 -6.59307e-16)
(0.999709 -0.00105583 -3.67926e-16)
(0.999934 -0.00098071 -1.29923e-16)
(0.999802 -0.000547822 -2.90458e-17)
(1.00284 0.000922198 4.84617e-16)
(0.999984 2.39021e-05 -3.79497e-17)
(0.999928 -4.33775e-05 -2.04479e-16)
(0.999824 -0.000139324 -3.15812e-16)
(0.999692 -0.000306305 -2.23862e-16)
(0.999558 -0.000547405 -1.31146e-16)
(0.999474 -0.000809456 -9.06205e-16)
(0.999489 -0.00101393 -1.43566e-15)
(0.99959 -0.00114799 1.64037e-16)
(0.999756 -0.00112654 4.69454e-17)
(1 -0.00110541 6.45664e-16)
(0.999701 -0.000845078 -4.12264e-16)
(1.00235 -7.02518e-05 -5.68019e-16)
(0.99998 2.8001e-05 6.76076e-17)
(0.999927 -5.40864e-05 3.30092e-17)
(0.999835 -0.000163422 1.60046e-16)
(0.999725 -0.000340103 -7.56689e-17)
(0.999612 -0.000586316 2.07966e-16)
(0.99954 -0.000848004 1.87246e-16)
(0.999556 -0.00105197 1.45235e-15)
(0.999656 -0.0011874 -9.4898e-17)
(0.999813 -0.00117187 -2.79919e-16)
(1.00011 -0.00113632 7.60845e-17)
(0.999723 -0.000899926 2.84542e-16)
(1.00195 -0.000102776 -1.5065e-16)
(0.999974 3.08577e-05 3.91242e-18)
(0.99992 -6.75613e-05 -1.89959e-17)
(0.999832 -0.000194774 -2.13632e-17)
(0.999738 -0.000386277 -3.86884e-18)
(0.999647 -0.000638821 -8.63074e-16)
(0.999596 -0.000894731 1.05634e-15)
(0.999625 -0.00108545 2.9309e-17)
(0.999737 -0.00120249 1.46279e-16)
(0.999898 -0.00116169 6.91843e-16)
(1.00024 -0.0010826 -3.40545e-16)
(0.99984 -0.00082276 5.16407e-16)
(1.00168 4.85505e-05 3.45488e-16)
(0.999968 3.24056e-05 -3.5405e-18)
(0.999913 -8.28102e-05 2.04834e-16)
(0.999828 -0.000229118 -2.07782e-16)
(0.999747 -0.000436828 -1.01331e-16)
(0.999678 -0.000695454 4.4353e-16)
(0.99965 -0.000943341 -2.18203e-16)
(0.999696 -0.00111659 -6.04376e-16)
(0.999823 -0.00121246 -3.13565e-16)
(0.999988 -0.00114542 1.22206e-16)
(1.00036 -0.00103672 6.02306e-16)
(0.999995 -0.000782495 -1.21908e-15)
(1.0015 -1.18152e-05 3.17128e-16)
(0.999962 3.25654e-05 -5.22957e-17)
(0.999905 -9.98055e-05 7.93021e-17)
(0.999824 -0.000266039 2.39424e-16)
(0.99975 -0.000492013 4.53351e-16)
(0.999697 -0.000760417 2.41386e-16)
(0.999687 -0.00100638 -2.67876e-16)
(0.999747 -0.00117031 -2.91291e-16)
(0.999885 -0.00125684 -1.39636e-16)
(1.00005 -0.00118069 4.82495e-17)
(1.00046 -0.00106447 -1.30415e-16)
(1.00015 -0.000845238 1.04383e-15)
(1.00139 -0.000249709 -5.48881e-16)
(0.999954 3.13194e-05 2.05903e-17)
(0.999897 -0.000118463 -1.94741e-16)
(0.999819 -0.000304916 1.46117e-17)
(0.999748 -0.0005503 -7.23405e-17)
(0.999705 -0.000831836 7.30237e-17)
(0.999707 -0.00108232 -6.11477e-17)
(0.999777 -0.00124594 5.12353e-17)
(0.999924 -0.00133366 5.59171e-16)
(1.0001 -0.001262 -6.92724e-17)
(1.00053 -0.00114519 -7.90295e-16)
(1.00031 -0.000961093 -8.80663e-16)
(1.00136 -0.000496661 9.77148e-16)
(0.999947 2.86912e-05 7.31793e-17)
(0.99989 -0.000138503 4.8676e-18)
(0.999816 -0.000344315 1.84497e-16)
(0.99975 -0.000607503 -4.83802e-16)
(0.999715 -0.000901271 -1.15488e-16)
(0.999726 -0.00115678 5.22747e-16)
(0.999804 -0.00132157 -4.44047e-16)
(0.999962 -0.00141102 -6.69689e-16)
(1.00014 -0.00134478 2.05109e-16)
(1.0006 -0.00122011 2.05629e-16)
(1.00047 -0.00105478 6.54871e-16)
(1.00139 -0.000656902 -1.38258e-16)
(0.999938 2.47156e-05 -1.00372e-16)
(0.999884 -0.000159756 -2.31131e-17)
(0.999817 -0.000383427 -2.19885e-16)
(0.999758 -0.000661091 3.65918e-17)
(0.999733 -0.000963245 1.67327e-16)
(0.999755 -0.00122 -3.60755e-16)
(0.999843 -0.00138193 2.7103e-16)
(1.00001 -0.00146727 7.54606e-16)
(1.00019 -0.00139994 -5.62609e-16)
(1.00067 -0.00125851 2.24407e-16)
(1.00063 -0.00109952 -8.48415e-16)
(1.00147 -0.000744208 -9.06562e-16)
(0.999929 1.94646e-05 6.51618e-18)
(0.999879 -0.000182207 1.91985e-16)
(0.999821 -0.00042247 -1.92588e-16)
(0.999772 -0.000711567 1.48971e-16)
(0.999759 -0.00101854 -4.57891e-16)
(0.999793 -0.00127314 -2.04038e-16)
(0.999892 -0.00142861 6.64337e-17)
(1.00007 -0.00150515 -3.03059e-16)
(1.00026 -0.00143171 -3.94508e-16)
(1.00075 -0.00127177 3.63193e-16)
(1.0008 -0.00111817 2.85977e-16)
(1.00156 -0.000816963 1.0063e-17)
(0.99992 1.30553e-05 2.45181e-17)
(0.999874 -0.000205835 -1.91853e-17)
(0.999825 -0.000462016 5.30661e-16)
(0.999788 -0.00076074 1.53115e-16)
(0.999786 -0.00107079 2.61736e-16)
(0.999833 -0.00132252 -2.92604e-16)
(0.999943 -0.00147151 -1.47983e-16)
(1.00014 -0.00153939 1.20668e-16)
(1.00033 -0.00146036 4.65943e-16)
(1.00083 -0.00128702 -1.22021e-15)
(1.00095 -0.00114415 -4.87274e-16)
(1.00166 -0.000911071 5.44035e-16)
(0.999909 5.6542e-06 -7.57234e-17)
(0.999867 -0.000230493 -6.74062e-17)
(0.999827 -0.000502346 -4.19396e-16)
(0.999802 -0.000809893 -3.31472e-16)
(0.999812 -0.00112264 -2.3235e-16)
(0.999869 -0.00137266 3.65254e-16)
(0.999989 -0.00151784 2.51175e-16)
(1.00019 -0.00158063 -2.76724e-16)
(1.0004 -0.00150026 -3.71357e-16)
(1.0009 -0.00132023 -1.33052e-16)
(1.00108 -0.00119175 6.91941e-16)
(1.00175 -0.00102533 -4.8368e-16)
(0.999898 -2.5487e-06 4.07599e-17)
(0.999859 -0.000255919 3.22248e-17)
(0.999827 -0.000543334 4.954e-17)
(0.999813 -0.000859362 7.90592e-17)
(0.999834 -0.00117474 8.2215e-17)
(0.999901 -0.00142433 -1.48352e-16)
(1.00003 -0.00156846 7.7736e-18)
(1.00025 -0.00162987 -3.83315e-16)
(1.00046 -0.00155233 3.62907e-16)
(1.00097 -0.00136957 1.38336e-15)
(1.00121 -0.001254 -2.05811e-16)
(1.00184 -0.00114027 6.738e-16)
(0.999885 -1.13493e-05 -3.9357e-17)
(0.999849 -0.000281789 1.48724e-18)
(0.999825 -0.000584613 1.4785e-16)
(0.999821 -0.000908939 2.0912e-16)
(0.999853 -0.00122675 2.31367e-16)
(0.99993 -0.00147622 -1.50349e-16)
(1.00007 -0.00162057 -2.4213e-16)
(1.00029 -0.00168231 5.9214e-16)
(1.00052 -0.00160933 1.43396e-16)
(1.00103 -0.00142438 -1.49112e-15)
(1.00133 -0.00131699 2.35876e-16)
(1.00193 -0.00124183 2.2357e-17)
(0.999872 -2.05497e-05 9.00505e-17)
(0.999838 -0.000307773 3.30896e-17)
(0.99982 -0.000625755 -3.19579e-16)
(0.999825 -0.000958332 1.37952e-16)
(0.999869 -0.00127835 -5.61618e-17)
(0.999958 -0.00152733 3.67653e-16)
(1.00011 -0.00167166 6.25992e-16)
(1.00034 -0.00173345 1.05422e-16)
(1.00058 -0.0016645 5.11187e-16)
(1.0011 -0.00147625 1.23973e-15)
(1.00144 -0.00137247 1.43534e-15)
(1.00203 -0.00132795 -5.37984e-16)
(0.999858 -2.99601e-05 3.46117e-17)
(0.999825 -0.000333557 -2.74427e-17)
(0.999813 -0.000666323 3.03969e-16)
(0.999828 -0.00100726 -2.77333e-16)
(0.999883 -0.00132959 3.92652e-16)
(0.999984 -0.00157778 4.04208e-18)
(1.00014 -0.00172137 -4.06973e-16)
(1.00039 -0.00178212 1.28349e-16)
(1.00064 -0.00171583 -4.42608e-16)
(1.00117 -0.00152353 -2.16642e-16)
(1.00155 -0.00142089 -5.75709e-16)
(1.00212 -0.00140477 -1.06861e-16)
(0.999843 -3.94109e-05 -4.15081e-17)
(0.999811 -0.000358868 -2.3109e-16)
(0.999805 -0.000705901 -1.26517e-16)
(0.999828 -0.00105536 1.55318e-16)
(0.999894 -0.00138057 -2.82088e-17)
(1.00001 -0.00162826 -2.6223e-16)
(1.00018 -0.00177083 -5.4701e-17)
(1.00044 -0.00182981 -3.37867e-17)
(1.00071 -0.00176516 -5.3135e-16)
(1.00124 -0.00156903 -3.89817e-16)
(1.00166 -0.00146666 -1.7264e-15)
(1.00222 -0.0014779 1.02835e-15)
(0.999828 -4.875e-05 -3.95498e-17)
(0.999797 -0.000383483 2.40583e-16)
(0.999796 -0.000744108 -1.71777e-16)
(0.999826 -0.00110211 7.66907e-17)
(0.999903 -0.00143096 -1.88309e-16)
(1.00003 -0.00167905 -4.26703e-16)
(1.00021 -0.00182109 5.41336e-17)
(1.00049 -0.00187827 -6.91243e-17)
(1.00077 -0.00181488 2.87643e-16)
(1.00131 -0.00161575 4.47139e-16)
(1.00176 -0.00151326 1.54509e-15)
(1.00232 -0.00154985 -9.94778e-16)
(0.999811 -5.7849e-05 2.84474e-17)
(0.999782 -0.000407256 -1.12004e-17)
(0.999787 -0.000780673 2.72404e-17)
(0.999824 -0.00114696 -6.36034e-17)
(0.999911 -0.00148008 -2.36628e-16)
(1.00005 -0.00172969 -9.47658e-18)
(1.00025 -0.00187212 -1.25574e-16)
(1.00054 -0.00192799 -6.70886e-16)
(1.00084 -0.00186592 4.04314e-16)
(1.00138 -0.00166462 2.19013e-16)
(1.00187 -0.0015614 6.54031e-17)
(1.00241 -0.00162013 2.23682e-16)
(0.999794 -6.65941e-05 3.25393e-17)
(0.999766 -0.000430114 -2.63947e-16)
(0.999778 -0.0008155 5.16957e-16)
(0.999823 -0.00118953 4.92093e-17)
(0.999919 -0.00152719 1.43537e-16)
(1.00007 -0.00177924 8.70384e-16)
(1.00028 -0.00192306 7.15952e-16)
(1.00059 -0.00197831 3.62426e-16)
(1.0009 -0.00191775 -9.6059e-16)
(1.00145 -0.00171504 -2.80177e-16)
(1.00197 -0.00161054 9.27914e-17)
(1.00251 -0.00168871 -3.34249e-17)
(0.999775 -7.48864e-05 -6.09797e-17)
(0.99975 -0.000452061 1.05146e-16)
(0.99977 -0.000848705 -6.97045e-17)
(0.999823 -0.00122983 -8.85478e-17)
(0.999928 -0.00157196 -2.55364e-16)
(1.00009 -0.00182707 -5.054e-16)
(1.00032 -0.00197313 -2.74754e-16)
(1.00064 -0.00202847 -2.17959e-17)
(1.00096 -0.00196972 2.78385e-16)
(1.00152 -0.00176643 -2.65557e-16)
(1.00207 -0.00166053 -1.56815e-15)
(1.00261 -0.00175622 7.98107e-16)
(0.999756 -8.26303e-05 4.45234e-17)
(0.999733 -0.000473137 6.34446e-18)
(0.99976 -0.000880567 -1.89688e-16)
(0.999822 -0.00126828 -1.45123e-16)
(0.999938 -0.00161472 -8.05576e-17)
(1.00011 -0.00187325 -1.1911e-16)
(1.00035 -0.00202223 -2.17325e-16)
(1.00069 -0.00207841 -2.31917e-16)
(1.00103 -0.00202194 -6.76409e-17)
(1.0016 -0.0018191 -2.4642e-16)
(1.00216 -0.00171214 9.30382e-17)
(1.0027 -0.00182419 -1.58827e-16)
(0.999736 -8.97343e-05 1.52616e-17)
(0.999715 -0.000493396 1.49406e-16)
(0.999749 -0.00091144 4.09081e-17)
(0.999821 -0.00130557 -1.57151e-17)
(0.999948 -0.0016563 9.89258e-17)
(1.00014 -0.00191858 2.78093e-16)
(1.00039 -0.00207109 1.07071e-16)
(1.00074 -0.00212888 2.67872e-16)
(1.0011 -0.00207527 3.14107e-16)
(1.00167 -0.00187396 -3.06659e-16)
(1.00226 -0.0017663 1.00733e-15)
(1.0028 -0.00189302 -6.26923e-16)
(0.999715 -9.61058e-05 -2.06951e-17)
(0.999696 -0.000512867 -1.95469e-17)
(0.999737 -0.000941635 -1.47802e-16)
(0.999819 -0.00134242 -9.73099e-17)
(0.999957 -0.00169774 -3.48943e-17)
(1.00016 -0.00196417 -1.79114e-16)
(1.00042 -0.00212078 1.04281e-17)
(1.00079 -0.00218091 -3.11833e-16)
(1.00116 -0.00213069 -2.71076e-17)
(1.00174 -0.00193172 1.05385e-15)
(1.00235 -0.00182336 4.97582e-16)
(1.00289 -0.00196257 5.34867e-17)
(0.999693 -0.000101658 -9.84616e-18)
(0.999674 -0.000531549 -1.14683e-16)
(0.999721 -0.000971348 -5.05531e-17)
(0.999813 -0.0013794 -7.55551e-17)
(0.999963 -0.00173993 5.57973e-16)
(1.00018 -0.00201105 -1.29318e-16)
(1.00045 -0.00217222 1.53986e-16)
(1.00083 -0.00223522 -1.60051e-16)
(1.00123 -0.00218865 -2.55794e-16)
(1.00182 -0.00199232 -2.65749e-16)
(1.00245 -0.00188269 -1.9662e-17)
(1.00299 -0.00203158 -2.02807e-16)
(0.99967 -0.000106312 3.40935e-17)
(0.999652 -0.000549406 -4.0862e-17)
(0.999704 -0.00100062 1.71696e-16)
(0.999805 -0.00141676 3.46745e-16)
(0.999967 -0.00178335 -5.27609e-16)
(1.00019 -0.00205976 4.99543e-16)
(1.00049 -0.00222586 -2.76319e-16)
(1.00088 -0.00229199 -1.44349e-16)
(1.00129 -0.00224893 -1.94534e-16)
(1.00189 -0.00205509 -3.55866e-16)
(1.00254 -0.00194324 -1.51167e-16)
(1.00308 -0.00209917 -1.21735e-16)
(0.999646 -0.000110004 -5.82338e-18)
(0.999627 -0.000566386 -1.56723e-17)
(0.999684 -0.00102939 -1.57889e-17)
(0.999794 -0.00145447 -3.35661e-16)
(0.999968 -0.00182808 -1.4416e-16)
(1.00021 -0.0021104 -1.30578e-17)
(1.00052 -0.00228166 -3.90274e-16)
(1.00093 -0.00235091 7.19525e-16)
(1.00135 -0.00231092 -5.90454e-18)
(1.00196 -0.00211906 2.51414e-16)
(1.00263 -0.00200397 1.78361e-16)
(1.00318 -0.00216456 -5.50648e-18)
(0.999621 -0.000112686 -1.88939e-17)
(0.999602 -0.000582443 1.07907e-16)
(0.999663 -0.00105752 3.21461e-17)
(0.999781 -0.00149231 4.61354e-16)
(0.999967 -0.00187382 2.51851e-16)
(1.00022 -0.00216265 -4.2267e-16)
(1.00055 -0.00233924 1.91969e-16)
(1.00097 -0.00241147 -3.79112e-16)
(1.00142 -0.00237396 1.31317e-15)
(1.00204 -0.00218352 -1.02133e-16)
(1.00272 -0.00206441 2.25265e-17)
(1.00328 -0.002228 -1.41979e-16)
(0.999595 -0.000114335 -1.97151e-17)
(0.999576 -0.000597554 7.53868e-17)
(0.999641 -0.00108488 -9.05891e-17)
(0.999767 -0.00152996 -4.47772e-16)
(0.999964 -0.00192013 4.63811e-16)
(1.00023 -0.00221602 2.71413e-16)
(1.00057 -0.0023981 3.43385e-16)
(1.00102 -0.00247315 1.53707e-16)
(1.00148 -0.00243759 -1.0906e-16)
(1.00211 -0.00224815 5.48044e-16)
(1.00281 -0.00212452 -9.95247e-16)
(1.00337 -0.00228981 1.13015e-15)
(0.999568 -0.000114944 2.74716e-17)
(0.999549 -0.000611732 -1.44285e-16)
(0.999619 -0.00111141 -8.42693e-17)
(0.999752 -0.00156718 -2.68591e-17)
(0.999962 -0.00196655 -1.77393e-16)
(1.00025 -0.00226997 -5.03684e-18)
(1.0006 -0.00245774 -2.82279e-16)
(1.00106 -0.00253557 -2.13739e-16)
(1.00155 -0.0025016 -1.20633e-15)
(1.00219 -0.00231295 -3.98369e-16)
(1.00291 -0.00218461 -2.56494e-16)
(1.00347 -0.00235068 -3.02807e-17)
(0.99954 -0.000114525 1.05355e-17)
(0.999521 -0.000625027 -1.18626e-17)
(0.999597 -0.00113713 -4.26397e-17)
(0.999738 -0.00160384 3.25766e-16)
(0.999959 -0.00201281 -5.53285e-16)
(1.00026 -0.00232414 -4.10745e-16)
(1.00063 -0.00251782 3.53015e-16)
(1.00111 -0.00259854 -2.33842e-17)
(1.00161 -0.00256601 7.30711e-17)
(1.00227 -0.00237808 4.22269e-16)
(1.003 -0.00224497 -1.69039e-16)
(1.00357 -0.00241086 3.0655e-16)
(0.99951 -0.000113103 -1.51764e-17)
(0.999493 -0.000637519 1.70133e-16)
(0.999574 -0.00116218 2.88688e-16)
(0.999724 -0.00163999 -9.62163e-17)
(0.999957 -0.00205881 4.35931e-17)
(1.00027 -0.00237837 1.82494e-16)
(1.00066 -0.00257823 -4.21472e-16)
(1.00116 -0.00266203 4.43959e-16)
(1.00168 -0.00263094 3.45344e-16)
(1.00234 -0.00244381 -2.84709e-16)
(1.00309 -0.00230596 3.1929e-18)
(1.00366 -0.00247086 -1.91685e-17)
(0.99948 -0.000110714 -4.2953e-18)
(0.999465 -0.000649304 -2.47162e-16)
(0.999551 -0.00118673 -4.85267e-17)
(0.999709 -0.00167584 5.79869e-17)
(0.999955 -0.00210473 6.52749e-16)
(1.00028 -0.00243276 5.21355e-17)
(1.00069 -0.00263905 3.91345e-16)
(1.00121 -0.00272618 -7.25175e-16)
(1.00174 -0.00269663 3.6437e-16)
(1.00242 -0.00251038 -4.37976e-16)
(1.00318 -0.00236775 9.40893e-16)
(1.00376 -0.0025307 -4.70317e-16)
(0.999448 -0.000107398 2.14704e-17)
(0.999435 -0.00066048 1.0958e-16)
(0.999527 -0.00121097 -1.16412e-16)
(0.999694 -0.00171168 4.79387e-17)
(0.999952 -0.00215088 -3.92665e-16)
(1.0003 -0.00248762 -1.38305e-16)
(1.00072 -0.00270056 2.27161e-17)
(1.00125 -0.00279125 5.19645e-16)
(1.00181 -0.00276331 3.13829e-16)
(1.0025 -0.00257797 -2.1689e-17)
(1.00327 -0.00243045 1.23992e-15)
(1.00386 -0.00259055 -6.1545e-16)
(0.999415 -0.000103205 1.44341e-18)
(0.999404 -0.000671136 1.19604e-16)
(0.999502 -0.00123511 1.19526e-16)
(0.999678 -0.0017478 -1.44121e-17)
(0.999949 -0.00219763 2.87173e-16)
(1.00031 -0.00254333 3.71489e-16)
(1.00075 -0.00276309 -1.134e-16)
(1.0013 -0.0028575 5.22045e-16)
(1.00188 -0.00283118 -1.19857e-15)
(1.00258 -0.00264662 -1.3306e-16)
(1.00336 -0.00249395 -1.78502e-15)
(1.00396 -0.00265013 1.4201e-16)
(0.999381 -9.81882e-05 -6.22717e-17)
(0.999372 -0.000681342 7.44178e-17)
(0.999475 -0.00125925 -2.1272e-17)
(0.999661 -0.00178443 1.55228e-16)
(0.999945 -0.00224529 -2.1382e-16)
(1.00032 -0.00260022 -5.21329e-16)
(1.00078 -0.00282694 -4.01171e-17)
(1.00135 -0.00292515 -3.72108e-16)
(1.00194 -0.00290033 1.27679e-15)
(1.00266 -0.00271632 -4.30604e-17)
(1.00345 -0.00255815 3.8311e-16)
(1.00406 -0.00270942 7.1e-16)
(0.999345 -9.24084e-05 1.54858e-17)
(0.999339 -0.000691154 -3.1905e-16)
(0.999448 -0.00128347 1.09997e-16)
(0.999643 -0.00182167 -5.10337e-16)
(0.99994 -0.00229404 2.55427e-16)
(1.00033 -0.00265849 8.46045e-16)
(1.00081 -0.00289228 -2.19455e-16)
(1.0014 -0.00299428 -5.19884e-16)
(1.00201 -0.00297073 -4.06332e-16)
(1.00274 -0.00278692 -8.04216e-17)
(1.00355 -0.00262284 3.97155e-16)
(1.00415 -0.00276823 -6.49314e-16)
(0.999308 -8.59342e-05 3.55151e-17)
(0.999305 -0.000700617 9.26939e-17)
(0.999419 -0.00130779 -3.34045e-16)
(0.999623 -0.00185952 4.62818e-16)
(0.999934 -0.00234387 -6.96116e-16)
(1.00034 -0.00271814 -6.95643e-16)
(1.00084 -0.0029591 2.65299e-16)
(1.00144 -0.00306482 9.33435e-16)
(1.00207 -0.00304227 -5.26119e-16)
(1.00282 -0.00285827 2.11839e-16)
(1.00364 -0.0026879 -1.71391e-16)
(1.00425 -0.00282669 6.08289e-17)
(0.99927 -7.88429e-05 -6.04956e-18)
(0.999269 -0.000709778 2.00056e-16)
(0.999389 -0.00133219 2.66516e-16)
(0.999602 -0.0018979 -3.17351e-16)
(0.999926 -0.00239465 1.54442e-16)
(1.00035 -0.00277904 4.28535e-16)
(1.00087 -0.00302725 1.44168e-16)
(1.00149 -0.0031366 -9.6739e-17)
(1.00214 -0.00311477 7.37516e-16)
(1.0029 -0.00293021 3.75563e-16)
(1.00373 -0.00275324 7.07438e-17)
(1.00435 -0.00288475 6.41945e-17)
(0.99923 -7.12191e-05 1.36e-17)
(0.999232 -0.000718688 -2.23176e-16)
(0.999358 -0.00135665 -5.89781e-17)
(0.99958 -0.00193672 1.24286e-16)
(0.999918 -0.00244622 7.51638e-16)
(1.00036 -0.00284097 -3.85688e-16)
(1.00089 -0.00309652 -3.28726e-16)
(1.00154 -0.00320946 -7.47299e-17)
(1.00221 -0.00318813 -7.29504e-16)
(1.00298 -0.00300273 4.24489e-16)
(1.00382 -0.002819 -5.91385e-17)
(1.00445 -0.00294281 3.81949e-16)
(0.999189 -6.31542e-05 -1.07914e-17)
(0.999195 -0.000727417 1.39741e-16)
(0.999326 -0.00138122 -9.64502e-17)
(0.999558 -0.0019759 3.6205e-16)
(0.999909 -0.00249841 -7.06123e-16)
(1.00037 -0.00290374 4.9634e-16)
(1.00092 -0.00316675 -4.83105e-17)
(1.00158 -0.00328328 -5.04812e-17)
(1.00227 -0.00326233 7.54879e-16)
(1.00306 -0.0030759 -2.91231e-16)
(1.00391 -0.00288537 -2.38711e-16)
(1.00455 -0.00300107 -9.64663e-17)
(0.999147 -5.47423e-05 1.51895e-18)
(0.999156 -0.000736042 -2.6046e-17)
(0.999294 -0.00140594 1.17527e-16)
(0.999535 -0.00201547 -4.01583e-16)
(0.9999 -0.00255119 3.48633e-16)
(1.00037 -0.00296727 1.16705e-16)
(1.00095 -0.00323787 1.68144e-16)
(1.00163 -0.00335807 -8.78329e-16)
(1.00234 -0.00333746 -3.68722e-16)
(1.00314 -0.00314994 -1.32722e-15)
(1.004 -0.00295261 -6.94853e-16)
(1.00465 -0.00305991 -7.17994e-16)
(0.999103 -4.60789e-05 -1.97196e-17)
(0.999116 -0.000744655 1.80555e-17)
(0.99926 -0.00143093 -2.20234e-16)
(0.999512 -0.00205553 1.44836e-17)
(0.999891 -0.00260463 -8.85702e-17)
(1.00038 -0.00303162 5.27778e-18)
(1.00097 -0.00330997 3.10637e-16)
(1.00168 -0.00343395 1.18749e-15)
(1.00241 -0.00341371 1.03297e-16)
(1.00322 -0.00322502 8.28357e-16)
(1.0041 -0.00302088 -1.21776e-16)
(1.00475 -0.00311932 1.30323e-15)
(0.999058 -3.72571e-05 1.89731e-17)
(0.999075 -0.000753349 1.09623e-17)
(0.999226 -0.00145632 2.97632e-16)
(0.999487 -0.00209625 -1.74137e-16)
(0.999881 -0.00265892 -2.03975e-16)
(1.00039 -0.003097 -2.35676e-16)
(1.001 -0.00338324 -1.4301e-16)
(1.00172 -0.00351112 -4.76134e-16)
(1.00247 -0.00349128 8.57527e-17)
(1.0033 -0.00330135 8.23116e-16)
(1.00419 -0.00309035 8.00188e-16)
(1.00485 -0.00317946 -1.15754e-15)
(0.999012 -2.83662e-05 -1.93705e-17)
(0.999032 -0.00076221 -2.39679e-16)
(0.99919 -0.00148224 -1.27634e-16)
(0.999462 -0.00213782 2.9245e-17)
(0.99987 -0.00271429 5.11343e-16)
(1.0004 -0.00316364 -4.05635e-16)
(1.00103 -0.00345793 -3.62161e-16)
(1.00177 -0.0035898 -4.47919e-16)
(1.00254 -0.00357035 -5.37318e-16)
(1.00338 -0.00337903 -1.77857e-15)
(1.00428 -0.00316099 -5.95676e-16)
(1.00494 -0.00324013 5.86936e-16)
(0.998965 -1.94909e-05 9.69431e-18)
(0.998988 -0.000771316 2.00175e-16)
(0.999152 -0.0015088 6.03907e-17)
(0.999435 -0.00218041 3.72717e-16)
(0.999858 -0.00277098 -5.90206e-16)
(1.0004 -0.00323179 5.75565e-16)
(1.00105 -0.00353424 -6.87189e-18)
(1.00181 -0.00367016 1.05556e-15)
(1.0026 -0.00365101 3.81324e-16)
(1.00346 -0.00345805 2.31959e-15)
(1.00437 -0.0032327 3.31242e-16)
(1.00504 -0.00330124 5.47112e-16)
(0.998916 -1.0711e-05 -1.97928e-17)
(0.998943 -0.000780728 4.30012e-17)
(0.999113 -0.00153606 9.36799e-17)
(0.999406 -0.00222412 -1.45763e-16)
(0.999844 -0.00282914 5.04302e-16)
(1.00041 -0.00330162 -6.07258e-16)
(1.00108 -0.00361231 5.54664e-16)
(1.00186 -0.00375223 -1.42429e-16)
(1.00267 -0.00373321 2.32658e-16)
(1.00354 -0.00353825 -1.69169e-15)
(1.00446 -0.00330522 1.0067e-15)
(1.00514 -0.00336237 -1.22103e-15)
(0.998867 -2.10281e-06 2.12892e-17)
(0.998897 -0.000790497 -1.19039e-16)
(0.999073 -0.00156406 -1.73115e-16)
(0.999376 -0.00226901 -1.71211e-16)
(0.999829 -0.00288882 5.22432e-17)
(1.00041 -0.00337317 -1.59881e-16)
(1.0011 -0.00369213 -3.02127e-16)
(1.0019 -0.00383595 -6.7078e-16)
(1.00273 -0.00381681 -2.40397e-16)
(1.00362 -0.00361944 3.9539e-16)
(1.00455 -0.00337835 -9.88985e-16)
(1.00524 -0.00342345 7.0605e-16)
(0.998816 6.26131e-06 5.12976e-17)
(0.998849 -0.000800665 1.44748e-17)
(0.999031 -0.0015928 -4.60676e-17)
(0.999344 -0.00231501 1.2442e-16)
(0.999812 -0.00294995 -6.88676e-16)
(1.00041 -0.00344635 1.16615e-16)
(1.00112 -0.00377358 5.05571e-16)
(1.00194 -0.00392115 -2.82389e-16)
(1.0028 -0.00390159 9.49226e-17)
(1.0037 -0.00370137 -1.24491e-16)
(1.00465 -0.00345184 2.25752e-16)
(1.00534 -0.00348427 -5.32124e-16)
(0.998765 1.4311e-05 -3.34864e-17)
(0.9988 -0.000811272 7.35728e-17)
(0.998988 -0.00162224 -1.34668e-16)
(0.999311 -0.00236206 -8.07067e-17)
(0.999795 -0.00301241 5.12332e-16)
(1.00041 -0.00352098 2.11984e-16)
(1.00114 -0.00385646 -2.23839e-16)
(1.00199 -0.0040076 4.59385e-16)
(1.00286 -0.00398733 1.51325e-16)
(1.00378 -0.00378387 2.98794e-16)
(1.00474 -0.00352558 -3.08327e-16)
(1.00544 -0.00354491 -1.11891e-17)
(0.998713 2.19793e-05 -5.12835e-17)
(0.99875 -0.000822358 -2.67026e-17)
(0.998944 -0.00165236 1.38826e-16)
(0.999278 -0.00241003 1.22759e-16)
(0.999777 -0.00307601 1.59728e-16)
(1.00041 -0.00359685 4.32225e-16)
(1.00117 -0.00394051 -1.94038e-16)
(1.00203 -0.00409505 -8.6581e-17)
(1.00292 -0.00407382 -1.83589e-16)
(1.00386 -0.00386676 -6.71967e-18)
(1.00483 -0.00359947 6.6537e-18)
(1.00554 -0.00360526 3.89634e-16)
(0.998659 2.92022e-05 8.62777e-17)
(0.998699 -0.00083397 -1.39953e-17)
(0.998899 -0.00168317 1.60474e-16)
(0.999243 -0.00245887 -7.33398e-17)
(0.999758 -0.00314061 -1.40626e-16)
(1.00041 -0.00367376 -5.69055e-16)
(1.00119 -0.00402555 -3.44759e-16)
(1.00207 -0.00418337 2.2459e-16)
(1.00299 -0.00416097 3.53937e-17)
(1.00394 -0.00395005 5.3848e-17)
(1.00492 -0.00367359 8.34374e-17)
(1.00564 -0.0036656 3.48395e-17)
(0.998605 3.59215e-05 -8.60543e-17)
(0.998646 -0.000846161 1.31729e-16)
(0.998854 -0.00171467 -2.3626e-16)
(0.999208 -0.00250852 1.62642e-16)
(0.999738 -0.00320612 -3.7744e-18)
(1.00041 -0.00375158 3.86331e-16)
(1.00121 -0.00411146 3.36476e-16)
(1.00212 -0.00427245 -2.24813e-16)
(1.00305 -0.00424875 3.70058e-16)
(1.00402 -0.00403378 -2.40005e-16)
(1.00501 -0.00374805 7.17803e-16)
(1.00574 -0.00372602 7.29666e-16)
(0.99855 4.20852e-05 6.59481e-17)
(0.998593 -0.000858988 -9.53558e-17)
(0.998807 -0.00174692 -4.00845e-17)
(0.999173 -0.00255901 1.21074e-16)
(0.999718 -0.00327252 -1.52027e-16)
(1.00041 -0.00383031 -2.36559e-16)
(1.00123 -0.00419823 3.61458e-16)
(1.00216 -0.00436234 -2.11801e-16)
(1.00311 -0.00433725 -4.50611e-16)
(1.0041 -0.0041181 2.42564e-16)
(1.00511 -0.00382302 -4.12037e-16)
(1.00584 -0.00378682 -5.71677e-16)
(0.998495 4.76503e-05 2.74172e-17)
(0.998539 -0.000872506 -1.01412e-16)
(0.99876 -0.00177998 4.14584e-16)
(0.999137 -0.0026104 -2.02701e-16)
(0.999698 -0.00333987 8.28724e-17)
(1.00041 -0.00390998 -1.92327e-16)
(1.00125 -0.00428593 -4.75026e-16)
(1.0022 -0.00445313 4.12791e-16)
(1.00318 -0.00442659 4.75951e-16)
(1.00418 -0.00420312 -6.01175e-16)
(1.0052 -0.00389857 -2.34929e-16)
(1.00594 -0.00384788 -1.79249e-16)
(0.998438 5.2583e-05 -7.85857e-17)
(0.998484 -0.000886765 3.06289e-17)
(0.998711 -0.00181391 -1.87654e-16)
(0.999099 -0.00266278 2.56878e-17)
(0.999677 -0.00340827 1.1438e-16)
(1.00041 -0.00399072 4.67269e-16)
(1.00127 -0.00437469 5.05506e-18)
(1.00224 -0.00454496 -2.44188e-17)
(1.00324 -0.00451692 -6.54458e-16)
(1.00426 -0.00428901 9.61153e-17)
(1.00529 -0.00397485 -1.35576e-16)
(1.00604 -0.00390945 7.31008e-17)
(0.99838 5.68607e-05 -1.26893e-17)
(0.998428 -0.000901807 -2.33666e-17)
(0.998662 -0.00184879 -2.73856e-16)
(0.999061 -0.00271623 -5.00631e-17)
(0.999655 -0.00347783 -1.80023e-16)
(1.00041 -0.00407266 -1.30324e-16)
(1.00129 -0.00446463 -1.32971e-16)
(1.00228 -0.00463795 1.63469e-16)
(1.0033 -0.00460835 1.84078e-16)
(1.00433 -0.00437582 3.15162e-16)
(1.00538 -0.00405187 4.44848e-16)
(1.00613 -0.00397145 -2.31187e-16)
(0.998322 6.0471e-05 3.06862e-17)
(0.99837 -0.000917658 1.59536e-17)
(0.998611 -0.00188465 2.61465e-16)
(0.999022 -0.00277082 -5.25538e-17)
(0.999632 -0.00354864 -9.70025e-17)
(1.0004 -0.00415588 -1.49544e-16)
(1.00131 -0.00455588 4.43704e-16)
(1.00232 -0.00473221 -2.97704e-16)
(1.00336 -0.00470096 1.05241e-16)
(1.00441 -0.00446363 4.10531e-16)
(1.00548 -0.0041297 -2.61512e-16)
(1.00623 -0.00403402 -4.11401e-17)
(0.998262 6.34124e-05 -4.19577e-17)
(0.998311 -0.000934333 4.34249e-17)
(0.998559 -0.00192153 8.91156e-17)
(0.998982 -0.00282658 1.89949e-16)
(0.999608 -0.00362074 3.4244e-16)
(1.0004 -0.00424046 -2.55022e-16)
(1.00133 -0.00464846 -1.69215e-16)
(1.00236 -0.00482776 1.78526e-17)
(1.00342 -0.00479473 -3.12375e-16)
(1.00449 -0.00455236 -4.49952e-16)
(1.00557 -0.00420822 6.00328e-16)
(1.00633 -0.00409689 2.52832e-16)
(0.998202 6.56927e-05 6.75305e-17)
(0.998251 -0.000951834 8.25335e-17)
(0.998506 -0.0019594 -8.46507e-17)
(0.99894 -0.00288351 -1.72251e-16)
(0.999583 -0.00369413 4.48211e-17)
(1.00039 -0.00432637 4.1756e-16)
(1.00134 -0.00474237 -2.98222e-16)
(1.0024 -0.00492458 -1.0779e-17)
(1.00349 -0.00488968 3.98664e-16)
(1.00457 -0.00464204 -3.91092e-16)
(1.00566 -0.00428748 -5.09804e-16)
(1.00643 -0.00416026 -1.31241e-16)
(0.99814 6.7329e-05 8.35493e-18)
(0.998189 -0.000970151 8.45062e-18)
(0.998451 -0.00199827 -2.78534e-16)
(0.998897 -0.00294157 -2.27295e-16)
(0.999557 -0.00376877 -3.82607e-16)
(1.00039 -0.00441358 5.21408e-17)
(1.00136 -0.00483757 8.55321e-17)
(1.00244 -0.00502263 -5.9551e-17)
(1.00355 -0.00498572 -3.27514e-16)
(1.00465 -0.0047326 7.34536e-16)
(1.00575 -0.00436743 3.80989e-16)
(1.00653 -0.00422403 -1.18097e-16)
(0.998078 6.83465e-05 -3.9668e-17)
(0.998126 -0.000989268 -7.73444e-17)
(0.998395 -0.0020381 3.71313e-16)
(0.998853 -0.00300072 3.38354e-16)
(0.99953 -0.00384459 -7.44423e-18)
(1.00038 -0.00450202 7.24701e-17)
(1.00137 -0.00493399 -1.12567e-16)
(1.00248 -0.00512186 8.27598e-17)
(1.00361 -0.00508286 3.48673e-16)
(1.00473 -0.00482408 -1.8138e-16)
(1.00584 -0.00444815 1.29419e-16)
(1.00663 -0.00428845 2.19388e-16)
(0.998014 6.87778e-05 -2.48217e-18)
(0.998062 -0.00100916 5.35149e-17)
(0.998338 -0.00207885 -1.62567e-16)
(0.998807 -0.00306091 -3.19793e-16)
(0.999501 -0.00392154 1.93759e-16)
(1.00037 -0.00459162 -4.44605e-16)
(1.00139 -0.00503158 1.31446e-16)
(1.00251 -0.00522224 -1.95336e-16)
(1.00366 -0.00518105 3.09138e-17)
(1.0048 -0.00491645 1.86046e-16)
(1.00594 -0.00452959 -1.60528e-16)
(1.00673 -0.00435327 -4.88952e-16)
(0.997949 6.86626e-05 2.29309e-17)
(0.997997 -0.00102981 -1.48587e-16)
(0.998279 -0.00212051 1.66807e-16)
(0.99876 -0.0031221 2.80309e-16)
(0.999471 -0.00399957 -3.60689e-16)
(1.00036 -0.00468235 -3.05426e-17)
(1.0014 -0.0051303 2.19795e-16)
(1.00255 -0.00532377 -2.65438e-16)
(1.00372 -0.00528034 -3.21827e-16)
(1.00488 -0.0050098 9.11202e-17)
(1.00603 -0.0046119 -2.7973e-16)
(1.00683 -0.00441881 4.30673e-16)
(0.997883 6.80469e-05 1.50691e-17)
(0.99793 -0.00105118 7.83138e-17)
(0.998219 -0.00216303 -7.73966e-17)
(0.998712 -0.00318426 2.36219e-16)
(0.99944 -0.00407865 1.75285e-16)
(1.00035 -0.00477419 1.47694e-16)
(1.00141 -0.00523019 -2.48536e-16)
(1.00259 -0.00542649 3.78989e-16)
(1.00378 -0.00538078 -3.37524e-18)
(1.00496 -0.00510417 -7.22394e-16)
(1.00612 -0.00469508 1.38395e-16)
(1.00694 -0.00448491 -2.70995e-17)
(0.997816 6.69829e-05 -2.40222e-17)
(0.997862 -0.00107324 8.08995e-17)
(0.998158 -0.00220641 -2.69636e-16)
(0.998663 -0.0032474 -1.97901e-16)
(0.999408 -0.00415881 4.03042e-17)
(1.00034 -0.00486719 1.55306e-16)
(1.00142 -0.00533128 2.59611e-16)
(1.00262 -0.00553046 3.54526e-17)
(1.00384 -0.00548245 2.81088e-17)
(1.00503 -0.00519968 4.81045e-16)
(1.00621 -0.00477926 1.46626e-16)
(1.00704 -0.00455186 -2.35185e-16)
(0.997748 6.55271e-05 -1.89882e-17)
(0.997792 -0.00109594 -2.2448e-17)
(0.998095 -0.00225061 2.85794e-16)
(0.998612 -0.00331148 4.56887e-18)
(0.999375 -0.00424004 2.4648e-16)
(1.00033 -0.00496136 -2.32495e-16)
(1.00143 -0.00543363 -1.52268e-16)
(1.00265 -0.00563573 -4.52639e-17)
(1.0039 -0.00558536 5.4598e-18)
(1.00511 -0.00529626 2.92242e-16)
(1.0063 -0.0048643 -4.5631e-16)
(1.00714 -0.00461923 -2.7047e-16)
(0.997678 6.3741e-05 5.17789e-18)
(0.997721 -0.00111925 -7.88583e-17)
(0.99803 -0.0022956 -2.76459e-16)
(0.99856 -0.00337652 4.93123e-17)
(0.99934 -0.00432236 2.30485e-17)
(1.00031 -0.00505675 2.92985e-18)
(1.00144 -0.00553729 -8.04588e-17)
(1.00269 -0.00574234 3.50043e-16)
(1.00395 -0.00568958 3.8409e-16)
(1.00519 -0.00539399 -2.55711e-16)
(1.0064 -0.00495028 6.91268e-16)