/*--------------------------------*- C++ -*----------------------------------*\
  =========                 |
  \\      /  F ield         | OpenFOAM: The Open Source CFD Toolbox
   \\    /   O peration     | Website:  https://openfoam.org
    \\  /    A nd           | Version:  6.0
     \\/     M anipulation  |
\*---------------------------------------------------------------------------*/
FoamFile
{
    version     2.0;
    format      ascii;
    class       volVectorField;
    location    "1";
    object      U;
}
// * * * * * * * * * * * * * * * * * * * * * * * * * * * * * * * * * * * * * //

dimensions      [0 1 -1 0 0 0 0];

internalField   nonuniform List<vector> 
62000
(
(0.999862 -0.000225101 -1.39781e-19)
(0.999828 -0.00066404 4.98894e-19)
(0.999761 -0.00107978 -1.71909e-18)
(0.999666 -0.0014642 -3.38797e-19)
(0.999549 -0.00181116 -2.53723e-18)
(0.999414 -0.00211641 7.46674e-19)
(0.999268 -0.00237748 1.55916e-18)
(0.999116 -0.00259367 2.1922e-18)
(0.998964 -0.00276584 -3.57827e-18)
(0.998817 -0.00289619 -1.88033e-18)
(0.998678 -0.00298799 -4.89272e-19)
(0.998551 -0.00304529 -6.91351e-19)
(0.998439 -0.00307257 2.04145e-19)
(0.998342 -0.00307445 1.45069e-18)
(0.998261 -0.00305568 3.0771e-18)
(0.998198 -0.00302067 -3.28075e-18)
(0.998152 -0.00297329 1.10622e-18)
(0.998121 -0.00291724 -2.2758e-18)
(0.998105 -0.00285549 3.63904e-20)
(0.998103 -0.00279052 8.77955e-19)
(0.998113 -0.00272444 -1.67524e-18)
(0.998134 -0.0026586 -7.17519e-19)
(0.998164 -0.00259431 1.05397e-18)
(0.998201 -0.0025322 -2.08115e-18)
(0.998246 -0.00247287 1.22428e-18)
(0.998296 -0.00241648 -1.33032e-18)
(0.99835 -0.00236318 1.19124e-18)
(0.998408 -0.00231284 -2.394e-19)
(0.998469 -0.00226538 7.58481e-19)
(0.998531 -0.00222051 3.15263e-19)
(0.998595 -0.00217807 1.20097e-18)
(0.998659 -0.00213769 4.41445e-19)
(0.998724 -0.00209922 -9.97002e-20)
(0.998789 -0.00206228 -6.76086e-19)
(0.998853 -0.00202677 5.71981e-19)
(0.998917 -0.00199235 3.31201e-19)
(0.99898 -0.00195894 3.74031e-20)
(0.999042 -0.00192631 1.09442e-20)
(0.999103 -0.00189437 -6.68161e-19)
(0.999163 -0.00186303 3.67328e-20)
(0.999221 -0.00183216 -1.7208e-19)
(0.999278 -0.00180181 -1.355e-19)
(0.999333 -0.00177186 2.85693e-19)
(0.999387 -0.00174242 -2.46582e-19)
(0.999439 -0.00171349 -6.46607e-20)
(0.999489 -0.00168513 8.91472e-20)
(0.999538 -0.00165749 1.4644e-19)
(0.999585 -0.00163063 -1.44871e-20)
(0.99963 -0.00160478 5.30029e-20)
(0.999673 -0.00158011 1.44565e-19)
(0.999715 -0.00155687 1.2704e-19)
(0.999755 -0.00153538 7.94359e-20)
(0.999794 -0.00151593 7.87322e-20)
(0.999831 -0.00149903 -3.20305e-20)
(0.999867 -0.00148519 5.95969e-20)
(0.999901 -0.0014751 2.71705e-21)
(0.999934 -0.00146973 -2.16949e-20)
(0.999966 -0.00147042 -2.31659e-20)
(0.999995 -0.00147942 1.88874e-20)
(1.00003 -0.00150069 7.90295e-23)
(0.999599 -0.000211043 2.43494e-19)
(0.999575 -0.000623017 -2.10304e-19)
(0.999522 -0.00101408 -5.85929e-19)
(0.999445 -0.00137699 -4.49388e-19)
(0.999347 -0.00170628 6.85292e-19)
(0.999235 -0.00199806 1.30886e-18)
(0.999113 -0.00225005 -1.45604e-18)
(0.998985 -0.00246148 3.64389e-19)
(0.998857 -0.00263295 -2.84873e-18)
(0.998732 -0.00276626 3.52349e-18)
(0.998614 -0.00286415 8.46124e-19)
(0.998506 -0.00293008 -8.9047e-20)
(0.99841 -0.00296791 -2.66916e-19)
(0.998328 -0.00298159 6.13534e-19)
(0.99826 -0.00297547 -4.04383e-19)
(0.998207 -0.00295339 8.10627e-19)
(0.998169 -0.00291865 3.48581e-18)
(0.998145 -0.00287495 4.06414e-18)
(0.998134 -0.00282477 -2.57314e-18)
(0.998135 -0.00277045 -2.56171e-18)
(0.998147 -0.00271417 5.72239e-19)
(0.99817 -0.0026569 -5.40455e-19)
(0.998201 -0.00260037 -1.70335e-18)
(0.998239 -0.00254485 3.77735e-18)
(0.998284 -0.00249131 -2.16383e-19)
(0.998334 -0.00243973 7.45049e-20)
(0.998388 -0.00239052 -2.19875e-18)
(0.998445 -0.0023435 1.00505e-18)
(0.998506 -0.00229878 -8.82896e-19)
(0.998568 -0.00225603 -1.68378e-18)
(0.998631 -0.00221527 -3.90434e-19)
(0.998696 -0.00217608 -8.38799e-19)
(0.998761 -0.00213851 1.29018e-18)
(0.998826 -0.00210204 5.60884e-19)
(0.99889 -0.00206684 -1.35062e-18)
(0.998954 -0.00203236 -1.22553e-18)
(0.999018 -0.00199878 1.34549e-19)
(0.99908 -0.00196573 3.77089e-19)
(0.999142 -0.00193325 9.3706e-19)
(0.999202 -0.00190122 -4.207e-19)
(0.99926 -0.00186952 -9.51904e-20)
(0.999318 -0.00183829 1.90368e-19)
(0.999373 -0.00180728 4.31258e-19)
(0.999427 -0.00177678 1.99812e-19)
(0.99948 -0.00174668 -2.60081e-19)
(0.99953 -0.0017171 -4.26763e-20)
(0.999579 -0.00168822 1.41805e-19)
(0.999626 -0.00166001 2.85577e-20)
(0.999671 -0.00163284 -7.6103e-20)
(0.999714 -0.00160679 5.71226e-20)
(0.999756 -0.00158215 7.4665e-21)
(0.999795 -0.00155927 2.1743e-20)
(0.999833 -0.00153838 -1.3888e-19)
(0.99987 -0.00152007 4.12867e-20)
(0.999904 -0.00150477 -9.43796e-20)
(0.999937 -0.00149315 -6.67463e-20)
(0.999968 -0.00148613 1.01139e-20)
(0.999996 -0.00148472 -4.40611e-20)
(1.00002 -0.00149037 -2.91763e-20)
(1.00006 -0.0015041 5.20881e-21)
(0.999352 -0.000198855 3.55323e-19)
(0.999336 -0.000587361 -7.3249e-19)
(0.999295 -0.000956766 1.46225e-18)
(0.999233 -0.00130067 6.10801e-19)
(0.999154 -0.00161427 1.87608e-18)
(0.99906 -0.00189407 -3.77891e-19)
(0.998958 -0.00213796 1.38957e-18)
(0.998851 -0.00234512 -1.15138e-18)
(0.998743 -0.00251598 7.48276e-19)
(0.998638 -0.00265198 2.23423e-18)
(0.998538 -0.00275542 -5.5705e-19)
(0.998447 -0.00282923 9.56096e-19)
(0.998366 -0.00287672 -2.04864e-18)
(0.998297 -0.00290124 -5.33381e-19)
(0.998241 -0.00290683 -2.82409e-19)
(0.998197 -0.00289676 -7.83571e-19)
(0.998167 -0.00287384 -1.42642e-18)
(0.99815 -0.00284175 -3.79473e-18)
(0.998144 -0.0028025 4.51861e-18)
(0.99815 -0.00275834 2.01918e-19)
(0.998165 -0.00271144 1.1183e-18)
(0.99819 -0.00266245 1.10993e-18)
(0.998223 -0.00261346 1.44138e-18)
(0.998263 -0.0025644 -5.08123e-18)
(0.998308 -0.00251656 2.44502e-18)
(0.998359 -0.00246976 -4.73985e-19)
(0.998414 -0.00242466 4.6925e-20)
(0.998472 -0.00238099 5.35178e-19)
(0.998533 -0.00233905 6.7982e-19)
(0.998595 -0.00229847 1.52787e-18)
(0.998659 -0.00225946 1.19573e-18)
(0.998724 -0.00222151 5.08573e-19)
(0.99879 -0.00218489 -6.97355e-19)
(0.998855 -0.00214893 -5.27363e-19)
(0.998921 -0.00211405 1.96108e-18)
(0.998986 -0.00207953 -9.52231e-19)
(0.99905 -0.00204579 1.67612e-19)
(0.999113 -0.00201231 -7.13193e-19)
(0.999175 -0.00197926 -8.85617e-20)
(0.999236 -0.0019465 2.65455e-19)
(0.999296 -0.00191391 3.97332e-19)
(0.999354 -0.00188172 7.18538e-20)
(0.99941 -0.00184958 -4.39251e-19)
(0.999465 -0.00181792 2.42041e-19)
(0.999518 -0.00178653 4.65045e-19)
(0.999569 -0.00175561 -3.20716e-21)
(0.999618 -0.00172535 8.06424e-20)
(0.999665 -0.00169565 -2.44384e-19)
(0.999711 -0.00166701 3.53784e-19)
(0.999754 -0.00163941 -2.12007e-19)
(0.999795 -0.0016132 -1.64782e-19)
(0.999835 -0.00158875 -1.30832e-19)
(0.999872 -0.0015662 5.15849e-21)
(0.999908 -0.00154624 -9.19829e-20)
(0.999941 -0.00152922 9.42387e-20)
(0.999973 -0.00151576 -6.59937e-20)
(1 -0.0015067 -3.04475e-20)
(1.00003 -0.00150275 9.78196e-20)
(1.00005 -0.00150486 1.85826e-21)
(1.00011 -0.00151304 1.26815e-20)
(0.99912 -0.000188359 1.70999e-19)
(0.999111 -0.000556571 9.57828e-20)
(0.999081 -0.000907072 -2.8533e-19)
(0.999032 -0.00123423 -5.75787e-19)
(0.998968 -0.00153391 -4.68403e-20)
(0.998892 -0.00180297 6.7392e-19)
(0.998808 -0.00203948 -1.05929e-18)
(0.998719 -0.00224264 6.87426e-19)
(0.99863 -0.00241272 1.13087e-18)
(0.998542 -0.00255086 -2.85852e-18)
(0.998459 -0.002659 -3.56438e-18)
(0.998384 -0.00273964 1.45938e-18)
(0.998317 -0.00279559 1.28269e-18)
(0.99826 -0.00282969 1.48714e-18)
(0.998215 -0.00284571 -2.19572e-18)
(0.998181 -0.00284644 3.68905e-19)
(0.998159 -0.00283419 1.36474e-18)
(0.998148 -0.00281268 2.14641e-18)
(0.998148 -0.00278346 -1.45522e-18)
(0.998158 -0.00274866 1.91587e-18)
(0.998177 -0.0027105 7.46503e-19)
(0.998205 -0.00266927 -1.63049e-18)
(0.99824 -0.0026274 -1.92983e-18)
(0.998282 -0.00258449 2.17414e-18)
(0.998329 -0.00254212 4.30958e-19)
(0.998381 -0.00249995 2.56401e-18)
(0.998437 -0.00245885 -4.35199e-19)
(0.998496 -0.00241847 -1.07905e-18)
(0.998557 -0.0023793 -4.0222e-19)
(0.998621 -0.0023409 8.70881e-19)
(0.998686 -0.00230367 -1.66131e-18)
(0.998751 -0.00226699 2.75098e-20)
(0.998818 -0.00223137 6.67293e-19)
(0.998884 -0.00219596 2.17683e-19)
(0.998951 -0.00216147 -6.68033e-21)
(0.999016 -0.00212695 7.39435e-19)
(0.999081 -0.00209308 8.99387e-19)
(0.999146 -0.0020592 -3.46832e-19)
(0.999209 -0.0020256 3.57185e-19)
(0.999271 -0.00199214 -1.82048e-18)
(0.999331 -0.00195866 9.65799e-20)
(0.99939 -0.00192553 3.17714e-19)
(0.999447 -0.00189223 6.28417e-20)
(0.999502 -0.00185941 -2.5157e-20)
(0.999556 -0.00182672 -3.55314e-19)
(0.999608 -0.00179442 -2.55897e-19)
(0.999657 -0.00176273 -5.09337e-19)
(0.999705 -0.00173148 3.58552e-19)
(0.999751 -0.0017013 -1.26584e-19)
(0.999794 -0.00167208 -2.04423e-19)
(0.999836 -0.0016442 4.04606e-19)
(0.999875 -0.00161805 -1.56674e-19)
(0.999912 -0.00159371 6.36859e-20)
(0.999947 -0.00157195 1.94513e-19)
(0.99998 -0.00155303 6.47649e-20)
(1.00001 -0.00153751 1.43558e-21)
(1.00004 -0.00152618 -6.87806e-20)
(1.00006 -0.00151951 -1.06074e-19)
(1.00008 -0.00151819 3.18787e-20)
(1.00015 -0.00152209 -1.56791e-20)
(0.9989 -0.000179344 1.09405e-20)
(0.998898 -0.000530063 4.88413e-19)
(0.998877 -0.000864117 9.48178e-19)
(0.998841 -0.00117657 8.03076e-19)
(0.99879 -0.00146392 -3.40208e-18)
(0.99873 -0.00172339 1.19353e-18)
(0.998662 -0.00195323 -2.09839e-20)
(0.99859 -0.00215268 -1.45466e-18)
(0.998517 -0.00232186 -3.68855e-19)
(0.998445 -0.00246173 1.5397e-18)
(0.998378 -0.00257389 -5.68287e-19)
(0.998317 -0.00266047 2.19959e-19)
(0.998263 -0.00272386 2.70348e-18)
(0.998219 -0.00276646 -4.23816e-18)
(0.998184 -0.0027918 1.67984e-18)
(0.99816 -0.00280224 -4.30823e-19)
(0.998145 -0.00279965 5.46821e-19)
(0.998141 -0.00278778 2.56603e-19)
(0.998147 -0.00276776 -2.5258e-19)
(0.998161 -0.00274162 -3.66672e-18)
(0.998185 -0.0027116 1.90019e-19)
(0.998215 -0.00267762 -1.5404e-19)
(0.998253 -0.00264248 8.71396e-19)
(0.998297 -0.00260539 -5.69801e-19)
(0.998346 -0.00256827 -8.8185e-19)
(0.998399 -0.00253055 -4.69646e-18)
(0.998457 -0.00249334 1.71839e-19)
(0.998517 -0.00245617 3.31129e-18)
(0.99858 -0.00241973 -6.35039e-19)
(0.998644 -0.00238349 2.08092e-18)
(0.99871 -0.00234805 -4.29368e-19)
(0.998777 -0.00231265 -8.34888e-19)
(0.998845 -0.00227806 7.12257e-19)
(0.998912 -0.00224322 -1.54836e-18)
(0.99898 -0.00220915 -6.84901e-20)
(0.999046 -0.00217465 -4.72819e-19)
(0.999113 -0.00214068 -1.71595e-18)
(0.999178 -0.00210642 1.30301e-18)
(0.999242 -0.00207229 -1.35773e-18)
(0.999305 -0.00203813 2.06931e-18)
(0.999366 -0.00200377 -7.66337e-19)
(0.999426 -0.00196968 -1.02143e-18)
(0.999484 -0.00193521 -1.94386e-19)
(0.99954 -0.00190119 1.51949e-19)
(0.999595 -0.00186716 9.742e-19)
(0.999647 -0.00183344 -3.2717e-19)
(0.999697 -0.00180028 5.30441e-19)
(0.999746 -0.00176743 -3.83198e-19)
(0.999792 -0.00173563 -3.27406e-19)
(0.999835 -0.0017047 2.21385e-19)
(0.999877 -0.00167505 5.24614e-20)
(0.999916 -0.0016471 -3.66257e-19)
(0.999953 -0.00162084 -1.19112e-19)
(0.999987 -0.00159713 4.69291e-20)
(1.00002 -0.00157613 -2.63671e-19)
(1.00005 -0.00155838 2.06762e-19)
(1.00007 -0.00154461 6.3996e-20)
(1.0001 -0.00153514 3.76033e-20)
(1.00012 -0.0015306 1.59783e-20)
(1.0002 -0.00153084 1.1472e-20)
(0.99869 -0.000171643 -3.864e-19)
(0.998695 -0.000507356 -2.50926e-19)
(0.998683 -0.000827151 -1.56693e-18)
(0.998657 -0.00112672 -1.85395e-18)
(0.99862 -0.00140321 2.76482e-18)
(0.998573 -0.00165416 5.16364e-19)
(0.99852 -0.00187801 1.36644e-18)
(0.998463 -0.00207404 7.80355e-19)
(0.998405 -0.00224232 2.58845e-18)
(0.998348 -0.00238359 -5.5811e-19)
(0.998295 -0.00249921 3.85511e-18)
(0.998247 -0.00259099 -7.67401e-18)
(0.998206 -0.00266096 2.77522e-19)
(0.998173 -0.00271111 4.11738e-18)
(0.998148 -0.00274482 -8.57849e-19)
(0.998133 -0.00276402 3.06523e-18)
(0.998126 -0.00277019 -3.41744e-18)
(0.998129 -0.00276714 -1.73252e-18)
(0.99814 -0.00275557 2.46363e-18)
(0.99816 -0.00273742 2.40756e-18)
(0.998187 -0.00271498 1.5503e-18)
(0.998221 -0.00268777 -4.02597e-18)
(0.998262 -0.00265898 -1.56219e-18)
(0.998308 -0.00262741 1.47721e-18)
(0.99836 -0.00259529 1.62308e-18)
(0.998415 -0.00256185 1.44902e-18)
(0.998474 -0.0025284 1.10881e-18)
(0.998536 -0.00249436 -5.90588e-19)
(0.9986 -0.0024606 1.77021e-18)
(0.998666 -0.00242648 -5.66712e-19)
(0.998733 -0.00239281 -7.60102e-19)
(0.998802 -0.0023587 -1.13121e-18)
(0.99887 -0.00232514 -1.08778e-18)
(0.998939 -0.00229089 -1.9603e-18)
(0.999008 -0.00225725 -5.26002e-19)
(0.999076 -0.00222278 1.13312e-18)
(0.999143 -0.00218873 1.70174e-18)
(0.99921 -0.00215409 -3.59161e-19)
(0.999275 -0.00211943 1.37252e-18)
(0.999339 -0.00208457 -3.99055e-19)
(0.999402 -0.00204931 1.35301e-18)
(0.999462 -0.00201426 -2.24796e-20)
(0.999522 -0.00197859 -8.72719e-19)
(0.999579 -0.00194335 -7.81762e-19)
(0.999634 -0.00190794 2.72791e-19)
(0.999687 -0.00187275 1.04829e-19)
(0.999738 -0.00183806 -8.93663e-20)
(0.999787 -0.00180352 -3.65459e-19)
(0.999833 -0.00177004 -1.17757e-19)
(0.999877 -0.0017373 3.23099e-19)
(0.999919 -0.00170579 1.34821e-19)
(0.999958 -0.00167593 1.95639e-19)
(0.999994 -0.00164762 -3.02997e-21)
(1.00003 -0.00162183 -3.88044e-19)
(1.00006 -0.00159862 2.13136e-19)
(1.00009 -0.00157848 -2.37202e-19)
(1.00011 -0.00156217 -2.38795e-21)
(1.00013 -0.00154986 -1.00573e-20)
(1.00015 -0.00154221 -2.38389e-20)
(1.00025 -0.00153917 -3.2487e-21)
(0.998491 -0.000165107 3.58652e-19)
(0.998501 -0.00048803 1.27108e-19)
(0.998497 -0.000795531 1.17342e-18)
(0.998481 -0.00108388 -2.12955e-19)
(0.998455 -0.00135083 5.36665e-20)
(0.998421 -0.00159423 -2.82888e-18)
(0.998381 -0.00181274 -3.47894e-18)
(0.998338 -0.00200569 2.37606e-18)
(0.998294 -0.00217308 -6.17787e-18)
(0.998251 -0.00231553 2.11863e-18)
(0.998211 -0.00243417 -3.77801e-18)
(0.998175 -0.00253054 1.09089e-18)
(0.998146 -0.00260637 1.50464e-18)
(0.998123 -0.00266326 2.72313e-18)
(0.998108 -0.0027045 -1.5229e-18)
(0.998101 -0.00273164 -9.50771e-19)
(0.998102 -0.00274575 -8.84094e-19)
(0.998111 -0.00275078 -3.27987e-19)
(0.998128 -0.00274699 -3.31571e-19)
(0.998153 -0.00273623 1.57676e-18)
(0.998185 -0.00272084 -4.69339e-18)
(0.998223 -0.00269997 4.08771e-18)
(0.998267 -0.00267716 2.6165e-18)
(0.998316 -0.00265081 -4.69003e-18)
(0.99837 -0.00262347 6.00144e-19)
(0.998428 -0.00259411 -3.09277e-19)
(0.998489 -0.00256428 1.04498e-18)
(0.998552 -0.00253327 -4.05463e-19)
(0.998618 -0.00250211 -6.16222e-19)
(0.998686 -0.00247008 -1.10163e-18)
(0.998755 -0.00243815 4.56537e-19)
(0.998825 -0.00240531 2.38091e-18)
(0.998895 -0.00237278 2.50378e-18)
(0.998965 -0.00233911 3.31557e-18)
(0.999035 -0.00230591 -1.96231e-18)
(0.999105 -0.00227147 2.04181e-20)
(0.999174 -0.00223734 9.03502e-19)
(0.999241 -0.00220232 -7.3161e-19)
(0.999308 -0.00216712 -2.07593e-19)
(0.999373 -0.00213155 -1.55968e-18)
(0.999437 -0.00209537 -4.10493e-19)
(0.999499 -0.00205933 7.1326e-19)
(0.999559 -0.00202243 1.51233e-19)
(0.999617 -0.00198593 1.35553e-18)
(0.999673 -0.00194909 -1.09755e-19)
(0.999727 -0.00191238 -6.33614e-19)
(0.999779 -0.0018761 -4.11497e-19)
(0.999828 -0.00183981 6.55073e-19)
(0.999875 -0.00180457 -1.81744e-19)
(0.999919 -0.00176994 -3.66412e-19)
(0.999961 -0.00173646 2.53271e-20)
(1 -0.00170459 4.29363e-20)
(1.00004 -0.00167411 3.72918e-19)
(1.00007 -0.00164611 -7.20771e-20)
(1.0001 -0.00162056 -1.85103e-19)
(1.00013 -0.00159792 5.69858e-19)
(1.00015 -0.00157898 -1.50026e-19)
(1.00017 -0.0015638 1.05991e-19)
(1.00019 -0.00155311 -4.27086e-20)
(1.0003 -0.00154692 -2.19584e-20)
(0.9983 -0.000159618 -4.3895e-19)
(0.998315 -0.000471738 2.8611e-19)
(0.998318 -0.000768707 -5.60631e-19)
(0.998311 -0.00104732 1.14431e-18)
(0.998295 -0.00130595 1.10027e-18)
(0.998272 -0.00154272 1.97182e-19)
(0.998245 -0.0017565 3.46805e-18)
(0.998214 -0.0019467 -2.36897e-18)
(0.998183 -0.00211328 2.80022e-18)
(0.998152 -0.00225675 -5.27067e-18)
(0.998124 -0.00237805 4.34559e-18)
(0.998101 -0.00247852 1.04105e-18)
(0.998082 -0.00255957 -1.68505e-19)
(0.998069 -0.00262252 -4.1176e-18)
(0.998064 -0.00267056 8.93331e-20)
(0.998065 -0.00270492 1.5849e-18)
(0.998074 -0.00272627 1.1875e-18)
(0.998089 -0.0027387 -4.99512e-19)
(0.998112 -0.00274208 5.28833e-19)
(0.998142 -0.00273817 1.08189e-18)
(0.998179 -0.00272936 1.16819e-18)
(0.998221 -0.0027144 -3.73981e-18)
(0.998268 -0.00269723 6.58328e-19)
(0.998321 -0.0026758 -4.2624e-20)
(0.998377 -0.002653 1.6482e-18)
(0.998437 -0.00262755 -2.46318e-18)
(0.998501 -0.0026012 -2.60994e-18)
(0.998567 -0.0025731 -1.91496e-18)
(0.998635 -0.00254448 2.47589e-19)
(0.998704 -0.00251447 -8.87694e-19)
(0.998775 -0.00248424 -7.25525e-19)
(0.998846 -0.00245264 -2.42257e-18)
(0.998918 -0.00242113 -3.06136e-18)
(0.99899 -0.00238802 -2.9494e-19)
(0.999062 -0.00235526 9.24374e-20)
(0.999133 -0.00232083 1.05719e-18)
(0.999203 -0.00228661 -1.62482e-18)
(0.999273 -0.0022512 -1.18261e-18)
(0.999341 -0.00221545 -1.05864e-18)
(0.999407 -0.00217914 4.71771e-19)
(0.999472 -0.00214202 -3.60324e-19)
(0.999536 -0.00210497 -5.61559e-19)
(0.999597 -0.0020668 3.98179e-20)
(0.999656 -0.002029 -1.71298e-19)
(0.999713 -0.00199069 -1.01072e-18)
(0.999768 -0.00195239 -3.43338e-19)
(0.999821 -0.00191447 1.36347e-18)
(0.999871 -0.00187635 -1.0871e-18)
(0.999918 -0.00183927 4.77934e-19)
(0.999963 -0.00180266 1.05279e-18)
(1 -0.00176713 -3.26141e-19)
(1.00004 -0.00173314 3.68496e-20)
(1.00008 -0.00170038 1.75983e-19)
(1.00011 -0.00167005 4.59122e-19)
(1.00014 -0.00164204 -2.09951e-20)
(1.00017 -0.00161679 -2.51575e-19)
(1.00019 -0.00159512 2.8668e-20)
(1.00021 -0.00157703 9.86621e-20)
(1.00023 -0.00156332 -3.88817e-20)
(1.00035 -0.00155404 -2.09502e-20)
(0.998116 -0.000155069 1.55195e-19)
(0.998136 -0.000458173 1.47647e-19)
(0.998146 -0.000746201 8.30863e-19)
(0.998147 -0.00101644 4.12848e-19)
(0.99814 -0.00126784 -1.04258e-18)
(0.998128 -0.00149884 4.97848e-18)
(0.998111 -0.00170847 -6.35905e-18)
(0.998092 -0.00189625 2.78657e-18)
(0.998073 -0.00206213 -1.74862e-18)
(0.998054 -0.00220652 2.40831e-19)
(0.998037 -0.00233021 1.38599e-18)
(0.998024 -0.00243436 -1.83048e-18)
(0.998016 -0.00252013 -1.56044e-18)
(0.998013 -0.00258854 -3.3036e-18)
(0.998016 -0.00264276 -3.71455e-18)
(0.998025 -0.00268369 -1.28262e-18)
(0.998041 -0.00271165 8.16304e-19)
(0.998064 -0.0027309 1.46039e-18)
(0.998092 -0.00274089 -4.66894e-18)
(0.998128 -0.00274332 3.11716e-18)
(0.998169 -0.00274065 3.67534e-19)
(0.998215 -0.00273122 3.11939e-18)
(0.998266 -0.00271936 2.31381e-18)
(0.998322 -0.00270258 2.86877e-18)
(0.998381 -0.0026841 -3.07601e-18)
(0.998444 -0.00266236 -2.18061e-18)
(0.99851 -0.00263935 1.78791e-18)
(0.998579 -0.00261405 2.0885e-18)
(0.998649 -0.00258787 -1.64945e-18)
(0.998721 -0.00255981 -7.27075e-19)
(0.998793 -0.00253125 4.68979e-18)
(0.998867 -0.00250084 -8.28291e-19)
(0.998941 -0.00247032 9.97008e-19)
(0.999014 -0.00243775 -8.63358e-19)
(0.999088 -0.0024054 -2.49393e-19)
(0.99916 -0.00237097 4.73581e-19)
(0.999233 -0.00233665 1.3253e-18)
(0.999303 -0.00230082 -8.06528e-20)
(0.999373 -0.00226451 1.00729e-18)
(0.999441 -0.00222744 2.90084e-19)
(0.999508 -0.00218934 4.49037e-19)
(0.999572 -0.00215124 -1.75561e-19)
(0.999635 -0.00211176 -8.65879e-19)
(0.999695 -0.00207262 -6.06717e-19)
(0.999754 -0.00203278 1.93029e-18)
(0.999809 -0.00199284 -4.62609e-19)
(0.999863 -0.00195321 -3.48796e-19)
(0.999914 -0.00191319 -3.67043e-19)
(0.999962 -0.00187418 -2.26869e-19)
(1.00001 -0.00183551 7.33991e-20)
(1.00005 -0.00179782 -3.39056e-19)
(1.00009 -0.00176161 -3.19906e-19)
(1.00012 -0.00172646 -2.38452e-19)
(1.00016 -0.0016937 -1.5811e-19)
(1.00019 -0.00166312 2.66804e-19)
(1.00021 -0.00163515 -1.46882e-19)
(1.00024 -0.00161067 -1.62522e-19)
(1.00026 -0.00158961 1.47825e-19)
(1.00027 -0.00157285 -3.70434e-21)
(1.0004 -0.00156046 2.98294e-20)
(0.997938 -0.000151372 -1.42532e-19)
(0.997962 -0.000447081 -1.14461e-18)
(0.997979 -0.000727607 -1.2402e-18)
(0.997987 -0.000990692 -3.62078e-19)
(0.997989 -0.00123589 -1.86258e-18)
(0.997987 -0.00146188 -4.20252e-18)
(0.99798 -0.00166793 2.57243e-18)
(0.997972 -0.00185363 3.32565e-20)
(0.997963 -0.00201894 -1.02285e-19)
(0.997955 -0.0021642 3.88782e-19)
(0.997949 -0.00229007 -3.86199e-18)
(0.997946 -0.00239756 1.21806e-18)
(0.997947 -0.00248761 -1.45882e-18)
(0.997953 -0.00256098 5.39079e-18)
(0.997965 -0.00262084 8.41055e-18)
(0.997982 -0.00266778 1.03649e-18)
(0.998005 -0.00270181 8.89833e-20)
(0.998034 -0.00272734 -6.82195e-20)
(0.998069 -0.00274344 9.75176e-19)
(0.998109 -0.00275176 -3.16653e-18)
(0.998155 -0.00275482 -3.51515e-19)
(0.998205 -0.00275056 2.82585e-18)
(0.998261 -0.00274371 -5.30641e-18)
(0.99832 -0.00273131 7.23878e-19)
(0.998383 -0.00271693 -1.05911e-18)
(0.998449 -0.00269872 6.35507e-18)
(0.998518 -0.0026789 -1.14013e-18)
(0.998589 -0.00265628 -8.85477e-19)
(0.998661 -0.00263245 1.02837e-19)
(0.998735 -0.00260627 2.06308e-18)
(0.99881 -0.00257931 -1.02135e-18)
(0.998886 -0.00255004 -1.77289e-18)
(0.998962 -0.00252049 9.02311e-19)
(0.999037 -0.00248842 -2.14986e-18)
(0.999113 -0.00245647 2.93452e-18)
(0.999187 -0.002422 9.34681e-19)
(0.999261 -0.00238756 -1.52266e-18)
(0.999334 -0.00235128 3.68497e-19)
(0.999405 -0.00231437 1.53064e-18)
(0.999475 -0.00227651 7.79499e-20)
(0.999543 -0.00223741 -1.19454e-18)
(0.999609 -0.00219822 1.60883e-18)
(0.999673 -0.00215737 -1.64827e-18)
(0.999735 -0.00211684 1.54781e-18)
(0.999794 -0.00207542 -1.6007e-18)
(0.999851 -0.00203378 1.2172e-19)
(0.999906 -0.00199236 2.92437e-19)
(0.999957 -0.00195037 1.17239e-18)
(1.00001 -0.00190936 8.10284e-19)
(1.00005 -0.00186854 -1.37518e-18)
(1.00009 -0.00182859 1.57498e-19)
(1.00013 -0.00179006 3.09608e-19)
(1.00017 -0.00175241 -1.32747e-18)
(1.0002 -0.00171711 8.73277e-19)
(1.00023 -0.00168385 -2.66342e-20)
(1.00026 -0.00165307 3.27707e-20)
(1.00028 -0.00162569 1.88174e-19)
(1.0003 -0.00160159 -4.446e-19)
(1.00031 -0.00158172 9.73905e-20)
(1.00046 -0.00156616 3.19375e-20)
(0.997766 -0.000148449 5.25952e-19)
(0.997795 -0.000438231 7.03272e-19)
(0.997816 -0.000712567 -9.78918e-19)
(0.997832 -0.00096962 6.98164e-19)
(0.997842 -0.00120953 1.7944e-18)
(0.997848 -0.00143126 1.93058e-18)
(0.997851 -0.00163425 -6.44574e-19)
(0.997853 -0.0018182 -1.82595e-19)
(0.997854 -0.00198309 1.87185e-18)
(0.997856 -0.0021292 -4.90503e-19)
(0.997859 -0.00225711 3.5272e-18)
(0.997866 -0.00236766 -1.19375e-18)
(0.997876 -0.00246163 1.98049e-18)
(0.997891 -0.00253953 -2.32476e-18)
(0.997911 -0.00260457 -1.98148e-18)
(0.997935 -0.00265704 -1.14841e-18)
(0.997965 -0.00269663 4.84612e-18)
(0.998001 -0.00272798 3.67457e-19)
(0.998041 -0.00274975 -2.05192e-18)
(0.998087 -0.00276354 3.69018e-18)
(0.998138 -0.00277197 7.84658e-19)
(0.998193 -0.00277253 -4.2425e-18)
(0.998252 -0.0027704 3.88227e-18)
(0.998315 -0.00276214 2.17126e-18)
(0.998382 -0.00275164 2.7612e-18)
(0.998451 -0.00273678 -3.32497e-18)
(0.998523 -0.00272001 -1.54286e-19)
(0.998596 -0.00269995 -3.66088e-18)
(0.998672 -0.00267837 3.88004e-18)
(0.998748 -0.00265398 -1.68497e-18)
(0.998826 -0.00262856 2.325e-19)
(0.998904 -0.00260039 -1.18784e-18)
(0.998982 -0.00257175 -1.3484e-18)
(0.99906 -0.00254015 2.45951e-18)
(0.999137 -0.00250856 -6.97707e-19)
(0.999214 -0.00247402 -1.87821e-18)
(0.99929 -0.00243942 -5.54008e-19)
(0.999364 -0.00240267 1.6784e-18)
(0.999437 -0.00236513 9.41595e-19)
(0.999509 -0.00232645 -3.26343e-19)
(0.999579 -0.00228629 1.29143e-18)
(0.999646 -0.00224598 -1.61307e-18)
(0.999712 -0.00220371 8.89952e-19)
(0.999775 -0.00216174 3.40779e-19)
(0.999836 -0.00211867 3.4355e-19)
(0.999894 -0.00207527 -1.41216e-18)
(0.999949 -0.002032 1.00477e-18)
(1 -0.00198794 -2.00849e-18)
(1.00005 -0.00194486 1.36003e-20)
(1.0001 -0.00190179 1.14032e-18)
(1.00014 -0.0018595 3.83997e-19)
(1.00018 -0.00181855 6.13412e-19)
(1.00022 -0.00177829 1.06123e-18)
(1.00025 -0.00174035 -1.15732e-18)
(1.00028 -0.0017043 4.53982e-19)
(1.0003 -0.0016706 2.11485e-19)
(1.00033 -0.00164023 -2.15053e-20)
(1.00034 -0.00161299 1.49843e-19)
(1.00036 -0.00158993 -2.29302e-19)
(1.00051 -0.0015711 -1.06726e-20)
(0.997598 -0.000146235 -7.13515e-19)
(0.997631 -0.000431438 -4.74077e-19)
(0.997658 -0.000700777 1.53658e-18)
(0.99768 -0.00095282 1.12307e-18)
(0.997698 -0.00118831 -7.18777e-19)
(0.997712 -0.00140644 -7.5449e-19)
(0.997724 -0.00160687 2.30875e-18)
(0.997734 -0.0017894 5.29414e-19)
(0.997745 -0.00195404 1.2038e-18)
(0.997756 -0.00210102 1.3064e-18)
(0.997769 -0.00223085 -3.98251e-18)
(0.997784 -0.00234426 6.85826e-18)
(0.997804 -0.00244185 -1.59148e-18)
(0.997826 -0.0025239 4.40351e-18)
(0.997854 -0.00259372 -3.72622e-18)
(0.997886 -0.0026513 2.9718e-18)
(0.997923 -0.00269602 -5.5511e-18)
(0.997964 -0.00273278 3.4826e-18)
(0.998011 -0.00275981 -7.29322e-19)
(0.998062 -0.0027787 -6.06043e-18)
(0.998118 -0.00279215 2.96741e-18)
(0.998177 -0.00279723 -7.4555e-19)
(0.998241 -0.00279955 -9.22554e-19)
(0.998308 -0.00279518 2.58299e-20)
(0.998378 -0.00278838 -3.79715e-18)
(0.998451 -0.0027767 -1.43802e-19)
(0.998526 -0.00276283 4.77541e-19)
(0.998602 -0.0027452 2.82326e-18)
(0.998681 -0.00272577 -4.37932e-18)
(0.99876 -0.00270309 1.44945e-18)
(0.99884 -0.00267914 -1.46836e-18)
(0.99892 -0.002652 -1.76872e-19)
(0.999001 -0.00262423 -7.77885e-19)
(0.999081 -0.00259304 1.5451e-18)
(0.999161 -0.00256178 -5.47204e-19)
(0.99924 -0.00252713 1.30481e-18)
(0.999318 -0.00249235 -1.012e-19)
(0.999394 -0.00245508 -1.22856e-18)
(0.999469 -0.00241686 5.47137e-20)
(0.999543 -0.00237731 2.82647e-19)
(0.999614 -0.00233606 -6.50318e-19)
(0.999684 -0.00229457 -8.22583e-20)
(0.999751 -0.00225084 3.47485e-19)
(0.999815 -0.00220737 2.18517e-18)
(0.999878 -0.00216259 -6.3667e-19)
(0.999937 -0.00211735 3.36555e-20)
(0.999993 -0.00207217 3.22449e-19)
(1.00005 -0.00202597 2.65306e-19)
(1.0001 -0.00198072 -7.02995e-19)
(1.00014 -0.00193532 -5.02897e-20)
(1.00019 -0.00189058 -4.71818e-19)
(1.00023 -0.00184712 -8.38894e-19)
(1.00026 -0.00180415 -1.40443e-19)
(1.0003 -0.00176346 1.07771e-18)
(1.00033 -0.00172452 -2.43785e-19)
(1.00035 -0.00168779 -3.58331e-19)
(1.00037 -0.00165432 -8.96411e-21)
(1.00039 -0.00162386 -5.49714e-20)
(1.0004 -0.0015975 1.36284e-19)
(1.00057 -0.0015753 1.62458e-20)
(0.997435 -0.000144672 8.41514e-19)
(0.997472 -0.000426527 7.95355e-19)
(0.997504 -0.000691968 -1.57648e-19)
(0.997532 -0.000939943 -1.35852e-18)
(0.997556 -0.00117179 -1.37392e-18)
(0.997578 -0.00138696 -1.61693e-18)
(0.997598 -0.00158531 -6.38307e-19)
(0.997617 -0.00176674 -1.51424e-18)
(0.997636 -0.00193129 1.76553e-18)
(0.997656 -0.00207919 -1.62682e-18)
(0.997677 -0.00221087 5.61775e-18)
(0.997702 -0.00232697 -5.07972e-18)
(0.997729 -0.00242793 -1.04257e-18)
(0.99776 -0.00251384 1.32238e-18)
(0.997795 -0.00258809 1.81574e-18)
(0.997834 -0.00265042 -2.53081e-18)
(0.997877 -0.00269989 3.49941e-18)
(0.997925 -0.00274168 1.48516e-18)
(0.997978 -0.00277361 -1.09077e-18)
(0.998034 -0.00279727 2.83567e-18)
(0.998095 -0.00281544 2.41249e-18)
(0.998159 -0.00282475 -2.70598e-18)
(0.998227 -0.00283127 -2.35277e-18)
(0.998298 -0.00283056 2.95732e-18)
(0.998372 -0.00282726 4.00606e-18)
(0.998448 -0.00281859 -1.91914e-19)
(0.998526 -0.00280748 2.4041e-18)
(0.998606 -0.00279216 7.6956e-20)
(0.998688 -0.00277479 -1.11973e-18)
(0.99877 -0.00275373 -6.05623e-19)
(0.998853 -0.00273118 4.52576e-18)
(0.998936 -0.002705 -1.03145e-18)
(0.999019 -0.00267805 2.35277e-18)
(0.999102 -0.00264721 6.66138e-19)
(0.999184 -0.00261624 -3.22562e-18)
(0.999265 -0.00258143 1.96551e-18)
(0.999346 -0.00254642 -5.15438e-19)
(0.999424 -0.00250858 8.94272e-19)
(0.999501 -0.00246966 -8.67188e-19)
(0.999577 -0.0024292 -3.81194e-18)
(0.99965 -0.00238679 -1.32257e-18)
(0.999721 -0.00234409 1.05281e-18)
(0.99979 -0.00229882 9.4618e-19)
(0.999856 -0.00225379 6.61675e-19)
(0.99992 -0.00220724 -4.12766e-19)
(0.999981 -0.0021601 1.56167e-18)
(1.00004 -0.00211292 -9.25038e-19)
(1.00009 -0.0020645 1.44389e-18)
(1.00014 -0.00201701 -3.79885e-19)
(1.00019 -0.00196918 -7.69664e-19)
(1.00024 -0.0019219 9.84654e-19)
(1.00028 -0.00187582 -3.3215e-19)
(1.00031 -0.00183004 -6.46067e-19)
(1.00035 -0.00178648 -5.53516e-19)
(1.00038 -0.00174454 5.52834e-20)
(1.0004 -0.00170468 2.34129e-20)
(1.00042 -0.00166801 1.37079e-19)
(1.00044 -0.0016342 2.14381e-19)
(1.00045 -0.00160444 -6.89922e-20)
(1.00063 -0.00157874 5.34037e-20)
(0.997275 -0.000143712 -3.48492e-19)
(0.997315 -0.000423364 -6.2492e-19)
(0.997352 -0.000685914 1.08854e-19)
(0.997386 -0.000930683 5.65842e-19)
(0.997417 -0.00115963 7.72423e-19)
(0.997446 -0.00137242 2.54799e-18)
(0.997473 -0.00156913 -2.71498e-18)
(0.9975 -0.00174976 -7.4472e-19)
(0.997527 -0.00191442 -3.01683e-18)
(0.997555 -0.00206331 1.78078e-18)
(0.997585 -0.0021968 -2.83986e-18)
(0.997617 -0.00231547 4.00588e-18)
(0.997652 -0.0024196 -3.2542e-18)
(0.997691 -0.0025091 -2.97589e-18)
(0.997733 -0.0025875 -6.58424e-19)
(0.997779 -0.00265426 3.06206e-18)
(0.997829 -0.00270814 -4.88179e-18)
(0.997883 -0.00275463 -1.97445e-18)
(0.997941 -0.00279115 -1.49001e-19)
(0.998003 -0.00281926 8.36086e-19)
(0.998069 -0.00284187 -3.07e-18)
(0.998138 -0.00285514 1.84158e-18)
(0.998211 -0.00286564 2.31549e-18)
(0.998286 -0.00286839 1.73219e-18)
(0.998364 -0.0028684 -2.06242e-18)
(0.998444 -0.00286257 -3.50667e-18)
(0.998525 -0.00285409 -2.59078e-18)
(0.998609 -0.00284096 1.37831e-19)
(0.998693 -0.00282554 2.65903e-18)
(0.998779 -0.00280601 1.16645e-18)
(0.998865 -0.00278479 -9.60838e-19)
(0.99895 -0.0027595 8.88295e-19)
(0.999036 -0.0027333 1.27167e-18)
(0.999122 -0.00270277 -3.37162e-18)
(0.999207 -0.00267203 1.14476e-18)
(0.99929 -0.00263702 -1.63576e-18)
(0.999373 -0.00260173 1.83127e-18)
(0.999454 -0.00256328 3.6122e-19)
(0.999533 -0.00252359 -2.54615e-19)
(0.999611 -0.00248217 2.51994e-18)
(0.999686 -0.00243856 -1.0135e-18)
(0.999759 -0.00239458 5.14409e-19)
(0.99983 -0.00234772 -3.00806e-19)
(0.999898 -0.00230108 5.61146e-19)
(0.999963 -0.00225268 -7.06327e-19)
(1.00002 -0.00220356 -1.6276e-18)
(1.00008 -0.00215431 3.30005e-19)
(1.00014 -0.00210359 3.7256e-19)
(1.00019 -0.00205376 1.20226e-18)
(1.00024 -0.00200341 -2.93101e-19)
(1.00029 -0.0019535 -1.07047e-18)
(1.00033 -0.0019047 2.66468e-19)
(1.00036 -0.001856 8.23362e-20)
(1.0004 -0.00180948 9.84796e-19)
(1.00043 -0.00176443 -5.50355e-19)
(1.00045 -0.00172132 5.68444e-19)