/*--------------------------------*- C++ -*----------------------------------*\
  =========                 |
  \\      /  F ield         | OpenFOAM: The Open Source CFD Toolbox
   \\    /   O peration     | Website:  https://openfoam.org
    \\  /    A nd           | Version:  6.0
     \\/     M anipulation  |
\*---------------------------------------------------------------------------*/
FoamFile
{
    version     2.0;
    format      ascii;
    class       volVectorField;
    location    "1";
    object      U;
}
// * * * * * * * * * * * * * * * * * * * * * * * * * * * * * * * * * * * * * //

dimensions      [0 1 -1 0 0 0 0];

internalField   nonuniform List<vector> 
24000
(
(0.999995 -5.6305e-06 -7.95931e-17)
(0.999952 -2.33421e-05 1.08361e-16)
(0.999879 -6.2953e-05 -1.90519e-16)
(0.9998 -0.000130022 2.10228e-16)
(0.999738 -0.000214388 -1.0371e-15)
(0.999712 -0.000297623 -6.1478e-16)
(0.999723 -0.000366752 6.29442e-16)
(0.999772 -0.000400225 -1.39468e-15)
(0.999851 -0.000374368 4.37796e-16)
(0.999944 -0.000269754 -3.21866e-16)
(1.00002 4.80571e-05 -3.11309e-16)
(1.00119 0.00130711 -4.61409e-16)
(0.99999 -1.37469e-05 1.1668e-16)
(0.999915 -5.10806e-05 -1.60344e-16)
(0.999788 -0.000131137 3.55999e-16)
(0.99965 -0.000257965 -8.88859e-17)
(0.999551 -0.000408857 4.61576e-16)
(0.999515 -0.000551843 6.21721e-16)
(0.999545 -0.000665761 -3.5017e-16)
(0.999643 -0.000713224 1.48148e-15)
(0.999793 -0.000651695 -3.10864e-16)
(0.99997 -0.000453881 1.5961e-17)
(1.00007 0.000100078 8.13072e-17)
(1.00207 0.00196119 1.53615e-16)
(0.99999 -2.05904e-05 -8.88717e-17)
(0.999927 -6.89963e-05 2.16051e-16)
(0.999819 -0.000159097 -1.23387e-16)
(0.999703 -0.000286598 4.51163e-16)
(0.999629 -0.000424897 2.51373e-16)
(0.999617 -0.000543538 2.31209e-16)
(0.999663 -0.000627332 5.17851e-16)
(0.99977 -0.000644517 -6.58547e-16)
(0.999918 -0.000556641 -3.67502e-16)
(1.00009 -0.000355079 -1.29712e-16)
(1.00012 0.000171795 -2.90123e-17)
(1.00215 0.00169482 4.85856e-16)
(0.99999 -2.79523e-05 -3.79477e-17)
(0.99994 -8.85063e-05 -2.04416e-16)
(0.999854 -0.00018804 -3.15636e-16)
(0.99976 -0.000315019 -2.23667e-16)
(0.999704 -0.000443261 -1.30996e-16)
(0.999706 -0.000546491 -9.05005e-16)
(0.999759 -0.000615042 -1.43376e-15)
(0.999865 -0.000623217 1.63817e-16)
(1.00001 -0.000535817 4.69079e-17)
(1.00018 -0.000357158 6.44729e-16)
(1.00015 9.88572e-05 -4.11392e-16)
(1.00199 0.00132481 -5.68317e-16)
(0.999987 -3.59897e-05 6.7604e-17)
(0.999942 -0.000111312 3.29999e-17)
(0.999862 -0.000226537 1.59957e-16)
(0.99977 -0.000365271 -7.56069e-17)
(0.999715 -0.000503288 2.07744e-16)
(0.999717 -0.000617017 1.86978e-16)
(0.999771 -0.000697736 1.45048e-15)
(0.99988 -0.000720355 -9.47666e-17)
(1.00003 -0.000646889 -2.79589e-16)
(1.00023 -0.000478352 7.59767e-17)
(1.0002 -5.40021e-05 2.83905e-16)
(1.00182 0.00106281 -1.50476e-16)
(0.999984 -4.45748e-05 3.91213e-18)
(0.999942 -0.000135067 -1.8988e-17)
(0.999866 -0.000265721 -2.1349e-17)
(0.999775 -0.000415813 -3.86516e-18)
(0.999722 -0.000563495 -8.62157e-16)
(0.999725 -0.000687021 1.05502e-15)
(0.999784 -0.000777041 2.92833e-17)
(0.999902 -0.000807609 1.46093e-16)
(1.00006 -0.000737977 6.91005e-16)
(1.00029 -0.000558075 -3.40066e-16)
(1.00029 -0.000133578 5.1517e-16)
(1.00173 0.000958245 3.44706e-16)
(0.99998 -5.37554e-05 -3.54032e-18)
(0.999943 -0.000158801 2.04764e-16)
(0.999877 -0.000301514 -2.07648e-16)
(0.999797 -0.00045673 -1.0124e-16)
(0.999754 -0.000605323 4.43069e-16)
(0.999767 -0.000727189 -2.17956e-16)
(0.999836 -0.000812376 -6.03628e-16)
(0.999964 -0.000835248 -3.13159e-16)
(1.00013 -0.000755366 1.22042e-16)
(1.00038 -0.000553748 6.01402e-16)
(1.00041 -0.000123457 -1.21604e-15)
(1.00171 0.000945712 3.16038e-16)
(0.999976 -6.3525e-05 -5.22924e-17)
(0.999945 -0.000182822 7.92717e-17)
(0.999891 -0.000335888 2.39274e-16)
(0.999825 -0.000493557 4.52927e-16)
(0.999795 -0.000640092 2.41116e-16)
(0.99982 -0.000756779 -2.67547e-16)
(0.999902 -0.000832551 -2.90896e-16)
(1.00004 -0.000842577 -1.39428e-16)
(1.00022 -0.000748379 4.81557e-17)
(1.00048 -0.000527425 -1.30297e-16)
(1.00053 -9.81334e-05 1.04113e-15)
(1.00172 0.000923253 -5.46358e-16)
(0.999971 -7.37418e-05 2.0589e-17)
(0.999944 -0.000207283 -1.94669e-16)
(0.999901 -0.000370773 1.46028e-17)
(0.999847 -0.000531834 -7.22834e-17)
(0.999829 -0.000678904 7.29323e-17)
(0.999865 -0.000794459 -6.1075e-17)
(0.999958 -0.000865488 5.11748e-17)
(1.00011 -0.000867337 5.58328e-16)
(1.0003 -0.000763188 -6.91975e-17)
(1.00057 -0.000530105 -7.89042e-16)
(1.00064 -0.000107565 -8.78241e-16)
(1.00174 0.000851431 9.71938e-16)
(0.999965 -8.41675e-05 7.31741e-17)
(0.999942 -0.000231849 4.8658e-18)
(0.999906 -0.000406086 1.84368e-16)
(0.999863 -0.000571858 -4.8331e-16)
(0.999854 -0.000722247 -1.1534e-16)
(0.999899 -0.000840934 5.21957e-16)
(1 -0.000912824 -4.43359e-16)
(1.00016 -0.00091262 -6.68634e-16)
(1.00036 -0.000804334 2.04763e-16)
(1.00064 -0.000564379 2.05285e-16)
(1.00075 -0.000149176 6.53037e-16)
(1.00177 0.000753625 -1.37449e-16)
(0.999958 -9.45647e-05 -1.00365e-16)
(0.999937 -0.000256107 -2.31044e-17)
(0.999908 -0.0004411 -2.1973e-16)
(0.999876 -0.000612081 3.65553e-17)
(0.999877 -0.000766584 1.67107e-16)
(0.99993 -0.000889534 -3.60221e-16)
(1.00004 -0.000964428 2.70623e-16)
(1.00021 -0.00096495 7.53374e-16)
(1.00042 -0.000855509 -5.61693e-16)
(1.00072 -0.000610081 2.24003e-16)
(1.00086 -0.000199374 -8.45916e-16)
(1.00182 0.000662833 -9.00498e-16)
(0.99995 -0.000104699 6.51573e-18)
(0.999931 -0.000279772 1.91913e-16)
(0.999908 -0.000475469 -1.92455e-16)
(0.999888 -0.000651953 1.48815e-16)
(0.9999 -0.000810329 -4.57282e-16)
(0.999963 -0.000936555 -2.03729e-16)
(1.00009 -0.00101366 6.6335e-17)
(1.00027 -0.00101444 -3.02563e-16)
(1.00049 -0.000903805 -3.93824e-16)
(1.00079 -0.000652066 3.62506e-16)
(1.00096 -0.000242769 2.85167e-16)
(1.00187 0.000589745 1.00389e-17)
(0.999941 -0.000114365 2.45162e-17)
(0.999923 -0.00030269 -1.91773e-17)
(0.999907 -0.000509232 5.30292e-16)
(0.999898 -0.000691967 1.52955e-16)
(0.999922 -0.000854322 2.61387e-16)
(0.999997 -0.000982779 -2.92151e-16)
(1.00013 -0.0010606 -1.47738e-16)
(1.00032 -0.00106007 1.20456e-16)
(1.00056 -0.000946994 4.65142e-16)
(1.00087 -0.000688172 -1.21791e-15)
(1.00107 -0.000278838 -4.85709e-16)
(1.00193 0.000526955 5.39827e-16)
(0.999932 -0.000123374 -7.57173e-17)
(0.999914 -0.000324739 -6.73808e-17)
(0.999903 -0.000542438 -4.19106e-16)
(0.999904 -0.000732659 -3.31126e-16)
(0.999941 -0.000899927 -2.32039e-16)
(1.00003 -0.00103063 3.64683e-16)
(1.00018 -0.00110849 2.50773e-16)
(1.00038 -0.00110573 -2.76248e-16)
(1.00063 -0.000989415 -3.70667e-16)
(1.00096 -0.000723732 -1.3274e-16)
(1.00117 -0.000314162 6.89791e-16)
(1.002 0.000464975 -4.79622e-16)
(0.999922 -0.000131584 4.07567e-17)
(0.999904 -0.000345836 3.2213e-17)
(0.999899 -0.000575015 4.95055e-17)
(0.999909 -0.000774064 7.8976e-17)
(0.999958 -0.000947664 8.21047e-17)
(1.00006 -0.00108161 -1.48119e-16)
(1.00022 -0.00115994 7.76513e-18)
(1.00044 -0.00115507 -3.8262e-16)
(1.0007 -0.00103545 3.62239e-16)
(1.00104 -0.000763571 1.38052e-15)
(1.00128 -0.000353377 -2.05091e-16)
(1.00207 0.000401139 6.67915e-16)
(0.999911 -0.000138886 -3.93535e-17)
(0.999894 -0.000365929 1.48652e-18)
(0.999894 -0.000606802 1.47748e-16)
(0.999911 -0.000815719 2.08901e-16)
(0.999971 -0.00099695 2.31055e-16)
(1.00009 -0.00113539 -1.50109e-16)
(1.00026 -0.00121508 -2.41712e-16)
(1.00049 -0.00120868 5.91059e-16)
(1.00076 -0.00108593 1.43115e-16)
(1.00112 -0.000808088 -1.4879e-15)
(1.00138 -0.000395917 2.35105e-16)
(1.00214 0.000338697 2.21363e-17)
(0.999899 -0.000145227 9.00424e-17)
(0.999883 -0.000385036 3.30767e-17)
(0.999888 -0.00063769 -3.19354e-16)
(0.999914 -0.000857027 1.37806e-16)
(0.999985 -0.00104664 -5.60851e-17)
(1.00011 -0.00119042 3.67059e-16)
(1.0003 -0.00127213 6.24914e-16)
(1.00055 -0.00126456 1.05212e-16)
(1.00083 -0.00113858 5.10129e-16)
(1.0012 -0.000854427 1.23696e-15)
(1.00148 -0.000438527 1.43022e-15)
(1.00222 0.000280818 -5.32801e-16)
(0.999887 -0.000150586 3.46083e-17)
(0.999872 -0.000403225 -2.74328e-17)
(0.999883 -0.000667682 3.03753e-16)
(0.999917 -0.000897576 -2.77037e-16)
(0.999998 -0.00109575 3.92111e-16)
(1.00014 -0.00124513 4.02955e-18)
(1.00034 -0.00132906 -4.06259e-16)
(1.0006 -0.00132028 1.28086e-16)
(1.0009 -0.00119069 -4.41698e-16)
(1.00128 -0.000899802 -2.16153e-16)
(1.00158 -0.000478979 -5.73664e-16)
(1.0023 0.000227859 -1.05749e-16)
(0.999873 -0.000154982 -4.15041e-17)
(0.999861 -0.000420611 -2.30999e-16)
(0.999879 -0.000696935 -1.26423e-16)
(0.999921 -0.00093733 1.55149e-16)
(1.00001 -0.00114392 -2.81759e-17)
(1.00017 -0.00129879 -2.618e-16)
(1.00038 -0.00138487 -5.4596e-17)
(1.00066 -0.00137473 -3.37396e-17)
(1.00097 -0.00124127 -5.30189e-16)
(1.00136 -0.000943635 -3.88865e-16)
(1.00168 -0.000517689 -1.71983e-15)
(1.00238 0.000177424 1.01765e-15)
(0.999858 -0.000158445 -3.95457e-17)
(0.99985 -0.000437318 2.40486e-16)
(0.999874 -0.000725675 -1.71647e-16)
(0.999926 -0.000976548 7.66029e-17)
(1.00003 -0.00119143 -1.88047e-16)
(1.0002 -0.00135165 -4.25978e-16)
(1.00043 -0.00143985 5.40425e-17)
(1.00072 -0.00142841 -6.90022e-17)
(1.00104 -0.00129113 2.87013e-16)
(1.00144 -0.000987236 4.46002e-16)
(1.00178 -0.000556512 1.53905e-15)
(1.00247 0.000127482 -9.84026e-16)
(0.999842 -0.00016103 2.84445e-17)
(0.999837 -0.000453462 -1.11963e-17)
(0.999869 -0.000754135 2.72222e-17)
(0.99993 -0.00101561 -6.35335e-17)
(1.00005 -0.00123882 -2.36287e-16)
(1.00023 -0.00140442 -9.44788e-18)
(1.00047 -0.00149491 -1.2533e-16)
(1.00077 -0.00148249 -6.69494e-16)
(1.00112 -0.00134174 4.03373e-16)
(1.00153 -0.00103221 2.1841e-16)
(1.00188 -0.000596917 6.51044e-17)
(1.00255 7.71769e-05 2.21219e-16)
(0.999825 -0.000162785 3.25356e-17)
(0.999824 -0.000469125 -2.63836e-16)
(0.999863 -0.000782461 5.16556e-16)
(0.999934 -0.00105481 4.9151e-17)
(1.00006 -0.00128656 1.43328e-16)
(1.00025 -0.00145774 8.68865e-16)
(1.00051 -0.00155084 7.14583e-16)
(1.00083 -0.00153783 3.61663e-16)
(1.00119 -0.00139397 -9.58286e-16)
(1.00161 -0.00107917 -2.79431e-16)
(1.00198 -0.000638909 9.2361e-17)
(1.00264 2.7595e-05 -3.30198e-17)
(0.999806 -0.000163771 -6.09728e-17)
(0.99981 -0.000484367 1.05102e-16)
(0.999856 -0.00081072 -6.96511e-17)
(0.999937 -0.00109428 -8.84457e-17)
(1.00008 -0.00133491 -2.54983e-16)
(1.00028 -0.00151193 -5.04509e-16)
(1.00055 -0.00160789 -2.74229e-16)
(1.00089 -0.00159458 -2.17488e-17)
(1.00126 -0.00144775 2.77734e-16)
(1.0017 -0.0011276 -2.64805e-16)
(1.00208 -0.000681484 -1.56133e-15)
(1.00273 -2.02653e-05 7.88657e-16)
(0.999786 -0.000164041 4.45184e-17)
(0.999795 -0.000499221 6.34189e-18)
(0.999847 -0.000838888 -1.89538e-16)
(0.999938 -0.00113399 -1.44952e-16)
(1.00009 -0.00138385 -8.04334e-17)
(1.00031 -0.00156695 -1.18893e-16)
(1.0006 -0.00166594 -2.16896e-16)
(1.00095 -0.00165237 -2.31395e-16)
(1.00133 -0.00150241 -6.74428e-17)
(1.00178 -0.00117652 -2.45678e-16)
(1.00218 -0.000723459 9.27064e-17)
(1.00282 -6.53646e-05 -1.5693e-16)
(0.999765 -0.000163656 1.52598e-17)
(0.999779 -0.000513721 1.49339e-16)
(0.999838 -0.00086693 4.08748e-17)
(0.999939 -0.00117386 -1.56955e-17)
(1.0001 -0.00143323 9.87796e-17)
(1.00034 -0.00162263 2.77587e-16)
(1.00064 -0.00172468 1.06855e-16)
(1.001 -0.00171073 2.67266e-16)
(1.0014 -0.00155731 3.13309e-16)
(1.00186 -0.00122519 -3.05685e-16)
(1.00228 -0.00076427 1.0027e-15)
(1.00291 -0.000107652 -6.19096e-16)
(0.999743 -0.000162668 -2.06927e-17)
(0.999761 -0.000527891 -1.95386e-17)
(0.999828 -0.000894797 -1.47681e-16)
(0.999939 -0.00121374 -9.71909e-17)
(1.00012 -0.00148286 -3.48369e-17)
(1.00036 -0.00167875 -1.78784e-16)
(1.00068 -0.00178388 1.04051e-17)
(1.00106 -0.00176936 -3.11099e-16)
(1.00148 -0.0016121 -2.70234e-17)
(1.00195 -0.00127333 1.05052e-15)
(1.00238 -0.000803908 4.9517e-16)
(1.003 -0.000147651 5.28178e-17)
(0.999719 -0.000161137 -9.84498e-18)
(0.999743 -0.000541776 -1.1463e-16)
(0.999817 -0.000922496 -5.05092e-17)
(0.999938 -0.00125356 -7.54588e-17)
(1.00013 -0.00153257 5.57106e-16)
(1.00039 -0.00173512 -1.29072e-16)
(1.00072 -0.00184338 1.53657e-16)
(1.00112 -0.00182816 -1.59648e-16)
(1.00155 -0.00166678 -2.55067e-16)
(1.00204 -0.0013211 -2.64898e-16)
(1.00247 -0.000842828 -1.96125e-17)
(1.0031 -0.000186308 -2.00117e-16)
(0.999694 -0.000159117 3.40895e-17)
(0.999723 -0.00055542 -4.08421e-17)
(0.999805 -0.000950059 1.71551e-16)
(0.999937 -0.0012933 3.46316e-16)
(1.00014 -0.00158228 -5.26777e-16)
(1.00042 -0.00179166 4.98589e-16)
(1.00076 -0.00190312 -2.75729e-16)
(1.00118 -0.00188716 -1.43965e-16)
(1.00163 -0.0017215 -1.93943e-16)
(1.00212 -0.00136885 -3.54654e-16)
(1.00257 -0.00088156 -1.50434e-16)
(1.00319 -0.000224231 -1.20055e-16)
(0.999668 -0.000156669 -5.82277e-18)
(0.999702 -0.000568883 -1.5664e-17)
(0.999792 -0.000977584 -1.57755e-17)
(0.999935 -0.00133305 -3.35233e-16)
(1.00015 -0.00163204 -1.43919e-16)
(1.00044 -0.00184836 -1.30435e-17)
(1.00081 -0.00196315 -3.89403e-16)
(1.00124 -0.0019465 7.17729e-16)
(1.0017 -0.00177656 -5.8411e-18)
(1.00221 -0.00141702 2.50537e-16)
(1.00267 -0.000920729 1.77381e-16)
(1.00329 -0.000262016 -5.38701e-18)
(0.999641 -0.000153848 -1.88917e-17)
(0.99968 -0.00058222 1.07854e-16)
(0.999778 -0.00100518 3.21174e-17)
(0.999932 -0.00137296 4.60757e-16)
(1.00016 -0.00168201 2.51446e-16)
(1.00047 -0.00190539 -4.21834e-16)
(1.00085 -0.00202363 1.91556e-16)
(1.00129 -0.00200639 -3.78131e-16)
(1.00177 -0.00183227 1.30921e-15)
(1.0023 -0.00146603 -1.01761e-16)
(1.00277 -0.000960817 2.23555e-17)
(1.00338 -0.000300173 -1.39927e-16)
(0.999612 -0.000150718 -1.97129e-17)
(0.999657 -0.00059549 7.53486e-17)
(0.999762 -0.00103299 -9.05068e-17)
(0.999928 -0.00141328 -4.4718e-16)
(1.00017 -0.00173248 4.63033e-16)
(1.00049 -0.00196302 2.70863e-16)
(1.00089 -0.00208485 3.42601e-16)
(1.00135 -0.00206719 1.53311e-16)
(1.00185 -0.00188905 -1.08764e-16)
(1.00238 -0.00151631 5.45973e-16)
(1.00287 -0.00100228 -9.89694e-16)
(1.00348 -0.000339004 1.11391e-15)
(0.999582 -0.000147337 2.74685e-17)
(0.999632 -0.000608736 -1.44211e-16)
(0.999745 -0.00106111 -8.41911e-17)
(0.999922 -0.0014542 -2.68186e-17)
(1.00018 -0.00178377 -1.77098e-16)
(1.00052 -0.00202163 -5.03128e-18)
(1.00093 -0.00214719 -2.81614e-16)
(1.00141 -0.00212925 -2.13149e-16)
(1.00192 -0.00194724 -1.20249e-15)
(1.00247 -0.00156816 -3.96853e-16)
(1.00296 -0.0010453 -2.54974e-16)
(1.00358 -0.000378601 -2.98718e-17)
(0.999551 -0.000143771 1.05343e-17)
(0.999606 -0.000621999 -1.18565e-17)
(0.999726 -0.00108962 -4.25993e-17)
(0.999915 -0.00149593 3.25325e-16)
(1.00019 -0.0018362 -5.52327e-16)
(1.00054 -0.00208159 -4.09881e-16)
(1.00097 -0.00221101 3.52172e-16)
(1.00147 -0.00219291 -2.33016e-17)
(1.002 -0.00200712 7.28736e-17)
(1.00256 -0.00162176 4.20567e-16)
(1.00306 -0.00108995 -1.67978e-16)
(1.00367 -0.000418898 3.0191e-16)
(0.99952 -0.000140085 -1.51747e-17)
(0.999579 -0.0006353 1.70046e-16)
(0.999705 -0.00111854 2.88419e-16)
(0.999905 -0.00153854 -9.60843e-17)
(1.00019 -0.00188992 4.35239e-17)
(1.00056 -0.00214312 1.82111e-16)
(1.00101 -0.00227653 -4.20443e-16)
(1.00152 -0.00225833 4.42713e-16)
(1.00207 -0.00206875 3.4422e-16)
(1.00264 -0.001677 -2.83572e-16)
(1.00316 -0.00113593 3.24285e-18)
(1.00377 -0.000459517 -1.8935e-17)
(0.999487 -0.000136354 -4.29481e-18)
(0.99955 -0.000648665 -2.47034e-16)
(0.999683 -0.00114787 -4.84814e-17)
(0.999894 -0.00158203 5.79069e-17)
(1.0002 -0.001945 6.51597e-16)
(1.00058 -0.00220629 5.20252e-17)
(1.00105 -0.00234381 3.9038e-16)
(1.00158 -0.00232549 -7.23076e-16)
(1.00214 -0.002132 3.63132e-16)
(1.00273 -0.00173362 -4.36137e-16)
(1.00325 -0.00118289 9.35059e-16)
(1.00387 -0.000499942 -4.63035e-16)
(0.999453 -0.000132647 2.14682e-17)
(0.99952 -0.000662113 1.09524e-16)
(0.99966 -0.00117755 -1.16303e-16)
(0.999882 -0.00162631 4.7872e-17)
(1.0002 -0.00200129 -3.91967e-16)
(1.0006 -0.00227096 -1.38001e-16)
(1.00109 -0.00241266 2.26549e-17)
(1.00163 -0.00239415 5.18139e-16)
(1.00221 -0.00219653 3.12718e-16)
(1.00281 -0.00179119 -2.15811e-17)
(1.00335 -0.00123035 1.23193e-15)
(1.00396 -0.000539937 -6.05672e-16)
(0.999418 -0.000129046 1.44328e-18)
(0.999489 -0.00067568 1.19541e-16)
(0.999636 -0.00120754 1.19413e-16)
(0.999868 -0.00167124 -1.43926e-17)
(1.0002 -0.0020586 2.86657e-16)
(1.00062 -0.00233687 3.70669e-16)
(1.00112 -0.0024828 -1.13113e-16)
(1.00169 -0.00246398 5.20477e-16)
(1.00228 -0.00226199 -1.19428e-15)
(1.0029 -0.00184937 -1.32451e-16)
(1.00345 -0.00127802 -1.77334e-15)
(1.00406 -0.000579659 1.39739e-16)
(0.999382 -0.000125625 -6.22654e-17)
(0.999458 -0.000689407 7.43783e-17)
(0.999611 -0.00123781 -2.12521e-17)
(0.999854 -0.00171668 1.55008e-16)
(1.0002 -0.00211668 -2.13434e-16)
(1.00064 -0.00240372 -5.20162e-16)
(1.00116 -0.00255388 -4.00129e-17)
(1.00174 -0.00253462 -3.70987e-16)
(1.00236 -0.00232802 1.27214e-15)
(1.00298 -0.00190784 -4.28387e-17)
(1.00354 -0.00132563 3.80553e-16)
(1.00416 -0.000618961 6.98307e-16)
(0.999346 -0.000122465 1.54842e-17)
(0.999425 -0.000703355 -3.1888e-16)
(0.999585 -0.00126838 1.09891e-16)
(0.999839 -0.00176254 -5.09611e-16)
(1.0002 -0.00217532 2.54958e-16)
(1.00065 -0.00247121 8.44129e-16)
(1.00119 -0.00262558 -2.18871e-16)
(1.0018 -0.00260577 -5.1826e-16)
(1.00243 -0.0023944 -4.04838e-16)
(1.00307 -0.00196646 -8.00158e-17)
(1.00364 -0.00137321 3.94408e-16)
(1.00426 -0.000657996 -6.38473e-16)
(0.999309 -0.000119637 3.55115e-17)
(0.999392 -0.00071759 9.2645e-17)
(0.999559 -0.00129927 -3.33721e-16)
(0.999824 -0.00180878 4.62156e-16)
(1.0002 -0.00223438 -6.94827e-16)
(1.00067 -0.00253916 -6.94054e-16)
(1.00123 -0.0026977 2.64593e-16)
(1.00185 -0.00267726 9.30485e-16)
(1.0025 -0.00246099 -5.24107e-16)
(1.00315 -0.00202518 2.10854e-16)
(1.00374 -0.00142073 -1.702e-16)
(1.00435 -0.000696828 5.98037e-17)
(0.999272 -0.000117215 -6.04894e-18)
(0.999358 -0.000732191 1.99948e-16)
(0.999532 -0.00133058 2.66257e-16)
(0.999808 -0.00185543 -3.16891e-16)
(1.0002 -0.00229386 1.54162e-16)
(1.00069 -0.00260749 4.27539e-16)
(1.00126 -0.00277016 1.43772e-16)
(1.0019 -0.00274904 -9.64494e-17)
(1.00257 -0.00252783 7.34655e-16)
(1.00324 -0.0020841 3.73732e-16)
(1.00384 -0.00146833 7.0217e-17)
(1.00445 -0.000735842 6.30905e-17)
(0.999233 -0.000115255 1.35985e-17)
(0.999323 -0.000747231 -2.23054e-16)
(0.999505 -0.00136238 -5.89204e-17)
(0.999792 -0.00190259 1.24105e-16)
(1.0002 -0.0023538 7.50212e-16)
(1.0007 -0.00267623 -3.84781e-16)
(1.0013 -0.00284299 -3.27816e-16)
(1.00196 -0.00282116 -7.45025e-17)
(1.00264 -0.00259497 -7.26606e-16)
(1.00332 -0.00214331 4.2234e-16)
(1.00393 -0.00151606 -5.87175e-17)
(1.00455 -0.000774985 3.75234e-16)
(0.999194 -0.000113817 -1.07902e-17)
(0.999287 -0.000762783 1.39664e-16)
(0.999477 -0.00139479 -9.63536e-17)
(0.999776 -0.00195036 3.6151e-16)
(1.00019 -0.00241432 -7.04771e-16)
(1.00072 -0.0027455 4.95151e-16)
(1.00133 -0.00291629 -4.81663e-17)
(1.00201 -0.00289374 -5.03276e-17)
(1.00271 -0.00266256 7.51824e-16)
(1.00341 -0.00220294 -2.89765e-16)
(1.00403 -0.00156407 -2.3691e-16)
(1.00465 -0.000814506 -9.47735e-17)
(0.999155 -0.000112941 1.51881e-18)
(0.999251 -0.000778903 -2.60315e-17)
(0.999449 -0.00142787 1.17408e-16)
(0.999759 -0.00199885 -4.00982e-16)
(1.00019 -0.00247554 3.47958e-16)
(1.00073 -0.00281542 1.16409e-16)
(1.00137 -0.00299018 1.67669e-16)
(1.00206 -0.00296687 -8.75327e-16)
(1.00278 -0.00273068 -3.67208e-16)
(1.00349 -0.00226303 -1.32023e-15)
(1.00413 -0.00161243 -6.89447e-16)
(1.00475 -0.000854203 -7.05012e-16)
(0.999115 -0.000112666 -1.97172e-17)
(0.999213 -0.000795642 1.80452e-17)
(0.999419 -0.00146171 -2.20009e-16)
(0.999741 -0.00204816 1.44624e-17)
(1.00019 -0.00253757 -8.83976e-17)
(1.00075 -0.00288611 5.24905e-18)
(1.0014 -0.0030648 3.09729e-16)
(1.00212 -0.00304068 1.18336e-15)
(1.00285 -0.00279942 1.02859e-16)
(1.00358 -0.00232368 8.23965e-16)
(1.00422 -0.00166107 -1.20748e-16)
(1.00485 -0.000894363 1.27934e-15)
(0.999074 -0.000113013 1.89708e-17)
(0.999174 -0.000813029 1.09558e-17)
(0.999388 -0.00149633 2.97326e-16)
(0.999722 -0.00209833 -1.73867e-16)
(1.00018 -0.00260048 -2.03566e-16)
(1.00076 -0.00295763 -2.35101e-16)
(1.00143 -0.00314019 -1.42595e-16)
(1.00217 -0.00311521 -4.74469e-16)
(1.00292 -0.00286881 8.53755e-17)
(1.00366 -0.00238487 8.18596e-16)
(1.00432 -0.00171008 7.93767e-16)
(1.00495 -0.000934533 -1.13605e-15)
(0.999032 -0.000114001 -1.9368e-17)
(0.999134 -0.000831093 -2.3954e-16)
(0.999356 -0.00153178 -1.27501e-16)
(0.999702 -0.00214939 2.92034e-17)
(1.00018 -0.00266428 5.10312e-16)
(1.00078 -0.00303002 -4.04611e-16)
(1.00147 -0.00321639 -3.61069e-16)
(1.00222 -0.00319049 -4.46298e-16)
(1.00299 -0.00293886 -5.34952e-16)
(1.00375 -0.00244664 -1.7686e-15)
(1.00442 -0.00175989 -5.90737e-16)
(1.00505 -0.000975094 5.7589e-16)
(0.998989 -0.000115629 9.69309e-18)
(0.999093 -0.000849844 2.00058e-16)
(0.999323 -0.00156805 6.03268e-17)
(0.999681 -0.00220134 3.72132e-16)
(1.00017 -0.00272897 -5.89002e-16)
(1.00079 -0.00310326 5.74086e-16)
(1.0015 -0.00329337 -6.83906e-18)
(1.00227 -0.00326649 1.05168e-15)
(1.00306 -0.00300958 3.7963e-16)
(1.00383 -0.00250898 2.30634e-15)
(1.00451 -0.00181053 3.28498e-16)
(1.00515 -0.00101575 5.36636e-16)
(0.998946 -0.000117895 -1.979e-17)
(0.99905 -0.000869293 4.29757e-17)
(0.999288 -0.00160516 9.35792e-17)
(0.999658 -0.00225418 -1.45533e-16)
(1.00017 -0.00279455 5.0326e-16)
(1.0008 -0.00317733 -6.05683e-16)
(1.00153 -0.00337115 5.52939e-16)
(1.00232 -0.00334326 -1.41931e-16)
(1.00313 -0.00308102 2.31589e-16)
(1.00392 -0.00257203 -1.68184e-15)
(1.00461 -0.00186204 9.98063e-16)
(1.00525 -0.00105647 -1.19746e-15)
(0.998902 -0.000120776 2.12862e-17)
(0.999007 -0.00088944 -1.18968e-16)
(0.999253 -0.0016431 -1.72929e-16)
(0.999635 -0.0023079 -1.70934e-16)
(1.00016 -0.00286099 5.21268e-17)
(1.00081 -0.00325223 -1.5945e-16)
(1.00156 -0.00344973 -3.01178e-16)
(1.00237 -0.00342082 -6.68243e-16)
(1.0032 -0.00315325 -2.39287e-16)
(1.004 -0.00263585 3.93065e-16)
(1.00471 -0.00191453 -9.80357e-16)
(1.00535 -0.00109715 6.92235e-16)
(0.998857 -0.00012425 5.12898e-17)
(0.998962 -0.000910287 1.44663e-17)
(0.999216 -0.00168187 -4.60169e-17)
(0.999611 -0.00236252 1.24219e-16)
(1.00015 -0.00292832 -6.87212e-16)
(1.00082 -0.00332801 1.16312e-16)
(1.00159 -0.00352917 5.03936e-16)
(1.00242 -0.00349927 -2.81283e-16)
(1.00327 -0.00322642 9.44704e-17)
(1.00409 -0.00270063 -1.23716e-16)
(1.0048 -0.00196843 2.23761e-16)
(1.00546 -0.00113833 -5.21577e-16)
(0.998812 -0.000128278 -3.34812e-17)
(0.998916 -0.00093182 7.35282e-17)
(0.999178 -0.00172148 -1.34518e-16)
(0.999585 -0.00241803 -8.05725e-17)
(1.00014 -0.00299656 5.11234e-16)
(1.00083 -0.00340469 2.11413e-16)
(1.00162 -0.00360955 -2.23126e-16)
(1.00247 -0.00357871 4.57585e-16)
(1.00334 -0.00330063 1.50584e-16)
(1.00417 -0.00276647 2.96958e-16)
(1.0049 -0.0020237 -3.05516e-16)
(1.00556 -0.00117989 -1.09475e-17)
(0.998765 -0.000132819 -5.1275e-17)
(0.998869 -0.000954029 -2.66862e-17)
(0.999139 -0.00176192 1.38673e-16)
(0.999559 -0.00247446 1.22555e-16)
(1.00013 -0.00306578 1.59375e-16)
(1.00084 -0.00348239 4.31027e-16)
(1.00165 -0.003691 -1.93403e-16)
(1.00252 -0.00365929 -8.62351e-17)
(1.0034 -0.00337603 -1.82697e-16)
(1.00426 -0.00283353 -6.6754e-18)
(1.00499 -0.0020804 6.62288e-18)
(1.00567 -0.00122163 3.8171e-16)
(0.998718 -0.000137823 8.62632e-17)
(0.998821 -0.000976888 -1.39866e-17)
(0.999099 -0.00180316 1.60294e-16)
(0.999531 -0.00253181 -7.32162e-17)
(1.00012 -0.00313599 -1.4032e-16)
(1.00085 -0.00356116 -5.67471e-16)
(1.00168 -0.00377358 -3.43595e-16)
(1.00257 -0.00374109 2.23672e-16)
(1.00347 -0.00345269 3.52127e-17)
(1.00434 -0.00290183 5.35036e-17)
(1.00509 -0.00213831 8.26833e-17)
(1.00577 -0.00126371 3.41088e-17)
(0.998669 -0.000143242 -8.60393e-17)
(0.998771 -0.00100037 1.31647e-16)
(0.999057 -0.00184517 -2.35993e-16)
(0.999501 -0.00259006 1.62365e-16)
(1.00011 -0.00320723 -3.76914e-18)
(1.00085 -0.00364106 3.85236e-16)
(1.0017 -0.00385739 3.3533e-16)
(1.00261 -0.0038242 -2.23887e-16)
(1.00354 -0.00353067 3.68162e-16)
(1.00442 -0.00297138 -2.38431e-16)
(1.00519 -0.00219725 7.10967e-16)
(1.00588 -0.00130592 7.14393e-16)
(0.998619 -0.000149023 6.59363e-17)
(0.998721 -0.00102443 -9.52963e-17)
(0.999013 -0.0018879 -4.00373e-17)
(0.99947 -0.00264915 1.20864e-16)
(1.00009 -0.00327944 -1.51685e-16)
(1.00086 -0.00372207 -2.35885e-16)
(1.00173 -0.00394241 3.60197e-16)
(1.00266 -0.00390857 -2.10906e-16)
(1.0036 -0.00360992 -4.48299e-16)
(1.00451 -0.00304209 2.4096e-16)
(1.00528 -0.00225699 -4.08064e-16)
(1.00598 -0.00134865 -5.59638e-16)
(0.998568 -0.00015512 2.74122e-17)
(0.998669 -0.00104904 -1.01348e-16)
(0.998969 -0.00193131 4.14108e-16)
(0.999438 -0.00270903 -2.02352e-16)
(1.00008 -0.0033526 8.26833e-17)
(1.00086 -0.00380415 -1.91767e-16)
(1.00175 -0.0040286 -4.73366e-16)
(1.00271 -0.00399418 4.11034e-16)
(1.00367 -0.00369038 4.7344e-16)
(1.00459 -0.00311388 -5.97097e-16)
(1.00538 -0.00231738 -2.3261e-16)
(1.00609 -0.00139228 -1.75431e-16)
(0.998515 -0.000161481 -7.8571e-17)
(0.998615 -0.00107415 3.06097e-17)
(0.998923 -0.00197531 -1.87438e-16)
(0.999405 -0.00276962 2.56427e-17)
(1.00006 -0.00342659 1.14116e-16)
(1.00086 -0.00388721 4.659e-16)
(1.00178 -0.00411588 5.03859e-18)
(1.00275 -0.0040809 -2.43208e-17)
(1.00373 -0.00377193 -6.50981e-16)
(1.00467 -0.00318662 9.54902e-17)
(1.00548 -0.00237826 -1.342e-16)
(1.00619 -0.00143683 7.15018e-17)
(0.998461 -0.000168065 -1.26868e-17)
(0.998561 -0.00109971 -2.33516e-17)
(0.998877 -0.00201986 -2.73536e-16)
(0.99937 -0.00283083 -4.99754e-17)
(1.00004 -0.00350134 -1.79607e-16)
(1.00087 -0.00397116 -1.29944e-16)
(1.0018 -0.00420414 -1.32489e-16)
(1.0028 -0.00416865 1.6274e-16)
(1.0038 -0.0038545 1.83085e-16)
(1.00476 -0.00326025 3.12984e-16)
(1.00558 -0.00243947 4.40349e-16)
(1.0063 -0.00148224 -2.26131e-16)
(0.998406 -0.000174828 3.06803e-17)
(0.998506 -0.00112569 1.59437e-17)
(0.998829 -0.00206489 2.6116e-16)
(0.999335 -0.00289258 -5.24605e-17)
(1.00002 -0.00357674 -9.6774e-17)
(1.00087 -0.00405589 -1.49098e-16)
(1.00182 -0.00429327 4.42081e-16)
(1.00284 -0.00425733 -2.96388e-16)
(1.00387 -0.00393798 1.04659e-16)
(1.00484 -0.0033347 4.07622e-16)
(1.00568 -0.00250097 -2.58815e-16)
(1.00641 -0.00152865 -4.02293e-17)
(0.998348 -0.000181732 -4.19494e-17)
(0.998449 -0.00115206 4.33974e-17)
(0.99878 -0.00211039 8.90096e-17)
(0.999298 -0.00295484 1.89609e-16)
(1.00001 -0.00365274 3.41628e-16)
(1.00087 -0.00414134 -2.54245e-16)
(1.00184 -0.00438323 -1.68597e-16)
(1.00288 -0.00434691 1.77708e-17)
(1.00393 -0.00402239 -3.10631e-16)
(1.00492 -0.00341003 -4.46713e-16)
(1.00578 -0.00256286 5.94048e-16)
(1.00651 -0.00157626 2.47164e-16)
(0.998289 -0.000188737 6.75172e-17)
(0.998392 -0.00117877 8.24806e-17)
(0.99873 -0.0021563 -8.45504e-17)
(0.999261 -0.00301757 -1.71941e-16)
(0.999984 -0.0037293 4.47083e-17)
(1.00087 -0.00422747 4.16281e-16)
(1.00187 -0.00447398 -2.97103e-16)
(1.00293 -0.00443737 -1.07313e-17)
(1.004 -0.00410773 3.96408e-16)
(1.00501 -0.00348626 -3.88209e-16)
(1.00588 -0.00262533 -5.04407e-16)
(1.00662 -0.00162512 -1.28286e-16)
(0.998229 -0.000195808 8.35329e-18)
(0.998333 -0.0012058 8.44494e-18)
(0.998679 -0.00220263 -2.78198e-16)
(0.999223 -0.00308078 -2.26879e-16)
(0.999963 -0.00380645 -3.81684e-16)
(1.00086 -0.00431433 5.1973e-17)
(1.00189 -0.00456558 8.52123e-17)
(1.00297 -0.00452881 -5.92742e-17)
(1.00406 -0.0041941 -3.25636e-16)
(1.00509 -0.00356352 7.29103e-16)
(1.00598 -0.0026883 3.76884e-16)
(1.00673 -0.00167563 -1.15405e-16)
(0.998166 -0.000202907 -3.96602e-17)
(0.998272 -0.00123313 -7.72944e-17)
(0.998627 -0.00224938 3.70862e-16)
(0.999183 -0.00314448 3.37733e-16)
(0.99994 -0.0038842 -7.42345e-18)
(1.00086 -0.00440194 7.22345e-17)
(1.00191 -0.00465809 -1.12129e-16)
(1.00301 -0.00462127 8.23694e-17)
(1.00413 -0.00428157 3.46639e-16)
(1.00518 -0.00364189 -1.80016e-16)
(1.00608 -0.00275208 1.27985e-16)
(1.00684 -0.00172718 2.1433e-16)
(0.998102 -0.000210001 -2.48168e-18)
(0.998211 -0.00126074 5.34798e-17)
(0.998574 -0.00229655 -1.62368e-16)
(0.999142 -0.00320872 -3.19198e-16)
(0.999917 -0.00396264 1.93281e-16)
(1.00086 -0.00449041 -4.43193e-16)
(1.00193 -0.00475161 1.30939e-16)
(1.00306 -0.0047149 -1.94401e-16)
(1.00419 -0.00437028 3.07175e-17)
(1.00526 -0.0037215 1.84625e-16)
(1.00618 -0.00281725 -1.58771e-16)
(1.00696 -0.00178 -4.77586e-16)
(0.998036 -0.000217053 2.29265e-17)
(0.998148 -0.0012886 -1.48489e-16)
(0.998519 -0.00234414 1.666e-16)
(0.9991 -0.00327354 2.79785e-16)
(0.999892 -0.00404182 -3.59785e-16)
(1.00085 -0.00457981 -3.04387e-17)
(1.00194 -0.00484626 2.18925e-16)
(1.0031 -0.0048098 -2.64142e-16)
(1.00426 -0.00446033 -3.19906e-16)
(1.00535 -0.00380241 9.04064e-17)
(1.00629 -0.00288391 -2.76598e-16)
(1.00707 -0.00183355 4.2059e-16)
(0.997968 -0.000224034 1.50663e-17)
(0.998083 -0.00131669 7.82623e-17)
(0.998463 -0.00239216 -7.73005e-17)
(0.999057 -0.00333897 2.35769e-16)
(0.999866 -0.00412182 1.74847e-16)
(1.00085 -0.00467026 1.47217e-16)
(1.00196 -0.00494214 -2.47542e-16)
(1.00314 -0.00490609 3.77142e-16)
(1.00432 -0.00455184 -3.35155e-18)
(1.00543 -0.00388474 -7.16716e-16)
(1.00639 -0.00295202 1.36819e-16)
(1.00718 -0.00188742 -2.64683e-17)
(0.997899 -0.000230914 -2.40178e-17)
(0.998017 -0.00134499 8.08456e-17)
(0.998405 -0.00244062 -2.69294e-16)
(0.999012 -0.00340505 -1.97525e-16)
(0.999839 -0.0042027 4.02029e-17)
(1.00084 -0.00476181 1.54793e-16)
(1.00198 -0.00503934 2.58557e-16)
(1.00318 -0.00500384 3.52769e-17)
(1.00439 -0.00464487 2.79373e-17)
(1.00552 -0.00396851 4.77238e-16)
(1.00649 -0.00302161 1.44928e-16)
(1.0073 -0.00194128 -2.29581e-16)
(0.997827 -0.000237668 -1.89847e-17)
(0.99795 -0.00137346 -2.2433e-17)
(0.998346 -0.0024895 2.8543e-16)
(0.998966 -0.00347181 4.55886e-18)
(0.999811 -0.00428451 2.45842e-16)
(1.00084 -0.00485455 -2.3172e-16)
(1.002 -0.00513795 -1.51647e-16)
(1.00322 -0.00510317 -4.50357e-17)
(1.00445 -0.00473951 5.42702e-18)
(1.00561 -0.0040538 2.89882e-16)
(1.0066 -0.00309302 -4.50991e-16)
(1.00742 -0.00199554 -2.63945e-16)
(0.997754 -0.000244272 5.17693e-18)
(0.99788 -0.00140209 -7.88053e-17)
(0.998285 -0.00253881 -2.76102e-16)
(0.998918 -0.00353927 4.92147e-17)
(0.999781 -0.00436729 2.29843e-17)
(1.00083 -0.00494854 2.92409e-18)
(1.00201 -0.00523803 -8.01237e-17)
(1.00326 -0.00520412 3.48254e-16)
(1.00452 -0.00483582 3.81658e-16)
(1.00569 -0.00414064 -2.53633e-16)