/*--------------------------------*- C++ -*----------------------------------*\
  =========                 |
  \\      /  F ield         | OpenFOAM: The Open Source CFD Toolbox
   \\    /   O peration     | Website:  https://openfoam.org
    \\  /    A nd           | Version:  6.0
     \\/     M anipulation  |
\*---------------------------------------------------------------------------*/
FoamFile
{
    version     2.0;
    format      ascii;
    class       surfaceScalarField;
    location    "96";
    object      phi;
}
// * * * * * * * * * * * * * * * * * * * * * * * * * * * * * * * * * * * * * //

dimensions      [0 3 -1 0 0 0 0];

internalField   nonuniform List<scalar> 
68636
(
3.02233e-05
0.0031056
8.01729e-09
6.08368e-05
0.00307069
9.10859e-05
0.00300235
0.000120474
0.00290108
0.000148618
0.00276786
0.000175168
0.00260416
0.000199812
0.00241177
0.000222265
0.00219283
0.00024227
0.00194975
0.000259599
0.00168519
0.000274054
0.00140201
0.000285479
0.00110309
0.000293791
0.000791906
0.000298713
0.000470206
0.000131636
0.000296459
2.99335e-05
0.00307565
2.42008e-08
6.02699e-05
0.00304036
9.02456e-05
0.00297238
0.000119368
0.00287196
0.000147257
0.00273997
0.000173567
0.00257785
0.000197988
0.00238735
0.000220237
0.00217059
0.00024006
0.00192993
0.000257232
0.00166802
0.000271559
0.00138768
0.000282875
0.00109178
0.000291188
0.000783599
0.00029565
0.000465756
0.000133464
0.000293845
2.96464e-05
0.00304596
4.01422e-08
5.97082e-05
0.00301029
8.94132e-05
0.00294268
0.000118274
0.0028431
0.000145912
0.00271234
0.000171985
0.00255178
0.000196186
0.00236315
0.000218234
0.00214854
0.000237878
0.00191029
0.000254894
0.001651
0.000269092
0.00137349
0.000280295
0.00108057
0.000288533
0.00077536
0.000293174
0.000461114
0.000134224
0.000292406
2.93622e-05
0.00301654
5.56805e-08
5.91523e-05
0.0029805
8.85893e-05
0.00291324
0.00011719
0.0028145
0.000144579
0.00268495
0.000170418
0.00252594
0.000194401
0.00233917
0.00021625
0.00212669
0.000235716
0.00189083
0.000252578
0.00163414
0.000266647
0.00135942
0.00027774
0.00106949
0.000285864
0.000767242
0.000290606
0.000456382
0.000134384
0.000290465
2.90811e-05
0.00298739
7.07518e-08
5.86019e-05
0.00295098
8.77733e-05
0.00288407
0.000116116
0.00278615
0.000143259
0.00265781
0.000168864
0.00250034
0.000192631
0.0023154
0.000214282
0.00210504
0.000233572
0.00187154
0.00025028
0.00161743
0.000264221
0.00134548
0.000275209
0.0010585
0.000283214
0.000759235
0.000287945
0.00045165
0.000134145
0.000288175
2.88028e-05
0.0029585
8.53717e-08
5.80569e-05
0.00292173
8.69649e-05
0.00285516
0.000115052
0.00275807
0.00014195
0.00263091
0.000167324
0.00247496
0.000190876
0.00229185
0.000212331
0.00208358
0.000231446
0.00185242
0.000248001
0.00160088
0.000261815
0.00133167
0.000272702
0.00104761
0.000280597
0.000751346
0.000285281
0.000446973
0.000133674
0.000285766
2.85273e-05
0.00292988
9.95337e-08
5.75171e-05
0.00289274
8.6164e-05
0.00282652
0.000113998
0.00273023
0.000140653
0.00260426
0.000165798
0.00244982
0.000189136
0.00226852
0.000210397
0.00206232
0.000229338
0.00183348
0.000245743
0.00158447
0.00025943
0.00131798
0.000270219
0.00103682
0.000278013
0.000743549
0.000282647
0.000442336
0.00013299
0.00028332
2.82547e-05
0.00290151
1.13185e-07
5.69824e-05
0.00286401
8.53704e-05
0.00279813
0.000112953
0.00270265
0.000139367
0.00257784
0.000164285
0.0024249
0.000187412
0.00224539
0.000208481
0.00204125
0.00022725
0.00181471
0.000243505
0.00156822
0.000257066
0.00130442
0.000267757
0.00102614
0.000275461
0.00073585
0.000280045
0.000437759
0.000132186
0.000280861
2.79849e-05
0.0028734
1.26309e-07
5.64528e-05
0.00283554
8.45843e-05
0.00277
0.000111918
0.00267532
0.000138093
0.00255167
0.000162785
0.00240021
0.000185703
0.00222247
0.000206581
0.00202038
0.000225179
0.00179612
0.000241286
0.00155211
0.000254723
0.00129098
0.000265318
0.00101554
0.000272938
0.000728228
0.000277475
0.000433218
0.000131252
0.000278398
2.77179e-05
0.00284554
1.3892e-07
5.59283e-05
0.00280733
8.38053e-05
0.00274212
0.000110892
0.00264823
0.00013683
0.00252573
0.000161299
0.00237574
0.00018401
0.00219976
0.000204698
0.00199969
0.000223127
0.00177769
0.000239087
0.00153616
0.0002524
0.00127767
0.000262899
0.00100504
0.000270441
0.000720689
0.000274933
0.000428732
0.000130259
0.000275936
2.74536e-05
0.00281794
1.51046e-07
5.54087e-05
0.00277938
8.30335e-05
0.0027145
0.000109875
0.00262139
0.000135579
0.00250003
0.000159826
0.00235149
0.000182331
0.00217726
0.000202831
0.00197919
0.000221093
0.00175943
0.000236907
0.00152034
0.000250097
0.00126448
0.000260501
0.000994639
0.00026797
0.000713217
0.000272419
0.000424278
0.000129185
0.000273481
2.71919e-05
0.00279058
1.62696e-07
5.4894e-05
0.00275168
8.22688e-05
0.00268713
0.000108867
0.00259479
0.000134339
0.00247456
0.000158367
0.00232747
0.000180667
0.00215496
0.000200981
0.00195888
0.000219077
0.00174133
0.000234747
0.00150467
0.000247815
0.00125141
0.000258124
0.000984332
0.000265522
0.000705823
0.00026993
0.000419875
0.000128085
0.000271038
2.69329e-05
0.00276348
1.73882e-07
5.43841e-05
0.00272423
8.1511e-05
0.00266
0.000107869
0.00256843
0.000133109
0.00244931
0.00015692
0.00230366
0.000179018
0.00213286
0.000199148
0.00193874
0.000217079
0.0017234
0.000232606
0.00148915
0.000245554
0.00123846
0.000255768
0.000974116
0.000263097
0.000698491
0.000267466
0.000415502
0.000126928
0.000268611
2.66766e-05
0.00273662
1.84628e-07
5.3879e-05
0.00269702
8.07601e-05
0.00263312
0.000106879
0.00254231
0.000131891
0.0024243
0.000155485
0.00228006
0.000177383
0.00211096
0.00019733
0.0019188
0.000215098
0.00170563
0.000230483
0.00147376
0.000243312
0.00122563
0.000253433
0.000963997
0.000260694
0.000691233
0.000265025
0.000411175
0.000125761
0.000266199
2.64227e-05
0.00271
1.94949e-07
5.33786e-05
0.00267007
8.00161e-05
0.00260648
0.000105898
0.00251643
0.000130684
0.00239952
0.000154064
0.00225668
0.000175763
0.00208926
0.000195529
0.00189903
0.000213135
0.00168803
0.00022838
0.00145852
0.000241091
0.00121292
0.000251118
0.000953968
0.000258313
0.000684035
0.000262607
0.000406877
0.000124553
0.000263804
2.61715e-05
0.00268362
2.04856e-07
5.28829e-05
0.00264336
7.92788e-05
0.00258008
0.000104927
0.00249078
0.000129487
0.00237496
0.000152655
0.00223351
0.000174157
0.00206776
0.000193743
0.00187945
0.000211189
0.00167058
0.000226295
0.00144341
0.000238889
0.00120033
0.000248824
0.000944034
0.000255954
0.000676907
0.000260211
0.000402624
0.000123342
0.000261427
2.59227e-05
0.00265748
2.14349e-07
5.23919e-05
0.00261689
7.85482e-05
0.00255393
0.000103963
0.00246537
0.000128301
0.00235062
0.000151259
0.00221056
0.000172566
0.00204645
0.000191974
0.00186004
0.000209261
0.00165329
0.000224229
0.00142844
0.000236707
0.00118785
0.000246551
0.000934188
0.000253616
0.000669839
0.000257838
0.000398398
0.0001221
0.000259069
2.56764e-05
0.00263159
2.23433e-07
5.19054e-05
0.00259066
7.78243e-05
0.00252801
0.000103009
0.00244018
0.000127126
0.0023265
0.000149875
0.00218781
0.000170988
0.00202534
0.00019022
0.00184081
0.000207349
0.00163616
0.000222181
0.00141361
0.000234545
0.00117549
0.000244298
0.000924436
0.0002513
0.000662839
0.000255486
0.000394215
0.000120862
0.000256729
2.54326e-05
0.00260592
2.32106e-07
5.14234e-05
0.00256467
7.7107e-05
0.00250233
0.000102063
0.00241523
0.000125961
0.00230261
0.000148504
0.00216526
0.000169425
0.00200442
0.000188481
0.00182175
0.000205455
0.00161919
0.000220151
0.00139892
0.000232402
0.00116324
0.000242066
0.00091477
0.000249005
0.000655897
0.000253155
0.000390059
0.0001196
0.000254407
2.51912e-05
0.00258049
2.40362e-07
5.09459e-05
0.00253891
7.63963e-05
0.00247688
0.000101126
0.0023905
0.000124806
0.00227893
0.000147144
0.00214293
0.000167875
0.00198369
0.000186759
0.00180287
0.000203578
0.00160237
0.00021814
0.00138435
0.000230278
0.0011511
0.000239854
0.000905196
0.00024673
0.000649023
0.000250846
0.000385946
0.000118348
0.000252103
2.49522e-05
0.00255529
2.48194e-07
5.0473e-05
0.00251339
7.5692e-05
0.00245166
0.000100197
0.00236599
0.000123662
0.00225546
0.000145797
0.00212079
0.00016634
0.00196315
0.000185051
0.00178416
0.000201717
0.00158571
0.000216147
0.00136992
0.000228174
0.00113907
0.000237662
0.000895707
0.000244477
0.000642205
0.000248558
0.000381861
0.000117078
0.000249818
2.47156e-05
0.00253032
2.55595e-07
5.00044e-05
0.0024881
7.49942e-05
0.00242667
9.92761e-05
0.00234171
0.000122528
0.00223221
0.000144462
0.00209886
0.000164818
0.00194279
0.000183359
0.00176562
0.000199873
0.00156919
0.000214171
0.00135563
0.000226089
0.00112715
0.000235489
0.000886307
0.000242244
0.000635452
0.00024629
0.000377816
0.000115821
0.000247551
2.44814e-05
0.00250557
2.6256e-07
4.95403e-05
0.00246305
7.43028e-05
0.0024019
9.83639e-05
0.00231765
0.000121405
0.00220917
0.000143139
0.00207712
0.00016331
0.00192262
0.000181682
0.00174724
0.000198046
0.00155283
0.000212214
0.00134146
0.000224022
0.00111534
0.000233337
0.00087699
0.000240031
0.000628755
0.000244044
0.000373799
0.000114552
0.000245304
2.42496e-05
0.00248106
2.69085e-07
4.90805e-05
0.00243822
7.36177e-05
0.00237737
9.746e-05
0.00229381
0.000120291
0.00218634
0.000141828
0.00205559
0.000161815
0.00190263
0.00018002
0.00172904
0.000196235
0.00153661
0.000210274
0.00132742
0.000221974
0.00110364
0.000231204
0.000867762
0.000237839
0.000622122
0.000241817
0.000369823
0.000113298
0.000243075
2.40201e-05
0.00245676
2.75176e-07
4.8625e-05
0.00241361
7.2939e-05
0.00235305
9.65643e-05
0.00227018
0.000119188
0.00216371
0.000140529
0.00203425
0.000160334
0.00188283
0.000178373
0.001711
0.00019444
0.00152055
0.000208351
0.00131351
0.000219945
0.00109205
0.000229091
0.000858614
0.000235667
0.000615543
0.000239611
0.000365874
0.000112035
0.000240866
2.3793e-05
0.00243269
2.80839e-07
4.81738e-05
0.00238923
7.22665e-05
0.00232896
9.56768e-05
0.00224677
0.000118094
0.0021413
0.000139241
0.0020131
0.000158866
0.0018632
0.000176741
0.00169312
0.000192662
0.00150463
0.000206446
0.00129972
0.000217935
0.00108056
0.000226997
0.000849553
0.000233515
0.000609027
0.000237426
0.000361964
0.000110789
0.000238675
2.35681e-05
0.00240883
2.8609e-07
4.77269e-05
0.00236507
7.16002e-05
0.00230509
9.47974e-05
0.00222358
0.000117011
0.00211908
0.000137965
0.00199215
0.000157411
0.00184376
0.000175124
0.00167541
0.0001909
0.00148885
0.000204558
0.00128607
0.000215942
0.00106918
0.000224922
0.00084057
0.000231382
0.000602565
0.00023526
0.000358082
0.000109536
0.000236504
2.33455e-05
0.0023852
2.90948e-07
4.72843e-05
0.00234113
7.094e-05
0.00228143
9.39259e-05
0.00220059
0.000115937
0.00209707
0.0001367
0.00197138
0.00015597
0.00182449
0.000173521
0.00165786
0.000189153
0.00147322
0.000202687
0.00127253
0.000213968
0.0010579
0.000222866
0.000831673
0.000229269
0.000596164
0.000233114
0.000354238
0.000108301
0.000234352
2.31252e-05
0.00236177
2.95441e-07
4.68458e-05
0.00231741
7.02859e-05
0.00225799
9.30624e-05
0.00217781
0.000114873
0.00207526
0.000135447
0.00195081
0.000154541
0.00180539
0.000171933
0.00164047
0.000187422
0.00145773
0.000200833
0.00125912
0.000212011
0.00104672
0.000220829
0.000822853
0.000227175
0.000589815
0.000230987
0.000350421
0.000107061
0.000232219
2.29071e-05
0.00233857
2.99602e-07
4.64114e-05
0.00229391
6.96379e-05
0.00223477
9.22068e-05
0.00215525
0.000113819
0.00205365
0.000134206
0.00193042
0.000153126
0.00178647
0.000170359
0.00162323
0.000185707
0.00144238
0.000198996
0.00124583
0.000210072
0.00103564
0.00021881
0.000814117
0.0002251
0.000583527
0.00022888
0.000346642
0.000105838
0.000230106
2.26911e-05
0.00231557
3.03466e-07
4.59811e-05
0.00227062
6.89959e-05
0.00221175
9.13591e-05
0.00213288
0.000112774
0.00203223
0.000132975
0.00191022
0.000151723
0.00176773
0.000168799
0.00160616
0.000184008
0.00142717
0.000197176
0.00123266
0.000208151
0.00102467
0.00021681
0.000805456
0.000223043
0.00057729
0.000226792
0.00034289
0.000104611
0.000228011
2.24773e-05
0.00229279
3.07072e-07
4.55549e-05
0.00224754
6.83597e-05
0.00218895
9.05191e-05
0.00211072
0.000111739
0.00201101
0.000131756
0.0018902
0.000150333
0.00174915
0.000167254
0.00158924
0.000182324
0.0014121
0.000195372
0.00121962
0.000206247
0.00101379
0.000214827
0.000796877
0.000221006
0.000571113
0.000224722
0.000339175
0.000103401
0.000225935
2.22656e-05
0.00227021
3.10459e-07
4.51327e-05
0.00222467
6.77295e-05
0.00216635
8.96867e-05
0.00208877
0.000110713
0.00198999
0.000130548
0.00187037
0.000148955
0.00173074
0.000165722
0.00157247
0.000180655
0.00139717
0.000193584
0.00120669
0.000204361
0.00100301
0.000212863
0.000788373
0.000218987
0.000564986
0.000222672
0.000335486
0.000102189
0.000223878
2.2056e-05
0.00224784
3.13666e-07
4.47144e-05
0.00220202
6.7105e-05
0.00214396
8.8862e-05
0.00206701
0.000109697
0.00196915
0.00012935
0.00185072
0.00014759
0.0017125
0.000164204
0.00155586
0.000179002
0.00138237
0.000191813
0.00119387
0.000202492
0.000992335
0.000210917
0.000779948
0.000216987
0.000558918
0.00022064
0.000331833
0.000100992
0.000221839
2.18484e-05
0.00222568
3.16731e-07
4.43e-05
0.00217956
6.64863e-05
0.00212177
8.80448e-05
0.00204545
0.000108689
0.00194851
0.000128164
0.00183124
0.000146238
0.00169443
0.000162701
0.00153939
0.000177363
0.00136771
0.000190058
0.00118118
0.00020064
0.000981752
0.000208989
0.000771598
0.000215004
0.0005529
0.000218626
0.000328208
9.9795e-05
0.000219817
2.16429e-05
0.00220372
3.19685e-07
4.38895e-05
0.00215732
6.58733e-05
0.00209979
8.72351e-05
0.00202409
0.000107691
0.00192805
0.000126988
0.00181194
0.000144898
0.00167652
0.00016121
0.00152308
0.000175739
0.00135318
0.000188319
0.0011686
0.000198805
0.000971267
0.000207078
0.000763325
0.00021304
0.000546939
0.000216631
0.000324617
9.86144e-05
0.000217813
2.14392e-05
0.00218195
3.22561e-07
4.34827e-05
0.00213527
6.52659e-05
0.00207801
8.64327e-05
0.00200292
0.000106702
0.00190778
0.000125824
0.00179282
0.000143569
0.00165877
0.000159734
0.00150691
0.000174131
0.00133878
0.000186596
0.00115613
0.000196986
0.000960875
0.000205185
0.000755125
0.000211094
0.000541028
0.000214654
0.000321054
9.7435e-05
0.000215827
2.12375e-05
0.00216039
3.25383e-07
4.30797e-05
0.00211343
6.4664e-05
0.00205642
8.56377e-05
0.00198195
0.000105723
0.0018877
0.000124669
0.00177388
0.000142253
0.00164119
0.000158271
0.0014909
0.000172536
0.00132452
0.000184888
0.00114378
0.000195184
0.00095058
0.000203309
0.000747001
0.000209165
0.000535172
0.000212694
0.000317526
9.62724e-05
0.000213858
2.10377e-05
0.00213902
3.28175e-07
4.26805e-05
0.00209179
6.40677e-05
0.00203503
8.48499e-05
0.00196117
0.000104751
0.00186779
0.000123525
0.0017551
0.000140949
0.00162376
0.000156821
0.00147503
0.000170957
0.00131038
0.000183196
0.00113154
0.000193399
0.000940376
0.00020145
0.000738948
0.000207254
0.000529365
0.000210752
0.000314024
9.51122e-05
0.000211907
2.08398e-05
0.00211785
3.30954e-07
4.22849e-05
0.00207034
6.34768e-05
0.00201384
8.40693e-05
0.00194057
0.000103789
0.00184807
0.000122392
0.0017365
0.000139657
0.0016065
0.000155384
0.0014593
0.000169391
0.00129637
0.000181519
0.00111941
0.00019163
0.000930266
0.000199608
0.00073097
0.000205361
0.000523613
0.000208828
0.000310557
9.39686e-05
0.000209973
2.06436e-05
0.00209688
3.33739e-07
4.18928e-05
0.00204909
6.28913e-05
0.00199284
8.32958e-05
0.00192017
0.000102836
0.00182853
0.000121269
0.00171807
0.000138377
0.00158939
0.00015396
0.00144372
0.00016784
0.00128249
0.000179858
0.0011074
0.000189877
0.000920246
0.000197783
0.000723062
0.000203484
0.000517909
0.000206921
0.000307117
9.2828e-05
0.000208057
2.04493e-05
0.00207609
3.36543e-07
4.15044e-05
0.00202804
6.23111e-05
0.00197204
8.25293e-05
0.00189995
0.000101891
0.00180917
0.000120156
0.0016998
0.000137108
0.00157244
0.000152549
0.00142827
0.000166303
0.00126874
0.000178212
0.00109549
0.000188139
0.000910319
0.000195974
0.000715228
0.000201625
0.000512259
0.000205032
0.00030371
9.17029e-05
0.000206158
2.02567e-05
0.00205549
3.39381e-07
4.11195e-05
0.00200718
6.17361e-05
0.00195142
8.17698e-05
0.00187992
0.000100955
0.00178999
0.000119053
0.0016817
0.000135851
0.00155564
0.000151152
0.00141297
0.00016478
0.00125511
0.00017658
0.00108369
0.000186418
0.00090048
0.000194182
0.000707463
0.000199782
0.000506657
0.00020316
0.000300329
9.05809e-05
0.000204277
2.00658e-05
0.00203509
3.42262e-07
4.07381e-05
0.0019865
6.11664e-05
0.00193099
8.10171e-05
0.00186007
0.000100027
0.00177098
0.00011796
0.00166377
0.000134605
0.001539
0.000149766
0.00139781
0.000163271
0.00124161
0.000174964
0.00107199
0.000184712
0.000890732
0.000192406
0.000699769
0.000197957
0.000501107
0.000201305
0.000296981
8.94733e-05
0.000202413
1.98766e-05
0.00201486
3.45201e-07
4.036e-05
0.00196602
6.06018e-05
0.00191075
8.02713e-05
0.0018404
9.91077e-05
0.00175214
0.000116877
0.001646
0.00013337
0.00152251
0.000148394
0.00138279
0.000161775
0.00122823
0.000173362
0.00106041
0.000183022
0.00088107
0.000190647
0.000692143
0.000196147
0.000495605
0.000199466
0.00029366
8.83692e-05
0.000200566
1.96891e-05
0.00199483
3.48207e-07
3.99854e-05
0.00194573
6.00423e-05
0.00189069
7.95321e-05
0.00182091
9.81966e-05
0.00173348
0.000115804
0.00162839
0.000132147
0.00150616
0.000147033
0.0013679
0.000160293
0.00121497
0.000171775
0.00104892
0.000181348
0.000871498
0.000188903
0.000684588
0.000194355
0.000490153
0.000197644
0.00029037
8.72788e-05
0.000198735
1.95032e-05
0.00197497
3.51292e-07
3.96141e-05
0.00192561
5.94878e-05
0.00187082
7.87997e-05
0.0018016
9.72938e-05
0.00171498
0.000114741
0.00161094
0.000130934
0.00148997
0.000145685
0.00135315
0.000158825
0.00120183
0.000170202
0.00103755
0.000179688
0.000862011
0.000187175
0.0006771
0.000192578
0.000484749
0.000195839
0.000287107
8.61923e-05
0.000196921
1.93189e-05
0.0019553
3.54467e-07
3.92461e-05
0.00190569
5.89383e-05
0.00185113
7.80738e-05
0.00178246
9.63992e-05
0.00169666
0.000113687
0.00159366
0.000129733
0.00147392
0.00014435
0.00133853
0.00015737
0.00118881
0.000168644
0.00102627
0.000178044
0.000852611
0.000185464
0.00066968
0.000190818
0.000479395
0.00019405
0.000283874
8.51192e-05
0.000195123
1.91362e-05
0.00193581
3.57745e-07
3.88814e-05
0.00188594
5.83937e-05
0.00183161
7.73545e-05
0.0017635
9.55126e-05
0.0016785
0.000112643
0.00157653
0.000128542
0.00145802
0.000143026
0.00132405
0.000155928
0.0011759
0.0001671
0.0010151
0.000176415
0.000843295
0.000183767
0.000662326
0.000189074
0.000474087
0.000192277
0.000280668
8.40508e-05
0.000193342
1.8955e-05
0.00191649
3.61136e-07
3.85198e-05
0.00186638
5.7854e-05
0.00181228
7.66416e-05
0.00174471
9.4634e-05
0.00166051
0.000111608
0.00155955
0.000127363
0.00144227
0.000141715
0.0013097
0.000154499
0.00116312
0.00016557
0.00100403
0.0001748
0.000834065
0.000182086
0.00065504
0.000187345
0.000468828
0.00019052
0.000277493
8.29953e-05
0.000191576
1.87754e-05
0.00189735
3.64652e-07
3.81615e-05
0.00184699
5.7319e-05
0.00179312
7.59351e-05
0.0017261
9.37633e-05
0.00164268
0.000110583
0.00154273
0.000126194
0.00142666
0.000140415
0.00129547
0.000153083
0.00115045
0.000164053
0.000993059
0.0001732
0.000824917
0.000180421
0.000647818
0.000185633
0.000463615
0.00018878
0.000274344
8.19454e-05
0.000189826
1.85972e-05
0.00187838
3.68303e-07
3.78063e-05
0.00182778
5.67889e-05
0.00177414
7.5235e-05
0.00170765
9.29005e-05
0.00162501
0.000109566
0.00152607
0.000125035
0.00141119
0.000139128
0.00128138
0.000151681
0.0011379
0.000162551
0.000982188
0.000171615
0.000815853
0.000178771
0.000640663
0.000183936
0.00045845
0.000187055
0.000271224
8.09086e-05
0.000188091
1.84206e-05
0.00185959
3.72102e-07
3.74542e-05
0.00180875
5.62634e-05
0.00175533
7.45411e-05
0.00168937
9.20454e-05
0.00160751
0.000108559
0.00150955
0.000123888
0.00139586
0.000137852
0.00126742
0.00015029
0.00112546
0.000161062
0.000971416
0.000170045
0.00080687
0.000177136
0.000633571
0.000182254
0.000453329
0.000185345
0.000268131
7.98785e-05
0.000186372
1.82454e-05
0.00184097
3.76053e-07
3.71052e-05
0.00178989
5.57426e-05
0.00173669
7.38535e-05
0.00167126
9.11981e-05
0.00159016
0.000107562
0.00149319
0.00012275
0.00138067
0.000136587
0.00125358
0.000148913
0.00111313
0.000159587
0.000960742
0.000168488
0.000797969
0.000175515
0.000626544
0.000180588
0.000448256
0.000183651
0.000265068
7.88613e-05
0.000184668
1.80717e-05
0.00182252
3.80167e-07
3.67593e-05
0.0017712
5.52265e-05
0.00171823
7.3172e-05
0.00165332
9.03583e-05
0.00157298
0.000106573
0.00147697
0.000121623
0.00136562
0.000135334
0.00123987
0.000147548
0.00110092
0.000158126
0.000950163
0.000166946
0.000789147
0.00017391
0.000619579
0.000178937
0.000443228
0.000181973
0.00026203
7.78516e-05
0.00018298
1.78994e-05
0.00180423
3.84446e-07
3.64163e-05
0.00175268
5.47149e-05
0.00169993
7.24966e-05
0.00163553
8.95262e-05
0.00155595
0.000105593
0.00146091
0.000120506
0.00135071
0.000134092
0.00122628
0.000146196
0.00108882
0.000156677
0.000939682
0.000165418
0.000780407
0.000172319
0.000612678
0.000177301
0.000438245
0.00018031
0.000259021
7.6854e-05
0.000181307
1.77286e-05
0.00178612
3.88895e-07
3.60764e-05
0.00173434
5.42079e-05
0.00168179
7.18273e-05
0.00161792
8.87015e-05
0.00153907
0.000104622
0.00144499
0.000119399
0.00133593
0.000132862
0.00121282
0.000144856
0.00107682
0.000155242
0.000929294
0.000163904
0.000771744
0.000170743
0.000605838
0.00017568
0.000433306
0.000178662
0.000256037
7.5864e-05
0.000179649
1.75591e-05
0.00176816
3.93512e-07
3.57394e-05
0.00171616
5.37054e-05
0.00166383
7.11639e-05
0.00160046
8.78843e-05
0.00152235
0.000103659
0.00142921
0.000118302
0.00132129
0.000131643
0.00119948
0.000143528
0.00106494
0.00015382
0.000919002
0.000162404
0.000763161
0.000169181
0.000599061
0.000174074
0.000428413
0.000177029
0.000253081
7.48847e-05
0.000178008
1.73911e-05
0.00175037
3.98297e-07
3.54054e-05
0.00169814
5.32073e-05
0.00164603
7.05065e-05
0.00158316
8.70744e-05
0.00150578
0.000102706
0.00141358
0.000117216
0.00130678
0.000130435
0.00118626
0.000142212
0.00105316
0.000152411
0.000908802
0.000160917
0.000754654
0.000167633
0.000592344
0.000172483
0.000423562
0.000175411
0.000250151
7.39122e-05
0.000176381
1.72244e-05
0.00173275
4.03245e-07
3.50743e-05
0.00168029
5.27137e-05
0.00162839
6.9855e-05
0.00156602
8.62718e-05
0.00148937
0.000101761
0.00139809
0.000116139
0.0012924
0.000129238
0.00117316
0.000140908
0.00104149
0.000151015
0.000898695
0.000159444
0.000746225
0.0001661
0.000585689
0.000170905
0.000418756
0.000173808
0.000247248
7.29493e-05
0.00017477
1.7059e-05
0.00171528
4.08353e-07
3.4746e-05
0.0016626
5.22244e-05
0.00161091
6.92093e-05
0.00154903
8.54765e-05
0.0014731
0.000100824
0.00138274
0.000115071
0.00127815
0.000128052
0.00116018
0.000139616
0.00102993
0.000149632
0.000888679
0.000157985
0.000737871
0.00016458
0.000579093
0.000169343
0.000413992
0.000172219
0.00024437
7.19933e-05
0.000173173
1.6895e-05
0.00169797
4.1361e-07
3.44206e-05
0.00164508
5.17394e-05
0.00159359
6.85694e-05
0.0015322
8.46883e-05
0.00145698
9.98965e-05
0.00136754
0.000114014
0.00126403
0.000126877
0.00114732
0.000138336
0.00101847
0.000148261
0.000878754
0.000156538
0.000729593
0.000163074
0.000572556
0.000167794
0.000409272
0.000170645
0.000241518
7.10462e-05
0.000171591
1.67323e-05
0.00168082
4.19009e-07
3.4098e-05
0.00162771
5.12588e-05
0.00157643
6.79352e-05
0.00151552
8.39071e-05
0.00144101
9.89769e-05
0.00135247
0.000112966
0.00125005
0.000125712
0.00113457
0.000137067
0.00100711
0.000146902
0.000868918
0.000155105
0.00072139
0.000161582
0.000566079
0.00016626
0.000404593
0.000169085
0.000238691
7.01066e-05
0.000170023
1.6571e-05
0.00166382
4.24539e-07
3.37782e-05
0.00161051
5.07824e-05
0.00155943
6.73067e-05
0.001499
8.3133e-05
0.00142518
9.80656e-05
0.00133753
0.000111928
0.00123618
0.000124558
0.00112194
0.00013581
0.000995858
0.000145557
0.000859172
0.000153686
0.000713261
0.000160104
0.00055966
0.00016474
0.000399958
0.00016754
0.00023589
6.9176e-05
0.000168469
1.6411e-05
0.00164698
4.3019e-07
3.34612e-05
0.00159346
5.03102e-05
0.00154258
6.66837e-05
0.00148263
8.23659e-05
0.0014095
9.71626e-05
0.00132274
0.000110899
0.00122245
0.000123414
0.00110942
0.000134565
0.000984707
0.000144223
0.000849513
0.000152279
0.000705205
0.00015864
0.000553298
0.000163234
0.000395363
0.000166008
0.000233113
6.8254e-05
0.000166929
1.62523e-05
0.00163029
4.35949e-07
3.31469e-05
0.00157656
4.98422e-05
0.00152588
6.60664e-05
0.0014664
8.16057e-05
0.00139396
9.62678e-05
0.00130808
0.000109879
0.00120884
0.000122281
0.00109702
0.000133331
0.000973657
0.000142902
0.000839942
0.000150885
0.000697222
0.000157189
0.000546994
0.000161741
0.00039081
0.000164491
0.000230362
6.73407e-05
0.000165403
1.60948e-05
0.00161376
4.41806e-07
3.28354e-05
0.00155982
4.93783e-05
0.00150934
6.54546e-05
0.00145033
8.08524e-05
0.00137856
9.53811e-05
0.00129355
0.000108869
0.00119535
0.000121158
0.00108473
0.000132108
0.000962707
0.000141593
0.000830457
0.000149504
0.000689311
0.000155751
0.000540746
0.000160262
0.000386297
0.000162987
0.000227636
6.64363e-05
0.00016389
1.59387e-05
0.00159737
4.47748e-07
3.25266e-05
0.00154323
4.89186e-05
0.00149295
6.48483e-05
0.0014344
8.01059e-05
0.00136331
9.45025e-05
0.00127915
0.000107868
0.00118198
0.000120046
0.00107255
0.000130897
0.000951856
0.000140296
0.000821058
0.000148135
0.000681471
0.000154326
0.000534555
0.000158797
0.000381826
0.000161498
0.000224934
6.554e-05
0.000162392
1.57839e-05
0.00158113
4.53767e-07
3.22205e-05
0.0015268
4.8463e-05
0.0014767
6.42475e-05
0.00141861
7.93662e-05
0.00134819
9.36319e-05
0.00126488
0.000106876
0.00116874
0.000118944
0.00106049
0.000129696
0.000941103
0.00013901
0.000811744
0.000146779
0.000673701
0.000152914
0.000528419
0.000157346
0.000377394
0.000160022
0.000222257
6.46526e-05
0.000160908
1.56304e-05
0.00156504
4.59849e-07
3.19171e-05
0.00151051
4.80114e-05
0.00146061
6.36521e-05
0.00140297
7.86331e-05
0.00133321
9.27692e-05
0.00125075
0.000105893
0.00115561
0.000117852
0.00104853
0.000128507
0.000930448
0.000137737
0.000802514
0.000145436
0.000666002
0.000151516
0.000522339
0.000155907
0.000373002
0.000158559
0.000219603
6.37721e-05
0.000159438
1.54781e-05
0.0015491
4.65986e-07
3.16163e-05
0.00149437
4.75639e-05
0.00144466
6.30621e-05
0.00138747
7.79068e-05
0.00131836
9.19144e-05
0.00123674
0.000104919
0.00114261
0.000116769
0.00103668
0.000127328
0.000919889
0.000136475
0.000793367
0.000144105
0.000658372
0.00015013
0.000516313
0.000154482
0.00036865
0.00015711
0.000216974
6.29007e-05
0.000157981
1.53271e-05
0.0015333
4.72168e-07
3.13182e-05
0.00147838
4.71204e-05
0.00142886
6.24774e-05
0.00137212
7.7187e-05
0.00130365
9.10674e-05
0.00122286
0.000103954
0.00112972
0.000115697
0.00102493
0.000126161
0.000909425
0.000135225
0.000784303
0.000142786
0.000650811
0.000148757
0.000510341
0.00015307
0.000364336
0.000155674
0.000214368
6.20356e-05
0.000156537
1.51774e-05
0.00151764
4.78386e-07
3.10228e-05
0.00146253
4.66809e-05
0.0014132
6.1898e-05
0.0013569
7.64738e-05
0.00128908
9.02281e-05
0.00120911
0.000102998
0.00111695
0.000114635
0.0010133
0.000125004
0.000899056
0.000133986
0.00077532
0.000141479
0.000643318
0.000147397
0.000504423
0.000151671
0.000360062
0.000154252
0.000211786
6.11803e-05
0.000155106
1.5029e-05
0.00150213
4.84629e-07
3.07299e-05
0.00144683
4.62453e-05
0.00139768
6.13238e-05
0.00134182
7.5767e-05
0.00127463
8.93964e-05
0.00119548
0.000102051
0.0011043
0.000113582
0.00100177
0.000123858
0.00088878
0.000132759
0.000766418
0.000140185
0.000635892
0.000146049
0.000498558
0.000150284
0.000355826
0.000152842
0.000209226
6.03313e-05
0.000153688
1.48818e-05
0.00148675
4.90889e-07
3.04397e-05
0.00143128
4.58137e-05
0.00138231
6.07548e-05
0.00132688
7.50667e-05
0.00126032
8.85724e-05
0.00118197
0.000101112
0.00109176
0.000112539
0.000990338
0.000122722
0.000878597
0.000131543
0.000757597
0.000138902
0.000628533
0.000144714
0.000492746
0.000148911
0.000351628
0.000151445
0.000206691
5.94932e-05
0.000152283
1.47359e-05
0.00147152
4.97154e-07
3.0152e-05
0.00141586
4.53859e-05
0.00136708
6.0191e-05
0.00131207
7.43728e-05
0.00124614
8.77559e-05
0.00116859
0.000100182
0.00107933
0.000111506
0.000979014
0.000121597
0.000868506
0.000130338
0.000748854
0.000137631
0.00062124
0.000143391
0.000486986
0.00014755
0.000347467
0.000150062
0.000204178
5.86615e-05
0.00015089
1.45913e-05
0.00145643
5.03418e-07
2.98669e-05
0.00140058
4.4962e-05
0.00135198
5.96323e-05
0.0012974
7.36852e-05
0.00123208
8.69469e-05
0.00115532
9.92603e-05
0.00106702
0.000110482
0.000967792
0.000120482
0.000858506
0.000129145
0.000740191
0.000136372
0.000614012
0.00014208
0.000481278
0.000146202
0.000343345
0.000148691
0.000201689
5.78416e-05
0.000149511
1.44479e-05
0.00144147
5.09668e-07
2.95844e-05
0.00138545
4.45419e-05
0.00133702
5.90787e-05
0.00128287
7.30039e-05
0.00121816
8.61453e-05
0.00114218
9.83473e-05
0.00105482
0.000109467
0.000956672
0.000119377
0.000848596
0.000127962
0.000731606
0.000135125
0.00060685
0.000140781
0.000475621
0.000144867
0.000339258
0.000147332
0.000199221
5.70277e-05
0.000148143
1.43058e-05
0.00142665
5.15899e-07
2.93043e-05
0.00137045
4.41257e-05
0.0013222
5.85302e-05
0.00126846
7.23289e-05
0.00120436
8.53511e-05
0.00112916
9.74427e-05
0.00104273
0.000108462
0.000945652
0.000118283
0.000838775
0.000126791
0.000723097
0.000133889
0.000599752
0.000139494
0.000470015
0.000143543
0.00033521
0.000145987
0.000196778
5.62255e-05
0.000146789
1.41649e-05
0.00141196
5.221e-07
2.90269e-05
0.00135559
4.37132e-05
0.00130752
5.79867e-05
0.00125419
7.16601e-05
0.00119069
8.45642e-05
0.00111626
9.65464e-05
0.00103074
0.000107467
0.000934732
0.000117199
0.000829043
0.00012563
0.000714666
0.000132664
0.000592717
0.00013822
0.000464459
0.000142232
0.000331196
0.000144653
0.000194354
5.54281e-05
0.000145448
1.40253e-05
0.00139741
5.28267e-07
2.87519e-05
0.00134086
4.33045e-05
0.00129296
5.74482e-05
0.00124005
7.09974e-05
0.00117714
8.37846e-05
0.00110347
9.56585e-05
0.00101887
0.00010648
0.00092391
0.000116124
0.000819399
0.00012448
0.00070631
0.000131451
0.000585746
0.000136957
0.000458953
0.000140933
0.00032722
0.000143332
0.000191955
5.46416e-05
0.000144119
1.38869e-05
0.00138299
5.3439e-07
2.84794e-05
0.00132627
4.28996e-05
0.00127854
5.69146e-05
0.00122603
7.03408e-05
0.00116371
8.30122e-05
0.0010908
9.47787e-05
0.0010071
0.000105503
0.000913186
0.00011506
0.000809841
0.000123341
0.000698029
0.000130249