1.45 	0 	0 	-0.00613422 	-0.00270378 	3.91936e-21
2.35 	0 	0 	0.067212 	-0.00680139 	2.44156e-21
