1.45 	0 	0 	-0.00813505 	-0.00258503 	1.65343e-20
2.35 	0 	0 	0.0621235 	-0.00662751 	9.8874e-21
