/*--------------------------------*- C++ -*----------------------------------*\
  =========                 |
  \\      /  F ield         | OpenFOAM: The Open Source CFD Toolbox
   \\    /   O peration     | Website:  https://openfoam.org
    \\  /    A nd           | Version:  6.0
     \\/     M anipulation  |
\*---------------------------------------------------------------------------*/
FoamFile
{
    version     2.0;
    format      ascii;
    class       volScalarField;
    location    "149";
    object      p;
}
// * * * * * * * * * * * * * * * * * * * * * * * * * * * * * * * * * * * * * //

dimensions      [0 2 -2 0 0 0 0];

internalField   nonuniform List<scalar> 
34500
(
1.00615
1.00634
1.00632
1.00614
1.00583
1.00541
1.00491
1.00437
1.00382
1.00328
1.00276
1.00233
1.00179
1.00164
1.00171
1.00616
1.00637
1.00642
1.00633
1.00611
1.0058
1.0054
1.00493
1.00443
1.00392
1.00338
1.00295
1.00233
1.00231
1.00227
1.00616
1.00636
1.00639
1.00626
1.006
1.00563
1.00519
1.00468
1.00414
1.00361
1.00306
1.00263
1.00207
1.0022
1.00213
1.00616
1.00636
1.00637
1.00621
1.00591
1.00552
1.00504
1.00451
1.00396
1.00343
1.00289
1.00248
1.00198
1.00222
1.00233
1.00617
1.00637
1.00638
1.00623
1.00594
1.00556
1.00509
1.00457
1.00403
1.00351
1.00298
1.00259
1.00212
1.0024
1.0026
1.00618
1.00638
1.0064
1.00626
1.00599
1.00561
1.00516
1.00465
1.00412
1.0036
1.00307
1.00268
1.00222
1.00252
1.00276
1.00618
1.00639
1.00642
1.00628
1.00601
1.00564
1.00518
1.00467
1.00414
1.00362
1.00309
1.00271
1.00226
1.00259
1.00287
1.00619
1.00641
1.00643
1.0063
1.00603
1.00565
1.00519
1.00468
1.00415
1.00363
1.00311
1.00273
1.00231
1.00265
1.00298
1.00621
1.00642
1.00645
1.00632
1.00605
1.00568
1.00522
1.00471
1.00418
1.00366
1.00314
1.00277
1.00237
1.0027
1.00307
1.00622
1.00643
1.00647
1.00635
1.00608
1.00571
1.00526
1.00475
1.00422
1.0037
1.00319
1.00282
1.00243
1.00275
1.00313
1.00623
1.00645
1.00648
1.00637
1.00611
1.00575
1.00529
1.00479
1.00425
1.00374
1.00322
1.00286
1.00248
1.00279
1.00318
1.00625
1.00647
1.0065
1.00639
1.00614
1.00578
1.00533
1.00482
1.00428
1.00377
1.00326
1.00289
1.00252
1.00281
1.00321
1.00627
1.00649
1.00652
1.00641
1.00616
1.0058
1.00536
1.00485
1.00431
1.0038
1.00328
1.00292
1.00256
1.00283
1.00322
1.00628
1.00651
1.00654
1.00644
1.00619
1.00583
1.00538
1.00488
1.00434
1.00382
1.00331
1.00294
1.00259
1.00284
1.00323
1.0063
1.00653
1.00657
1.00646
1.00621
1.00586
1.00541
1.0049
1.00437
1.00385
1.00333
1.00297
1.00262
1.00285
1.00323
1.00632
1.00655
1.00659
1.00648
1.00623
1.00588
1.00543
1.00493
1.00439
1.00387
1.00335
1.00299
1.00265
1.00285
1.00322
1.00635
1.00657
1.00661
1.00651
1.00626
1.0059
1.00546
1.00495
1.00441
1.00389
1.00337
1.00301
1.00268
1.00286
1.00321
1.00637
1.0066
1.00664
1.00654
1.00629
1.00593
1.00548
1.00497
1.00443
1.00391
1.0034
1.00303
1.0027
1.00286
1.00319
1.00639
1.00663
1.00667
1.00657
1.00632
1.00596
1.00551
1.005
1.00446
1.00393
1.00342
1.00305
1.00273
1.00286
1.00317
1.00642
1.00666
1.0067
1.0066
1.00635
1.00599
1.00554
1.00503
1.00449
1.00396
1.00345
1.00307
1.00275
1.00285
1.00315
1.00644
1.00669
1.00673
1.00663
1.00639
1.00603
1.00558
1.00507
1.00452
1.00399
1.00347
1.00309
1.00277
1.00285
1.00312
1.00647
1.00672
1.00676
1.00667
1.00642
1.00607
1.00561
1.0051
1.00455
1.00402
1.0035
1.00311
1.00279
1.00284
1.00309
1.0065
1.00675
1.0068
1.00671
1.00646
1.0061
1.00565
1.00513
1.00458
1.00404
1.00352
1.00313
1.0028
1.00283
1.00305
1.00653
1.00678
1.00683
1.00674
1.0065
1.00614
1.00569
1.00517
1.00461
1.00407
1.00354
1.00314
1.00281
1.00282
1.00302
1.00657
1.00682
1.00687
1.00678
1.00654
1.00618
1.00572
1.0052
1.00464
1.0041
1.00356
1.00316
1.00282
1.0028
1.00298
1.0066
1.00686
1.00691
1.00682
1.00658
1.00622
1.00576
1.00524
1.00467
1.00412
1.00358
1.00317
1.00283
1.00279
1.00294
1.00663
1.00689
1.00694
1.00686
1.00662
1.00626
1.0058
1.00527
1.0047
1.00414
1.0036
1.00318
1.00283
1.00277
1.0029
1.00667
1.00693
1.00698
1.0069
1.00666
1.0063
1.00583
1.0053
1.00473
1.00417
1.00362
1.00319
1.00284
1.00275
1.00286
1.00671
1.00698
1.00703
1.00694
1.0067
1.00634
1.00587
1.00534
1.00476
1.00419
1.00364
1.0032
1.00284
1.00273
1.00281
1.00675
1.00702
1.00707
1.00699
1.00674
1.00638
1.00591
1.00537
1.00479
1.00421
1.00365
1.0032
1.00284
1.00271
1.00277
1.00679
1.00706
1.00711
1.00703
1.00678
1.00642
1.00594
1.0054
1.00481
1.00423
1.00367
1.00321
1.00284
1.00268
1.00273
1.00683
1.00711
1.00716
1.00708
1.00683
1.00646
1.00598
1.00543
1.00484
1.00425
1.00368
1.00322
1.00283
1.00266
1.00268
1.00688
1.00716
1.00721
1.00713
1.00687
1.0065
1.00602
1.00547
1.00487
1.00428
1.0037
1.00322
1.00283
1.00264
1.00264
1.00692
1.00721
1.00726
1.00718
1.00692
1.00655
1.00606
1.00551
1.0049
1.0043
1.00371
1.00322
1.00282
1.00261
1.00259
1.00697
1.00726
1.00731
1.00723
1.00697
1.0066
1.00611
1.00554
1.00493
1.00432
1.00373
1.00323
1.00282
1.00259
1.00254
1.00702
1.00731
1.00736
1.00729
1.00703
1.00665
1.00615
1.00558
1.00496
1.00434
1.00374
1.00323
1.00281
1.00256
1.0025
1.00707
1.00736
1.00742
1.00734
1.00708
1.0067
1.0062
1.00562
1.005
1.00437
1.00376
1.00323
1.0028
1.00253
1.00245
1.00712
1.00742
1.00748
1.0074
1.00714
1.00675
1.00625
1.00566
1.00503
1.00439
1.00377
1.00324
1.00279
1.00251
1.0024
1.00717
1.00748
1.00753
1.00746
1.00719
1.00681
1.0063
1.0057
1.00506
1.00441
1.00378
1.00324
1.00278
1.00248
1.00235
1.00723
1.00753
1.00759
1.00752
1.00725
1.00686
1.00634
1.00575
1.00509
1.00444
1.00379
1.00323
1.00277
1.00244
1.0023
1.00728
1.00759
1.00765
1.00758
1.00731
1.00691
1.00639
1.00579
1.00512
1.00446
1.0038
1.00323
1.00275
1.00241
1.00225
1.00734
1.00765
1.00771
1.00764
1.00737
1.00697
1.00644
1.00582
1.00515
1.00448
1.00381
1.00323
1.00273
1.00238
1.0022
1.0074
1.00772
1.00777
1.0077
1.00742
1.00702
1.00649
1.00586
1.00518
1.00449
1.00382
1.00322
1.00271
1.00234
1.00215
1.00746
1.00778
1.00784
1.00776
1.00748
1.00708
1.00653
1.0059
1.00521
1.00451
1.00383
1.00322
1.0027
1.00231
1.00209
1.00753
1.00785
1.0079
1.00783
1.00755
1.00713
1.00658
1.00594
1.00524
1.00453
1.00383
1.00321
1.00268
1.00227
1.00204
1.00759
1.00792
1.00797
1.00789
1.00761
1.00719
1.00663
1.00599
1.00527
1.00455
1.00384
1.0032
1.00266
1.00224
1.00199
1.00766
1.00799
1.00804
1.00796
1.00767
1.00725
1.00668
1.00603
1.00531
1.00457
1.00385
1.00319
1.00263
1.0022
1.00193
1.00773
1.00806
1.00811
1.00803
1.00774
1.00731
1.00674
1.00607
1.00534
1.00459
1.00385
1.00319
1.00261
1.00216
1.00188
1.0078
1.00813
1.00819
1.00811
1.00781
1.00737
1.00679
1.00612
1.00537
1.00461
1.00386
1.00318
1.00259
1.00212
1.00183
1.00787
1.00821
1.00826
1.00818
1.00788
1.00744
1.00685
1.00616
1.00541
1.00463
1.00387
1.00317
1.00257
1.00208
1.00177
1.00794
1.00829
1.00834
1.00826
1.00795
1.00751
1.00691
1.00621
1.00544
1.00465
1.00387
1.00316
1.00254
1.00204
1.00171
1.00802
1.00836
1.00842
1.00834
1.00803
1.00757
1.00697
1.00626
1.00548
1.00467
1.00388
1.00315
1.00252
1.002
1.00166
1.00809
1.00845
1.0085
1.00842
1.0081
1.00764
1.00703
1.00631
1.00551
1.00469
1.00389
1.00314
1.00249
1.00196
1.0016
1.00817
1.00853
1.00858
1.0085
1.00818
1.00771
1.00709
1.00636
1.00555
1.00472
1.00389
1.00313
1.00246
1.00191
1.00154
1.00825
1.00861
1.00867
1.00858
1.00826
1.00779
1.00715
1.00641
1.00558
1.00474
1.00389
1.00311
1.00243
1.00186
1.00148
1.00834
1.0087
1.00876
1.00867
1.00834
1.00786
1.00721
1.00646
1.00562
1.00476
1.0039
1.0031
1.0024
1.00182
1.00141
1.00842
1.00879
1.00884
1.00875
1.00842
1.00793
1.00728
1.00651
1.00566
1.00477
1.0039
1.00308
1.00237
1.00177
1.00135
1.00851
1.00888
1.00893
1.00884
1.00851
1.00801
1.00734
1.00656
1.00569
1.00479
1.0039
1.00307
1.00233
1.00172
1.00129
1.0086
1.00897
1.00903
1.00893
1.00859
1.00809
1.00741
1.00661
1.00573
1.00481
1.0039
1.00305
1.0023
1.00167
1.00122
1.00869
1.00906
1.00912
1.00902
1.00868
1.00816
1.00747
1.00666
1.00576
1.00483
1.0039
1.00303
1.00226
1.00162
1.00115
1.00878
1.00916
1.00922
1.00912
1.00876
1.00824
1.00754
1.00671
1.0058
1.00485
1.0039
1.00301
1.00223
1.00156
1.00109
1.00888
1.00926
1.00931
1.00921
1.00885
1.00832
1.00761
1.00677
1.00583
1.00487
1.0039
1.00299
1.00219
1.00151
1.00102
1.00897
1.00936
1.00941
1.00931
1.00894
1.0084
1.00768
1.00682
1.00587
1.00488
1.0039
1.00297
1.00215
1.00145
1.00095
1.00907
1.00946
1.00952
1.00941
1.00904
1.00849
1.00775
1.00688
1.00591
1.0049
1.0039
1.00295
1.00211
1.0014
1.00088
1.00917
1.00957
1.00962
1.00951
1.00913
1.00857
1.00782
1.00693
1.00595
1.00492
1.0039
1.00293
1.00207
1.00134
1.0008
1.00928
1.00968
1.00973
1.00962
1.00923
1.00866
1.0079
1.00699
1.00599
1.00494
1.0039
1.00291
1.00203
1.00128
1.00073
1.00938
1.00979
1.00984
1.00973
1.00933
1.00875
1.00797
1.00705
1.00603
1.00496
1.00389
1.00289
1.00198
1.00122
1.00065
1.00949
1.0099
1.00995
1.00983
1.00943
1.00884
1.00805
1.00711
1.00607
1.00498
1.00389
1.00286
1.00194
1.00116
1.00058
1.0096
1.01001
1.01006
1.00995
1.00954
1.00894
1.00813
1.00718
1.00611
1.005
1.00389
1.00284
1.00189
1.00109
1.0005
1.00971
1.01013
1.01018
1.01006
1.00965
1.00903
1.00821
1.00724
1.00615
1.00502
1.00389
1.00281
1.00185
1.00103
1.00041
1.00983
1.01025
1.0103
1.01018
1.00975
1.00913
1.00829
1.0073
1.0062
1.00504
1.00388
1.00278
1.0018
1.00096
1.00033
1.00994
1.01037
1.01042
1.01029
1.00986
1.00923
1.00838
1.00737
1.00624
1.00506
1.00388
1.00276
1.00175
1.00089
1.00025
1.01006
1.01049
1.01054
1.01042
1.00998
1.00933
1.00846
1.00743
1.00628
1.00508
1.00387
1.00273
1.0017
1.00082
1.00016
1.01019
1.01062
1.01067
1.01054
1.01009
1.00943
1.00855
1.0075
1.00632
1.00509
1.00386
1.0027
1.00164
1.00075
1.00007
1.01031
1.01075
1.0108
1.01066
1.01021
1.00954
1.00863
1.00756
1.00637
1.00511
1.00386
1.00266
1.00159
1.00067
0.999981
1.01044
1.01088
1.01093
1.01079
1.01033
1.00964
1.00872
1.00763
1.00641
1.00513
1.00385
1.00263
1.00153
1.0006
0.999889
1.01057
1.01101
1.01106
1.01092
1.01045
1.00975
1.00881
1.0077
1.00645
1.00515
1.00384
1.0026
1.00147
1.00052
0.999795
1.0107
1.01115
1.0112
1.01105
1.01057
1.00986
1.0089
1.00777
1.0065
1.00517
1.00383
1.00256
1.00141
1.00044
0.999698
1.01083
1.01129
1.01134
1.01119
1.0107
1.00997
1.009
1.00784
1.00654
1.00518
1.00382
1.00253
1.00135
1.00036
0.9996
1.01097
1.01143
1.01148
1.01133
1.01083
1.01009
1.00909
1.00791
1.00659
1.0052
1.00381
1.00249
1.00129
1.00027
0.999499
1.01111
1.01158
1.01162
1.01147
1.01096
1.0102
1.00919
1.00798
1.00664
1.00522
1.0038
1.00245
1.00123
1.00019
0.999395
1.01125
1.01172
1.01177
1.01161
1.01109
1.01032
1.00929
1.00806
1.00669
1.00524
1.00379
1.00241
1.00116
1.0001
0.99929
1.0114
1.01188
1.01192
1.01176
1.01123
1.01044
1.00939
1.00814
1.00673
1.00526
1.00378
1.00237
1.00109
1.00001
0.999181
1.01154
1.01203
1.01208
1.01191
1.01137
1.01057
1.00949
1.00821
1.00678
1.00528
1.00377
1.00233
1.00102
0.999919
0.999071
1.0117
1.01219
1.01223
1.01206
1.01151
1.0107
1.0096
1.00829
1.00683
1.00529
1.00375
1.00228
1.00095
0.999824
0.998957
1.01185
1.01235
1.01239
1.01222
1.01165
1.01082
1.00971
1.00837
1.00688
1.00531
1.00374
1.00224
1.00088
0.999726
0.998841
1.01201
1.01251
1.01255
1.01237
1.0118
1.01095
1.00981
1.00845
1.00693
1.00533
1.00372
1.00219
1.0008
0.999627
0.998722
1.01217
1.01268
1.01272
1.01253
1.01195
1.01109
1.00992
1.00853
1.00698
1.00535
1.0037
1.00214
1.00072
0.999525
0.998601
1.01233
1.01285
1.01289
1.0127
1.0121
1.01122
1.01003
1.00862
1.00703
1.00536
1.00369
1.00209
1.00064
0.99942
0.998477
1.0125
1.01302
1.01306
1.01287
1.01226
1.01136
1.01015
1.0087
1.00708
1.00538
1.00367
1.00204
1.00056
0.999313
0.99835
1.01267
1.01319
1.01324
1.01304
1.01242
1.0115
1.01026
1.00879
1.00714
1.00539
1.00365
1.00198
1.00048
0.999204
0.99822
1.01284
1.01337
1.01342
1.01321
1.01258
1.01164
1.01038
1.00887
1.00719
1.00541
1.00363
1.00193
1.00039
0.999092
0.998087
1.01302
1.01356
1.0136
1.01339
1.01275
1.01179
1.0105
1.00896
1.00724
1.00543
1.00361
1.00187
1.0003
0.998977
0.99795
1.0132
1.01374
1.01379
1.01357
1.01291
1.01194
1.01062
1.00905
1.0073
1.00544
1.00359
1.00182
1.00021
0.998859
0.997811
1.01338
1.01393
1.01398
1.01376
1.01309
1.01209
1.01075
1.00915
1.00735
1.00546
1.00356
1.00176
1.00012
0.998739
0.997668
1.01357
1.01413
1.01417
1.01394
1.01326
1.01225
1.01088
1.00924
1.00741
1.00548
1.00354
1.0017
1.00003
0.998615
0.997522
1.01376
1.01433
1.01437
1.01414
1.01344
1.0124
1.01101
1.00934
1.00747
1.00549
1.00351
1.00163
0.999926
0.998487
0.997372
1.01395
1.01453
1.01457
1.01433
1.01362
1.01256
1.01114
1.00943
1.00752
1.00551
1.00349
1.00157
0.999825
0.998357
0.997218
1.01415
1.01473
1.01478
1.01453
1.01381
1.01273
1.01127
1.00953
1.00758
1.00552
1.00346
1.0015
0.99972
0.998222
0.99706
1.01435
1.01494
1.01498
1.01474
1.014
1.0129
1.01141
1.00963
1.00764
1.00554
1.00343
1.00143
0.999613
0.998085
0.996899
1.01456
1.01516
1.0152
1.01494
1.01419
1.01307
1.01155
1.00973
1.0077
1.00555
1.0034
1.00135
0.999502
0.997944
0.996735
1.01477
1.01537
1.01542
1.01516
1.01439
1.01324
1.01169
1.00983
1.00775
1.00556
1.00336
1.00128
0.999389
0.9978
0.996566
1.01498
1.0156
1.01564
1.01537
1.01459
1.01341
1.01183
1.00994
1.00781
1.00557
1.00333
1.0012
0.999273
0.997652
0.996394
1.0152
1.01582
1.01586
1.01559
1.01479
1.01359
1.01198
1.01004
1.00787
1.00558
1.00329
1.00112
0.999154
0.997502
0.996218
1.01542
1.01605
1.01609
1.01581
1.015
1.01377
1.01213
1.01015
1.00793
1.00559
1.00326
1.00104
0.999032
0.997347
0.996037
1.01565
1.01629
1.01633
1.01604
1.01521
1.01396
1.01228
1.01025
1.00799
1.00561
1.00322
1.00095
0.998908
0.997189
0.995853
1.01588
1.01653
1.01657
1.01628
1.01543
1.01415
1.01243
1.01036
1.00805
1.00562
1.00318
1.00087
0.99878
0.997027
0.995663
1.01611
1.01677
1.01681
1.01651
1.01565
1.01434
1.01259
1.01048
1.00812
1.00563
1.00314
1.00078
0.998648
0.99686
0.99547
1.01635
1.01702
1.01706
1.01676
1.01587
1.01454
1.01275
1.01059
1.00818
1.00564
1.0031
1.00069
0.998513
0.99669
0.995272
1.0166
1.01727
1.01732
1.017
1.0161
1.01474
1.01291
1.01071
1.00824
1.00565
1.00305
1.00059
0.998374
0.996515
0.995069
1.01685
1.01753
1.01758
1.01726
1.01634
1.01495
1.01308
1.01083
1.00831
1.00565
1.003
1.00049
0.998231
0.996335
0.994861
1.0171
1.01779
1.01784
1.01751
1.01658
1.01516
1.01325
1.01095
1.00837
1.00566
1.00295
1.00039
0.998084
0.996151
0.994648
1.01736
1.01806
1.01811
1.01778
1.01682
1.01537
1.01342
1.01107
1.00844
1.00567
1.0029
1.00029
0.997933
0.995963
0.99443
1.01763
1.01834
1.01839
1.01804
1.01707
1.01559
1.01359
1.01119
1.0085
1.00567
1.00285
1.00018
0.997778
0.995769
0.994207
1.0179
1.01862
1.01867
1.01832
1.01732
1.01581
1.01377
1.01131
1.00857
1.00567
1.00279
1.00007
0.997618
0.995571
0.993979
1.01817
1.0189
1.01896
1.01859
1.01758
1.01603
1.01395
1.01144
1.00863
1.00568
1.00273
0.999952
0.997455
0.995368
0.993746
1.01845
1.01919
1.01925
1.01888
1.01784
1.01626
1.01413
1.01157
1.0087
1.00568
1.00267
0.999833
0.997287
0.99516
0.993507
1.01874
1.01949
1.01954
1.01917
1.01811
1.0165
1.01432
1.0117
1.00876
1.00568
1.00261
0.999711
0.997114
0.994947
0.993263
1.01903
1.01979
1.01985
1.01946
1.01838
1.01674
1.01451
1.01183
1.00883
1.00567
1.00254
0.999585
0.996937
0.994729
0.993013
1.01932
1.0201
1.02016
1.01976
1.01866
1.01698
1.0147
1.01196
1.00889
1.00567
1.00247
0.999455
0.996755
0.994505
0.992757
1.01963
1.02041
1.02047
1.02007
1.01895
1.01722
1.0149
1.01209
1.00896
1.00567
1.0024
0.999321
0.996568
0.994275
0.992495
1.01994
1.02073
1.0208
1.02038
1.01924
1.01748
1.0151
1.01223
1.00902
1.00566
1.00232
0.999183
0.996376
0.99404
0.992227
1.02025
1.02105
1.02112
1.0207
1.01953
1.01773
1.0153
1.01237
1.00909
1.00565
1.00224
0.999039
0.996178
0.993799
0.991953
1.02057
1.02139
1.02146
1.02103
1.01983
1.018
1.01551
1.01251
1.00915
1.00564
1.00216
0.998892
0.995975
0.993552
0.991673
1.0209
1.02173
1.0218
1.02136
1.02014
1.01826
1.01572
1.01265
1.00922
1.00563
1.00207
0.998739
0.995766
0.993298
0.991386
1.02123
1.02207
1.02215
1.0217
1.02046
1.01853
1.01593
1.01279
1.00928
1.00561
1.00198
0.998582
0.995552
0.993039
0.991093
1.02157
1.02243
1.02251
1.02205
1.02078
1.01881
1.01615
1.01293
1.00935
1.0056
1.00189
0.99842
0.995332
0.992774
0.990793
1.02191
1.02279
1.02287
1.0224
1.0211
1.01909
1.01637
1.01308
1.00941
1.00558
1.00179
0.998253
0.995107
0.992502
0.990487
1.02227
1.02315
1.02324
1.02276
1.02144
1.01938
1.01659
1.01323
1.00948
1.00556
1.00169
0.998081
0.994875
0.992224
0.990173
1.02263
1.02353
1.02362
1.02313
1.02178
1.01967
1.01682
1.01338
1.00954
1.00553
1.00159
0.997904
0.994638
0.991939
0.989853
1.02299
1.02391
1.024
1.02351
1.02212
1.01997
1.01705
1.01353
1.0096
1.00551
1.00148
0.997722
0.994394
0.991647
0.989525
1.02337
1.0243
1.0244
1.02389
1.02248
1.02028
1.01729
1.01368
1.00966
1.00548
1.00136
0.997534
0.994143
0.991347
0.98919
1.02375
1.0247
1.0248
1.02428
1.02284
1.02059
1.01753
1.01384
1.00973
1.00545
1.00125
0.997339
0.993886
0.99104
0.988847
1.02414
1.0251
1.02521
1.02468
1.02321
1.0209
1.01777
1.01399
1.00979
1.00541
1.00112
0.997139
0.993621
0.990726
0.988496
1.02453
1.02552
1.02563
1.02509
1.02358
1.02123
1.01802
1.01415
1.00985
1.00538
1.00099
0.996931
0.993348
0.990403
0.988136
1.02494
1.02594
1.02606
1.02551
1.02397
1.02156
1.01827
1.01431
1.00991
1.00533
1.00086
0.996717
0.993068
0.990072
0.987769
1.02535
1.02637
1.02649
1.02593
1.02436
1.02189
1.01853
1.01447
1.00996
1.00529
1.00072
0.996494
0.992779
0.989732
0.987393
1.02577
1.02681
1.02694
1.02637
1.02476
1.02223
1.01879
1.01463
1.01002
1.00524
1.00057
0.996265
0.992482
0.989384
0.987008
1.0262
1.02726
1.0274
1.02681
1.02517
1.02258
1.01905
1.01479
1.01007
1.00518
1.00042
0.996027
0.992177
0.989028
0.986615
1.02663
1.02772
1.02786
1.02727
1.02559
1.02293
1.01932
1.01495
1.01012
1.00512
1.00026
0.995781
0.991863
0.988662
0.986213
1.02708
1.02819
1.02833
1.02773
1.02601
1.02329
1.01958
1.01511
1.01016
1.00506
1.00009
0.995527
0.99154
0.988288
0.985802
1.02753
1.02867
1.02882
1.0282
1.02644
1.02366
1.01986
1.01528
1.01021
1.00499
0.999916
0.995266
0.991209
0.987905
0.985383
1.028
1.02916
1.02931
1.02868
1.02689
1.02403
1.02013
1.01544
1.01025
1.00491
0.999734
0.994995
0.990869
0.987512
0.984954
1.02847
1.02966
1.02982
1.02918
1.02734
1.02441
1.02042
1.0156
1.01029
1.00483
0.999545
0.994717
0.990519
0.98711
0.984516
1.02895
1.03017
1.03034
1.02968
1.0278
1.0248
1.0207
1.01577
1.01032
1.00474
0.999349
0.994429
0.990161
0.986699
0.984069
1.02945
1.03069
1.03086
1.03019
1.02827
1.02519
1.02099
1.01593
1.01036
1.00465
0.999145
0.994133
0.989793
0.986278
0.983612
1.02995
1.03122
1.0314
1.03072
1.02875
1.02559
1.02128
1.01609
1.01039
1.00455
0.998932
0.993827
0.989414
0.985847
0.983144
1.03046
1.03176
1.03196
1.03126
1.02924
1.026
1.02158
1.01626
1.01041
1.00444
0.998711
0.993512
0.989026
0.985406
0.982667
1.03099
1.03232
1.03252
1.03181
1.02974
1.02642
1.02188
1.01642
1.01043
1.00433
0.998481
0.993186
0.988627
0.984953
0.982179
1.03152
1.03288
1.0331
1.03237
1.03025
1.02684
1.02218
1.01658
1.01045
1.00421
0.998242
0.99285
0.988217
0.98449
0.981681
1.03207
1.03346
1.03368
1.03295
1.03078
1.02728
1.02249
1.01675
1.01046
1.00408
0.997992
0.992502
0.987795
0.984015
0.981171
1.03263
1.03405
1.03429
1.03353
1.03131
1.02772
1.0228
1.01691
1.01047
1.00395
0.997732
0.992143
0.987361
0.983529
0.98065
1.0332
1.03466
1.0349
1.03413
1.03186
1.02817
1.02312
1.01707
1.01047
1.0038
0.997461
0.991772
0.986915
0.983031
0.980118
1.03378
1.03528
1.03553
1.03475
1.03241
1.02862
1.02344
1.01723
1.01047
1.00364
0.997178
0.991388
0.986457
0.98252
0.979575
1.03437
1.03591
1.03618
1.03538
1.03298
1.02908
1.02376
1.01738
1.01045
1.00348
0.996883
0.990991
0.985985
0.981997
0.97902
1.03498
1.03656
1.03683
1.03602
1.03356
1.02956
1.02408
1.01753
1.01043
1.0033
0.996575
0.990581
0.9855
0.981462
0.978453
1.0356
1.03722
1.03751
1.03667
1.03415
1.03004
1.0244
1.01768
1.01041
1.00311
0.996254
0.990157
0.985002
0.980914
0.977874
1.03623
1.0379
1.0382
1.03735
1.03476
1.03052
1.02473
1.01783
1.01037
1.00291
0.99592
0.989719
0.98449
0.980352
0.977283
1.03688
1.03859
1.0389
1.03803
1.03538
1.03102
1.02506
1.01797
1.01032
1.0027
0.995571
0.989266
0.983964
0.979778
0.976679
1.03754
1.03929
1.03962
1.03874
1.03601
1.03152
1.02539
1.01811
1.01027
1.00248
0.995208
0.988799
0.983423
0.97919
0.976063
1.03822
1.04002
1.04036
1.03946
1.03665
1.03203
1.02573
1.01824
1.01021
1.00224
0.99483
0.988316
0.982868
0.978588
0.975435
1.03891
1.04076
1.04112
1.04019
1.03731
1.03255
1.02606
1.01836
1.01013
1.00199
0.994436
0.987818
0.982297
0.977972
0.974793
1.03962
1.04152
1.0419
1.04095
1.03798
1.03308
1.02639
1.01848
1.01004
1.00172
0.994027
0.987303
0.981711
0.977341
0.974139
1.04035
1.04229
1.04269
1.04172
1.03867
1.03362
1.02673
1.0186
1.00994
1.00144
0.9936
0.986772
0.98111
0.976696
0.973471
1.04109
1.04309
1.0435
1.04251
1.03937
1.03416
1.02707
1.01871
1.00983
1.00114
0.993156
0.986223
0.980491
0.976036
0.972789
1.04184
1.0439
1.04434
1.04332
1.04009
1.03471
1.0274
1.0188
1.00971
1.00082
0.992694
0.985657
0.979856
0.975361
0.972094
1.04262
1.04474
1.04519
1.04415
1.04082
1.03527
1.02773
1.01889
1.00957
1.00049
0.992213
0.985071
0.979204
0.974669
0.971385
1.04341
1.04559
1.04606
1.045
1.04156
1.03584
1.02807
1.01897
1.00941
1.00014
0.991713
0.984467
0.978534
0.973962
0.970661
1.04422
1.04646
1.04696
1.04587
1.04233
1.03641
1.0284
1.01904
1.00924
0.999768
0.991191
0.983843
0.977846
0.973239
0.969922
1.04505
1.04736
1.04788
1.04676
1.0431
1.037
1.02872
1.0191
1.00905
0.999375
0.990649
0.9832
0.97714
0.972499
0.969169
1.0459
1.04828
1.04882
1.04767
1.0439
1.03758
1.02905
1.01914
1.00884
0.998961
0.990085
0.982534
0.976414
0.971742
0.968401
1.04678
1.04922
1.04979
1.0486
1.04471
1.03818
1.02936
1.01917
1.00861
0.998524
0.989498
0.981848
0.975669
0.970967
0.967617
1.04767
1.05018
1.05078
1.04956
1.04553
1.03878
1.02968
1.01918
1.00836
0.998063
0.988887
0.981139
0.974904
0.970175
0.966818
1.04858
1.05117
1.0518
1.05054
1.04638
1.03939
1.02998
1.01918
1.00808
0.997578
0.988251
0.980408
0.974118
0.969365
0.966003
1.04952
1.05218
1.05284
1.05155
1.04724
1.04
1.03028
1.01916
1.00778
0.997066
0.98759
0.979653
0.973312
0.968537
0.965172
1.05048
1.05322
1.05391
1.05258
1.04812
1.04061
1.03057
1.01912
1.00746
0.996527
0.986903
0.978875
0.972484
0.96769
0.964325
1.05146
1.05429
1.05501
1.05364
1.04901
1.04123
1.03084
1.01906
1.00711
0.99596
0.986189
0.978071
0.971635
0.966824
0.963461
1.05247
1.05539
1.05614
1.05472
1.04992
1.04185
1.03111
1.01897
1.00673
0.995363
0.985446
0.977242
0.970764
0.965939
0.962581
1.0535
1.05651
1.0573
1.05584
1.05085
1.04247
1.03136
1.01886
1.00632
0.994735
0.984675
0.976388
0.96987
0.965034
0.961684
1.05456
1.05767
1.0585
1.05698
1.0518
1.0431
1.0316
1.01873
1.00588
0.994076
0.983873
0.975506
0.968953
0.96411
0.96077
1.05565
1.05885
1.05972
1.05815
1.05276
1.04372
1.03182
1.01856
1.00541
0.993382
0.983041
0.974598
0.968012
0.963166
0.959839
1.05677
1.06007
1.06098
1.05935
1.05374
1.04434
1.03202
1.01837
1.0049
0.992654
0.982177
0.973661
0.967048
0.962201
0.958891
1.05791
1.06132
1.06228
1.06058
1.05474
1.04496
1.0322
1.01814
1.00436
0.991889
0.981279
0.972696
0.966059
0.961216
0.957925
1.05909
1.0626
1.06361
1.06184
1.05575
1.04557
1.03235
1.01788
1.00377
0.991087
0.980348
0.971702
0.965046
0.96021
0.956942
1.06029
1.06393
1.06498
1.06313
1.05678
1.04617
1.03248
1.01758
1.00315
0.990245
0.979382
0.970677
0.964007
0.959183
0.955941
1.06153
1.06529
1.06639
1.06446
1.05782
1.04677
1.03258
1.01724
1.00248
0.989363
0.97838
0.969623
0.962943
0.958135
0.954922
1.0628
1.06668
1.06785
1.06582
1.05887
1.04735
1.03264
1.01685
1.00176
0.988438
0.977341
0.968537
0.961853
0.957065
0.953885
1.06411
1.06812
1.06934
1.06721
1.05994
1.04792
1.03267
1.01642
1.001
0.98747
0.976264
0.967419
0.960737
0.955973
0.952829
1.06545
1.0696
1.07088
1.06864
1.06102
1.04848
1.03267
1.01594
1.00019
0.986455
0.975148
0.966269
0.959594
0.954859
0.951756
1.06684
1.07113
1.07247
1.07011
1.06211
1.04901
1.03262
1.01541
0.999324
0.985395
0.973992
0.965086
0.958424
0.953724
0.950664
1.06826
1.0727
1.0741
1.07161
1.06321
1.04952
1.03252
1.01482
0.998405
0.984285
0.972795
0.963869
0.957227
0.952566
0.949553
1.06972
1.07432
1.07579
1.07315
1.06431
1.05
1.03237
1.01418
0.997429
0.983125
0.971557
0.962619
0.956002
0.951385
0.948424
1.07122
1.07599
1.07753
1.07473
1.06542
1.05045
1.03217
1.01347
0.996393
0.981914
0.970276
0.961334
0.95475
0.950182
0.947277
1.07276
1.07771
1.07932
1.07634
1.06653
1.05087
1.03191
1.01269
0.995296
0.98065
0.968952
0.960014
0.95347
0.948957
0.946111
1.07435
1.07949
1.08117
1.07799
1.06764
1.05124
1.03158
1.01185
0.994133
0.979331
0.967583
0.958659
0.952161
0.947709
0.944926
1.07599
1.08132
1.08308
1.07968
1.06874
1.05157
1.03118
1.01093
0.992904
0.977956
0.966169
0.957269
0.950825
0.946438
0.943722
1.07768
1.08321
1.08505
1.0814
1.06984
1.05184
1.03071
1.00993
0.991604
0.976523
0.964709
0.955842
0.94946
0.945144
0.9425
1.07942
1.08517
1.08709
1.08316
1.07092
1.05206
1.03016
1.00885
0.990233
0.975031
0.963203
0.954379
0.948066
0.943827
0.941259
1.08121
1.08719
1.08919
1.08495
1.07198
1.0522
1.02952
1.00768
0.988787
0.97348
0.96165
0.95288
0.946644
0.942488
0.94
1.08306
1.08929
1.09136
1.08678
1.07301
1.05228
1.02878
1.00642
0.987264
0.971867
0.960049
0.951344
0.945194
0.941126
0.938722
1.08497
1.09146
1.0936
1.08863
1.07402
1.05227
1.02794
1.00507
0.985662
0.970191
0.958401
0.949771
0.943715
0.939742
0.937425
1.08693
1.0937
1.09591
1.09052
1.07498
1.05218
1.027
1.00361
0.983979
0.968453
0.956704
0.948162
0.942207
0.938334
0.93611
1.08896
1.09603
1.0983
1.09243
1.0759
1.05198
1.02594
1.00206
0.982211
0.96665
0.954959
0.946516
0.940672
0.936905
0.934777
1.09106
1.09844
1.10077
1.09436
1.07675
1.05167
1.02476
1.00039
0.980359
0.964782
0.953165
0.944833
0.939108
0.935453
0.933426
1.09323
1.10095
1.10332
1.09631
1.07755
1.05124
1.02344
0.998615
0.978419
0.962849
0.951322
0.943115
0.937516
0.93398
0.932056
1.09547
1.10355
1.10596
1.09826
1.07826
1.05068
1.02199
0.996723
0.976391
0.96085
0.949431
0.94136
0.935897
0.932484
0.930669
1.09779
1.10625
1.10867
1.10022
1.07888
1.04997
1.0204
0.994712
0.974273
0.958784
0.947492
0.939569
0.934251
0.930967
0.929263
1.10019
1.10907
1.11147
1.10217
1.07939
1.04911
1.01865
0.992578
0.972064
0.956653
0.945505
0.937743
0.932578
0.929429
0.927841
1.10267
1.11199
1.11436
1.10411
1.07978
1.04807
1.01674
0.990318
0.969762
0.954455
0.94347
0.935882
0.930878
0.92787
0.926401
1.10524
1.11504
1.11733
1.10602
1.08003
1.04685
1.01466
0.987931
0.967369
0.952192
0.941388
0.933988
0.929153
0.926291
0.924944
1.10791
1.11822
1.12038
1.10788
1.08013
1.04543
1.01241
0.985413
0.964882
0.949863
0.939261
0.932059
0.927402
0.924691
0.923471
1.11069
1.12154
1.12352
1.10969
1.08005
1.0438
1.00998
0.982762
0.962304
0.947471
0.937088
0.930099
0.925627
0.923072
0.921982
1.11357
1.125
1.12673
1.11143
1.07977
1.04194
1.00735
0.979978
0.959633
0.945014
0.934871
0.928106
0.923827
0.921433
0.920476
1.11656
1.12861
1.13002
1.11307
1.07927
1.03984
1.00454
0.977061
0.956872
0.942496
0.932611
0.926083
0.922004
0.919776
0.918955
1.11968
1.13239
1.13337
1.11459
1.07852
1.03748
1.00153
0.974009
0.954022
0.939918
0.93031
0.92403
0.920159
0.918101
0.917419
1.12293
1.13634
1.13677
1.11597
1.0775
1.03485
0.998312
0.970825
0.951084
0.93728
0.927969
0.92195
0.918292
0.916408
0.915869
1.12632
1.14046
1.14022
1.11718
1.07618
1.03193
0.994894
0.967509
0.94806
0.934587
0.92559
0.919841
0.916404
0.914699
0.914303
1.12986
1.14477
1.1437
1.11818
1.07453
1.02871
0.99127
0.964065
0.944953
0.931839
0.923175
0.917708
0.914497
0.912973
0.912724
1.13356
1.14928
1.14718
1.11894
1.07252
1.02518
0.987441
0.960495
0.941767
0.929039
0.920725
0.91555
0.912571
0.911231
0.911132
1.13744
1.15398
1.15065
1.11942
1.07013
1.02134
0.983409
0.956803
0.938505
0.926191
0.918244
0.913369
0.910627
0.909474
0.909527
1.14151
1.1589
1.15408
1.11958
1.06731
1.01716
0.979176
0.952995
0.935171
0.923297
0.915733
0.911168
0.908666
0.907703
0.907909
1.1458
1.16402
1.15743
1.11936
1.06405
1.01264
0.974749
0.949076
0.931768
0.920361
0.913195
0.908947
0.906689
0.905919
0.906279
1.15031
1.16936
1.16067
1.11872
1.06032
1.00779
0.970134
0.945054
0.928303
0.917386
0.910633
0.906708
0.904699
0.904122
0.904637
1.15506
1.17491
1.16375
1.1176
1.05607
1.0026
0.96534
0.940935
0.92478
0.914376
0.908049
0.904454
0.902695
0.902313
0.902985
1.16009
1.18067
1.16661
1.11595
1.0513
0.99708
0.96038
0.936727
0.921204
0.911336
0.905446
0.902186
0.900678
0.900493
0.901323
1.16542
1.18662
1.16921
1.1137
1.04597
0.99123
0.955266
0.93244
0.917582
0.908269
0.902828
0.899906
0.898652
0.898663
0.899651
1.17107
1.19275
1.17145
1.1108
1.04007
0.985064
0.950012
0.928083
0.913919
0.905181
0.900196
0.897616
0.896615
0.896823
0.89797
1.17709
1.19903
1.17328
1.10717
1.03358
0.978601
0.944638
0.923665
0.910222
0.902075
0.897556
0.895318
0.894571
0.894975
0.89628
1.1835
1.20544
1.1746
1.10275
1.0265
0.971863
0.939159
0.919196
0.906497
0.898957
0.894909
0.893014
0.892519
0.893119
0.894583
1.19034
1.21193
1.17531
1.09749
1.01883
0.964877
0.933596
0.914686
0.902751
0.895832
0.892258
0.890706
0.890462
0.891257
0.892879
1.19765
1.21845
1.1753
1.09131
1.01057
0.957676
0.92797
0.910146
0.898992
0.892704
0.889608
0.888396
0.888401
0.889389
0.891168
1.20548
1.22492
1.17447
1.08416
1.00175
0.950297
0.9223
0.905586
0.895225
0.889579
0.886961
0.886085
0.886337
0.887516
0.889453
1.21387
1.23126
1.17268
1.076
0.992407
0.942782
0.916609
0.901015
0.89146
0.886462
0.88432
0.883776
0.884271
0.88564
0.887733
1.22288
1.23737
1.1698
1.06678
0.982575
0.935177
0.910915
0.896443
0.887703
0.883359
0.881689
0.881471
0.882205
0.883762
0.886009
1.23254
1.24311
1.16569
1.05649
0.972317
0.927529
0.905237
0.89188
0.883961
0.880274
0.87907
0.879172
0.880141
0.881883
0.884284
1.2429
1.24833
1.1602
1.0451
0.961707
0.919889
0.899593
0.887336
0.880244
0.877213
0.876467
0.87688
0.87808
0.880005
0.882557
1.254
1.25286
1.15318
1.03264
0.950832
0.912305
0.893999
0.88282
0.876559
0.874181
0.873882
0.874599
0.876024
0.878129
0.88083
1.26588
1.25647
1.14448
1.01915
0.939794
0.904823
0.888467
0.878341
0.872914
0.871183
0.871319
0.872329
0.873976
0.876256
0.879104
1.27854
1.25892
1.13396
1.00469
0.928704
0.897487
0.883008
0.873909
0.869318
0.868224
0.86878
0.870074
0.871936
0.87439
0.877381
1.29199
1.25992
1.12149
0.989386
0.917683
0.89033
0.87763
0.869534
0.86578
0.865309
0.86627
0.867836
0.869908
0.872532
0.875662
1.30619