1.45 	0 	0 	0.847431 	-0.0112916 	8.74704e-22
2.35 	0 	0 	0.94904 	-0.00317331 	3.16578e-21
