1.45 	0 	0 	0.053249 	-0.00793876 	3.55681e-21
2.35 	0 	0 	0.276491 	-0.0122315 	3.68916e-22
