/*--------------------------------*- C++ -*----------------------------------*\
  =========                 |
  \\      /  F ield         | OpenFOAM: The Open Source CFD Toolbox
   \\    /   O peration     | Website:  https://openfoam.org
    \\  /    A nd           | Version:  6.0
     \\/     M anipulation  |
\*---------------------------------------------------------------------------*/
FoamFile
{
    version     2.0;
    format      ascii;
    class       volScalarField;
    location    "24";
    object      p;
}
// * * * * * * * * * * * * * * * * * * * * * * * * * * * * * * * * * * * * * //

dimensions      [0 2 -2 0 0 0 0];

internalField   nonuniform List<scalar> 
8000
(
-0.31638
-0.320644
-0.32314
-0.324607
-0.325484
-0.325844
-0.325768
-0.325336
-0.324615
-0.323658
-0.322513
-0.321218
-0.319807
-0.31831
-0.316751
-0.315155
-0.313539
-0.31189
-0.310207
-0.308814
-0.317041
-0.321259
-0.323714
-0.325143
-0.325981
-0.326304
-0.32619
-0.325722
-0.324966
-0.323975
-0.322796
-0.321469
-0.320026
-0.318498
-0.31691
-0.315286
-0.313644
-0.311969
-0.310262
-0.308859
-0.318366
-0.322489
-0.324863
-0.326214
-0.326975
-0.327222
-0.327035
-0.326494
-0.325667
-0.324608
-0.323361
-0.321968
-0.320461
-0.318871
-0.317223
-0.315544
-0.313849
-0.312123
-0.310364
-0.308943
-0.320359
-0.324338
-0.326588
-0.327822
-0.328466
-0.328599
-0.328299
-0.32765
-0.326717
-0.325553
-0.324205
-0.322712
-0.321108
-0.319424
-0.317685
-0.31592
-0.314146
-0.312341
-0.310504
-0.309056
-0.323026
-0.326809
-0.328891
-0.329967
-0.330454
-0.330432
-0.329983
-0.329188
-0.328111
-0.326808
-0.325322
-0.323695
-0.32196
-0.320148
-0.318286
-0.316403
-0.314519
-0.312607
-0.310663
-0.309181
-0.326376
-0.329907
-0.331775
-0.33265
-0.332937
-0.332721
-0.332084
-0.331104
-0.329848
-0.328369
-0.32671
-0.324912
-0.32301
-0.321034
-0.319014
-0.316979
-0.314952
-0.3129
-0.310819
-0.309298
-0.330419
-0.333639
-0.335243
-0.335871
-0.335916
-0.335464
-0.334598
-0.333397
-0.331925
-0.330232
-0.328363
-0.326358
-0.32425
-0.322073
-0.319855
-0.317631
-0.315424
-0.313194
-0.310942
-0.309377
-0.33517
-0.338011
-0.339296
-0.33963
-0.339388
-0.338659
-0.337525
-0.336064
-0.334337
-0.332394
-0.330278
-0.328027
-0.325675
-0.323254
-0.320797
-0.318341
-0.315912
-0.313461
-0.310995
-0.309382
-0.340642
-0.343028
-0.343937
-0.343928
-0.343352
-0.342302
-0.340861
-0.339102
-0.337085
-0.334855
-0.332455
-0.329918
-0.327279
-0.324571
-0.321828
-0.319091
-0.31639
-0.313665
-0.310936
-0.309268
-0.346851
-0.348698
-0.349167
-0.34876
-0.347803
-0.346389
-0.344601
-0.342509
-0.340166
-0.337615
-0.334893
-0.332033
-0.329065
-0.326021
-0.322939
-0.319865
-0.316831
-0.313767
-0.310712
-0.308976
-0.353809
-0.355021
-0.354981
-0.354123
-0.352735
-0.350916
-0.348743
-0.346283
-0.343582
-0.340677
-0.3376
-0.334377
-0.331037
-0.327608
-0.324129
-0.320651
-0.317211
-0.313725
-0.310259
-0.308429
-0.361524
-0.361998
-0.361375
-0.360007
-0.35814
-0.355873
-0.35328
-0.350421
-0.347334
-0.344048
-0.340585
-0.336966
-0.333211
-0.329344
-0.325403
-0.321444
-0.317507
-0.313492
-0.309498
-0.307525
-0.369998
-0.369618
-0.368335
-0.3664
-0.364004
-0.361249
-0.358205
-0.35492
-0.351424
-0.347735
-0.343865
-0.339821
-0.335614
-0.331258
-0.326785
-0.322254
-0.317707
-0.313021
-0.308335
-0.30613
-0.379221
-0.377867
-0.375844
-0.373282
-0.370311
-0.367031
-0.363507
-0.359776
-0.355856
-0.351752
-0.347461
-0.342976
-0.338289
-0.333399
-0.328324
-0.323118
-0.31782
-0.312274
-0.306656
-0.304061
-0.389168
-0.386717
-0.383873
-0.380628
-0.377036
-0.373199
-0.369172
-0.364981
-0.360632
-0.356113
-0.351405
-0.346478
-0.341302
-0.335848
-0.330108
-0.324117
-0.317898
-0.311235
-0.304324
-0.301057
-0.399798
-0.396128
-0.392387
-0.388406
-0.384153
-0.379728
-0.375182
-0.370527
-0.365754
-0.360836
-0.355734
-0.350392
-0.344748
-0.338732
-0.332291
-0.325416
-0.318083
-0.309961
-0.301219
-0.296812
-0.411051
-0.40605
-0.401341
-0.396575
-0.391625
-0.38659
-0.381515
-0.376399
-0.371221
-0.36594
-0.360495
-0.354805
-0.348766
-0.342258
-0.335154
-0.327369
-0.318785
-0.308863
-0.29757
-0.29122
-0.422846
-0.416418
-0.410682
-0.40509
-0.399414
-0.393752
-0.388143
-0.382579
-0.377029
-0.371441
-0.365737
-0.359813
-0.353528
-0.346694
-0.33909
-0.330515
-0.320706
-0.308697
-0.293609
-0.2832
-0.435088
-0.42716
-0.420348
-0.4139
-0.407475
-0.401174
-0.395035
-0.389042
-0.383163
-0.377343
-0.371502
-0.365519
-0.359223
-0.352357
-0.344565
-0.335442
-0.324361
-0.309212
-0.286654
-0.266488
-0.447667
-0.438192
-0.430276
-0.42295
-0.415761
-0.408815
-0.402149
-0.395751
-0.389594
-0.383638
-0.377821
-0.372052
-0.366185
-0.359975
-0.353038
-0.344817
-0.334142
-0.317192
-0.287497
-0.257144
-0.460468
-0.449428
-0.440396
-0.432182
-0.424222
-0.416628
-0.40944
-0.402652
-0.396253
-0.390235
-0.384589
-0.379316
-0.374427
-0.369961
-0.36604
-0.36295
-0.360993
-0.360364
-0.364935
-0.389751
-0.473375
-0.460783
-0.45064
-0.44154
-0.432809
-0.424565
-0.416853
-0.40967
-0.403022
-0.396925
-0.391413
-0.386549
-0.382432
-0.379232
-0.377238
-0.376886
-0.378615
-0.383288
-0.395599
-0.422904
-0.486278
-0.472172
-0.46094
-0.450969
-0.441476
-0.432585
-0.424343
-0.41675
-0.409818
-0.40358
-0.398091
-0.393439
-0.389754
-0.387229
-0.386149
-0.386875
-0.389695
-0.395246
-0.406804
-0.427074
-0.499077
-0.483515
-0.471231
-0.460414
-0.450178
-0.440648
-0.431874
-0.423851
-0.416595
-0.410142
-0.404553
-0.399917
-0.39636
-0.394054
-0.393228
-0.394127
-0.39689
-0.40192
-0.411491
-0.42599
-0.511681
-0.494735
-0.481449
-0.469823
-0.458869
-0.448716
-0.43941
-0.430941
-0.423318
-0.416573
-0.410759
-0.405952
-0.40225
-0.39978
-0.398696
-0.399126
-0.401076
-0.404787
-0.411982
-0.42189
-0.524007
-0.505758
-0.491528
-0.479137
-0.4675
-0.456744
-0.446911
-0.437978
-0.429946
-0.422835
-0.416681
-0.411533
-0.407456
-0.404526
-0.402823
-0.402382
-0.403118
-0.405186
-0.409978
-0.41605
-0.535976
-0.516505
-0.501396
-0.488289
-0.476008
-0.464674
-0.454319
-0.444908
-0.436427
-0.428878
-0.422276
-0.416643
-0.412007
-0.408395
-0.405831
-0.404284
-0.403618
-0.403951
-0.406449
-0.409253
-0.547505
-0.526896
-0.510972
-0.497204
-0.484319
-0.472432
-0.461561
-0.451656
-0.442685
-0.434632
-0.427487
-0.421246
-0.415903
-0.411449
-0.407863
-0.405074
-0.402927
-0.40153
-0.401865
-0.401848
-0.558505
-0.536837
-0.520167
-0.505792
-0.492345
-0.479929
-0.468547
-0.458131
-0.44863
-0.440009
-0.432237
-0.425285
-0.419122
-0.413709
-0.408999
-0.404901
-0.401259
-0.39818
-0.39649
-0.394017
-0.568871
-0.546225
-0.528877
-0.51395
-0.499981
-0.487058
-0.475168
-0.464222
-0.454152
-0.444905
-0.436432
-0.428685
-0.421615
-0.415165
-0.409274
-0.403842
-0.39873
-0.394044
-0.39047
-0.385863
-0.578486
-0.554942
-0.536984
-0.52156
-0.507108
-0.493698
-0.481298
-0.469802
-0.459125
-0.4492
-0.439964
-0.431356
-0.423316
-0.41578
-0.408682
-0.401927
-0.395395
-0.389193
-0.38388
-0.377428
-0.587214
-0.562857
-0.544357
-0.528489
-0.513591
-0.499711
-0.4868
-0.474733
-0.463414
-0.452764
-0.442713
-0.433194
-0.424144
-0.415498
-0.407194
-0.399148
-0.391263
-0.383647
-0.376742
-0.368711
-0.594903
-0.569822
-0.550853
-0.534593
-0.519283
-0.504949
-0.491522
-0.478866
-0.466872
-0.455459
-0.444553
-0.434088
-0.424005
-0.414245
-0.404755
-0.395468
-0.386312
-0.377391
-0.369044
-0.359674
-0.601387
-0.575679
-0.556315
-0.539716
-0.524028
-0.509253
-0.495307
-0.482042
-0.469347
-0.45714
-0.44535
-0.43392
-0.422797
-0.411937
-0.401299
-0.390834
-0.380497
-0.370383
-0.360742
-0.350257
-0.606486
-0.580259
-0.560577
-0.543693
-0.527659
-0.512456
-0.497988
-0.4841
-0.470682
-0.457658
-0.444968
-0.432565
-0.420413
-0.408481
-0.396745
-0.385177
-0.373756
-0.362564
-0.351775
-0.340377
-0.61001
-0.583384
-0.563466
-0.54635
-0.530005
-0.514388
-0.499395
-0.484873
-0.470717
-0.456864
-0.443268
-0.429901
-0.416742
-0.40378
-0.391009
-0.378421
-0.366016
-0.353862
-0.342068
-0.329941
-0.611767
-0.584869
-0.564804
-0.547512
-0.530888
-0.514873
-0.499358
-0.484195
-0.469295
-0.45461
-0.440116
-0.425803
-0.411674
-0.397736
-0.384002
-0.370484
-0.3572
-0.3442
-0.331538
-0.318848
-0.611558
-0.584531
-0.564409
-0.546999
-0.530133
-0.513737
-0.497706
-0.481904
-0.466261
-0.450753
-0.435379
-0.420155
-0.405104
-0.390255
-0.375639
-0.361286
-0.347229
-0.333498
-0.3201
-0.306998
-0.609191
-0.582185
-0.562102
-0.544634
-0.527564
-0.510809
-0.494273
-0.477841
-0.461467
-0.445155
-0.428934
-0.412843
-0.396931
-0.381246
-0.365837
-0.35075
-0.336028
-0.32168
-0.307672
-0.294296
-0.604476
-0.577652
-0.557708
-0.540244
-0.52301
-0.505921
-0.4889
-0.471854
-0.454772
-0.43769
-0.420664
-0.403765
-0.387064
-0.370628
-0.354522
-0.338804
-0.323528
-0.308675
-0.294178
-0.280652
-0.597237
-0.570762
-0.55106
-0.533663
-0.51631
-0.49892
-0.481438
-0.463807
-0.446051
-0.428241
-0.41047
-0.392832
-0.375424
-0.358331
-0.341629
-0.325389
-0.309669
-0.294423
-0.279554
-0.265989
-0.587302
-0.561349
-0.541995
-0.524733
-0.507309
-0.489656
-0.471748
-0.45357
-0.435186
-0.416708
-0.39826
-0.379967
-0.361945
-0.344296
-0.327106
-0.310456
-0.294403
-0.278875
-0.263743
-0.250243
-0.574522
-0.54927
-0.530371
-0.513313
-0.495872
-0.478
-0.459711
-0.441035
-0.422084
-0.403008
-0.383967
-0.365111
-0.346578
-0.328481
-0.310917
-0.293969
-0.277696
-0.261993
-0.246706
-0.233363
-0.558769
-0.534395
-0.51606
-0.499279
-0.481878
-0.46384
-0.445224
-0.426114
-0.406667
-0.387077
-0.367537
-0.348223
-0.329289
-0.310861
-0.293038
-0.275908
-0.259527
-0.243757
-0.228416
-0.215316
-0.539934
-0.516618
-0.498956
-0.482524
-0.465227
-0.447085
-0.428208
-0.408736
-0.388879
-0.368872
-0.348939
-0.329281
-0.310066
-0.291426
-0.273465
-0.25627
-0.239893
-0.224161
-0.208863
-0.196082
-0.517935
-0.495854
-0.478971
-0.462965
-0.445842
-0.427665
-0.408604
-0.388857
-0.368688
-0.348372
-0.328164
-0.308284
-0.288913
-0.270188
-0.252211
-0.235069
-0.218807
-0.203216
-0.188053
-0.175659
-0.492718
-0.472043
-0.456047
-0.440545
-0.423671
-0.405539
-0.38638
-0.366458
-0.346086
-0.325581
-0.305224
-0.285254
-0.265859
-0.247178
-0.229309
-0.212337
-0.196298
-0.180949
-0.166009
-0.154061
-0.464258
-0.445156
-0.43015
-0.415234
-0.398689
-0.380689
-0.361531
-0.341544
-0.321091
-0.300527
-0.280157
-0.260234
-0.24095
-0.222444
-0.204809
-0.188124
-0.172415
-0.157407
-0.142773
-0.131319
-0.43256
-0.415191
-0.401278
-0.387029
-0.370901
-0.353129
-0.334081
-0.314148
-0.293747
-0.273262
-0.253022
-0.233287
-0.214255
-0.196058
-0.178782
-0.162499
-0.147227
-0.132656
-0.118405
-0.107483
-0.397664
-0.38218
-0.369457
-0.355959
-0.34034
-0.322901
-0.30408
-0.284333
-0.264122
-0.243863
-0.2239
-0.204503
-0.185863
-0.16811
-0.151319
-0.135553
-0.120822
-0.10678
-0.0929862
-0.0826249
-0.359643
-0.346185
-0.334747
-0.322086
-0.307071
-0.290076
-0.271608
-0.252185
-0.232312
-0.212431
-0.192899
-0.173987
-0.155885
-0.138711
-0.12253
-0.107396
-0.0933078
-0.0798875
-0.0666213
-0.0568372
-0.318604
-0.307303
-0.297238
-0.2855
-0.271191
-0.254756
-0.236772
-0.217817
-0.198434
-0.179087
-0.160141
-0.141867
-0.124447
-0.107989
-0.0925457
-0.0781573
-0.0648167
-0.0521116
-0.0394418
-0.0302414
-0.274687
-0.265662
-0.257057
-0.246327
-0.232825
-0.217071
-0.199708
-0.181368
-0.16263
-0.143974
-0.12577
-0.108286
-0.0916941
-0.0760903
-0.0615124
-0.0479884
-0.0355028
-0.0236114
-0.0116115
-0.00299292
-0.228068
-0.221425
-0.214358
-0.20472
-0.19213
-0.177178
-0.160573
-0.142998
-0.12506
-0.107251
-0.0899443
-0.0734003
-0.0577823
-0.0431717
-0.0295917
-0.0170568
-0.00554298
0.00542376
0.0166667
0.0247098
-0.178957
-0.174789
-0.169332
-0.160867
-0.14929
-0.135263
-0.119553
-0.102888
-0.0858994
-0.0690898
-0.0528303
-0.0373739
-0.022873
-0.00939649
0.00304716
0.014457
0.0248641
0.0347685
0.045136
0.0526045
-0.127595
-0.125979
-0.122196
-0.114981
-0.104517
-0.0915329
-0.0768492
-0.0612346
-0.0453396
-0.0296722
-0.0146006
-0.000370348
0.0128755
0.0250783
0.0362411
0.046374
0.055511
0.0641689
0.0734806
0.0803429
-0.0742555
-0.0752539
-0.0731985
-0.0673059
-0.0580494
-0.0462207
-0.0326877
-0.018253
-0.00358229
0.0108143
0.0245726
0.0374535
0.0493203
0.0601195
0.0698588
0.0785537
0.0862335
0.0934088
0.101377
0.107498
-0.0192411
-0.0228974
-0.0226157
-0.01811
-0.0101484
0.000420815
0.0126896
0.0258277
0.03916
0.0521771
0.0645191
0.0759517
0.0863396
0.0956254
0.103809
0.110902
0.116918
0.122286
0.128334
0.133234
0.0371193
0.0307794
0.0292533
0.032315
0.0389027
0.0481185
0.0590222
0.0707636
0.0826638
0.0942177
0.105072
0.114994
0.123843
0.131543
0.138061
0.143377
0.147431
0.150306
0.152881
0.155055
0.0944718
0.0854424
0.0820859
0.083656
0.0888004
0.0965801
0.106032
0.116293
0.12669
0.136727
0.146062
0.154471
0.161812
0.167986
0.172919
0.176545
0.17864
0.178425
0.175535
0.17313
0.152441
0.140736
0.13554
0.135581
0.139223
0.145495
0.153421
0.162134
0.170973
0.179461
0.187279
0.194227
0.200188
0.205095
0.20893
0.211762
0.213491
0.212809
0.208787
0.214265
0.210657
0.196306
0.189269
0.187751
0.189841
0.194545
0.200879
0.207984
0.215215
0.22212
0.228408
0.233906
0.238531
0.242257
0.245128
0.247299
0.248797
0.248728
0.247122
0.254914
0.268721
0.251773
0.242907
0.239811
0.24031
0.243395
0.248084
0.253529
0.259106
0.26439
0.269115
0.273135
0.27639
0.278879
0.280668
0.281919
0.282663
0.282189
0.28076
0.28761
0.326235
0.306755
0.296084
0.291403
0.290285
0.291713
0.294715
0.298457
0.302341
0.305969
0.309098
0.311603
0.313442
0.314629
0.315237
0.315417
0.315191
0.31393
0.311909
0.317147
0.382803
0.360872
0.348432
0.34217
0.339421
0.339168
0.340453
0.342464
0.344627
0.346571
0.348077
0.349035
0.349417
0.349244
0.348588
0.347588
0.34625
0.344011
0.341167
0.344769
0.438035
0.413747
0.399585
0.391758
0.387378
0.385435
0.384991
0.385258
0.385688
0.385936
0.385803
0.385198
0.384098
0.38253
0.380562
0.378317
0.375791
0.372485
0.368718
0.370706
0.491546
0.465009
0.449183
0.439819
0.433825
0.430199
0.428032
0.426559
0.425261
0.423819
0.422054
0.419887
0.417303
0.414332
0.411038
0.40753
0.403798
0.399405
0.394687
0.395089
0.542968
0.514299
0.496876
0.486018
0.478439
0.473158
0.469291
0.466102
0.463102
0.459996
0.456623
0.452918
0.448872
0.444517
0.439913
0.435156
0.430235
0.424775
0.419114
0.417975
0.591944
0.56127
0.542329
0.53003
0.520915
0.514022
0.508498
0.503638
0.498981
0.494256
0.489322
0.484123
0.478658
0.472958
0.467083
0.461117
0.455049
0.448563
0.441988
0.439368
0.638136
0.605591
0.585219
0.571548
0.560959
0.552516
0.545399
0.53893
0.532681
0.526403
0.519972
0.513343
0.50652
0.499536
0.492447
0.48533
0.478174
0.470717
0.46327
0.459241
0.681222
0.646951
0.625245
0.610281
0.598297
0.588383
0.579753
0.57176
0.564002
0.556255
0.548409
0.54043
0.532328
0.524135
0.515905
0.507707
0.499534
0.491174
0.482905
0.477552
0.720904
0.685057
0.662124
0.645958
0.632672
0.621383
0.611338
0.601921
0.592756
0.58364
0.574478
0.565245
0.555954
0.546641
0.537356
0.528159
0.51905
0.50986
0.500831
0.494249
0.756907
0.719641
0.695594
0.678329
0.663848
0.651297
0.639952
0.629227
0.618772
0.608401
0.598036
0.587657
0.577282
0.566948
0.556703
0.546599
0.536641
0.526701
0.51698
0.509275
0.788981
0.750458
0.725418
0.707169
0.691613
0.677924
0.665409
0.653508
0.641892
0.630396
0.618951
0.607546
0.596202
0.584957
0.573854
0.562942
0.55223
0.541623
0.531284
0.522573
0.816901
0.77729
0.751387
0.732274
0.715775
0.701087
0.687545
0.674611
0.661978
0.649496
0.637107
0.624805
0.612615
0.600574
0.588725
0.57711
0.565742
0.554558
0.543678
0.534087
0.840473
0.799948
0.773315
0.75347
0.73617
0.720631
0.706215
0.692403
0.678907
0.665589
0.652399
0.639339
0.626433
0.61372
0.601239
0.589031
0.577111
0.565441
0.554105
0.543767
0.859533
0.818271
0.791047
0.770608
0.752656
0.736426
0.721299
0.706775
0.692577
0.67858
0.664742
0.651066
0.63758
0.624323
0.611333
0.598645
0.586279
0.574217
0.562512
0.551567
0.873945
0.832128
0.804458
0.783568
0.76512
0.748366
0.732699
0.717633
0.702904
0.688392
0.674062
0.65992
0.645996
0.632327
0.618951
0.605901
0.593198
0.580841
0.568855
0.557452
0.88361
0.841421
0.813451
0.792259
0.773478
0.75637
0.740341
0.724911
0.709823
0.694966
0.680306
0.665851
0.651633
0.637688
0.624053
0.61076
0.597832
0.585277
0.573104
0.561391
0.88846
0.846084
0.817964
0.79662
0.777671
0.760386
0.744174
0.728561
0.713294
0.698263
0.683437
0.668825
0.654459
0.640376
0.626611
0.613197
0.600155
0.587501
0.575233
0.563365
0.88846
0.846084
0.817964
0.79662
0.777671
0.760386
0.744174
0.728561
0.713294
0.698263
0.683437
0.668825
0.654459
0.640376
0.626611
0.613197
0.600155
0.587501
0.575233
0.563365
0.88361
0.841421
0.813451
0.792259
0.773478
0.75637
0.740341
0.724911
0.709823
0.694966
0.680306
0.665851
0.651633
0.637688
0.624053
0.61076
0.597832
0.585277
0.573104
0.561391
0.873945
0.832128
0.804457
0.783568
0.76512
0.748365
0.732699
0.717633
0.702903
0.688392
0.674062
0.65992
0.645996
0.632327
0.618951
0.605901
0.593198
0.580841
0.568856
0.557452
0.859532
0.81827
0.791047
0.770608
0.752655
0.736425
0.721299
0.706774
0.692577
0.67858
0.664741
0.651065
0.63758
0.624323
0.611333
0.598645
0.586279
0.574217
0.562512
0.551567
0.840473
0.799948
0.773314
0.75347
0.736169
0.72063
0.706215
0.692403
0.678907
0.665589
0.652399
0.639338
0.626433
0.61372
0.601239
0.589031
0.577111
0.565441
0.554105
0.543767
0.8169
0.77729
0.751386
0.732274
0.715775
0.701086
0.687544
0.67461
0.661977
0.649496
0.637106
0.624805
0.612615
0.600574
0.588724
0.57711
0.565742
0.554558
0.543678
0.534087
0.78898
0.750457
0.725417
0.707168
0.691612
0.677923
0.665409
0.653507
0.641891
0.630396
0.618951
0.607546
0.596202
0.584956
0.573854
0.562942
0.55223
0.541623
0.531284
0.522573
0.756906
0.71964
0.695592
0.678328
0.663847
0.651296
0.639952
0.629227
0.618771
0.608401
0.598035
0.587656
0.577282
0.566948
0.556703
0.546599
0.536641
0.526701
0.51698
0.509275
0.720903
0.685056
0.662122
0.645957
0.632671
0.621382
0.611338
0.60192
0.592755
0.583639
0.574478
0.565244
0.555954
0.546641
0.537356
0.528159
0.51905
0.50986
0.500831
0.494248
0.68122
0.646949
0.625244
0.61028
0.598296
0.588382
0.579752
0.571759
0.564001
0.556254
0.548409
0.54043
0.532327
0.524135
0.515905
0.507707
0.499534
0.491174
0.482905
0.477552
0.638134
0.60559
0.585218
0.571547
0.560958
0.552515
0.545397
0.538929
0.53268
0.526403
0.519972
0.513343
0.50652
0.499536
0.492447
0.485329
0.478174
0.470717
0.46327
0.459241
0.591943
0.561268
0.542327
0.530029
0.520914
0.514021
0.508497
0.503637
0.49898
0.494255
0.489321
0.484122
0.478657
0.472958
0.467082
0.461117
0.455049
0.448563
0.441988
0.439368
0.542967
0.514297
0.496875
0.486016
0.478438
0.473157
0.46929
0.466101
0.463101
0.459995
0.456623
0.452917
0.448872
0.444516
0.439912
0.435156
0.430235
0.424775
0.419114
0.417975
0.491545
0.465008
0.449181
0.439818
0.433823
0.430198
0.428031
0.426558
0.42526
0.423818
0.422053
0.419886
0.417303
0.414332
0.411038
0.40753
0.403798
0.399405
0.394687
0.395088
0.438033
0.413745
0.399583
0.391756
0.387377
0.385433
0.38499
0.385257
0.385687
0.385935
0.385803
0.385197
0.384098
0.382529
0.380561
0.378316
0.375791
0.372485
0.368718
0.370705
0.382802
0.36087
0.348431
0.342169
0.33942
0.339166
0.340452
0.342463
0.344627
0.346571
0.348076
0.349035
0.349417
0.349244
0.348588
0.347588
0.34625
0.344011
0.341167
0.344769
0.326233
0.306753
0.296082
0.291402
0.290284
0.291711
0.294713
0.298456
0.30234
0.305968
0.309097
0.311602
0.313442
0.314629
0.315237
0.315417
0.315191
0.313929
0.311909
0.317147
0.268719
0.251771
0.242905
0.239809
0.240309
0.243393
0.248083
0.253528
0.259105
0.264389
0.269115
0.273135
0.27639
0.278879
0.280668
0.281919
0.282663
0.282189
0.280759
0.28761
0.210655
0.196304
0.189267
0.187749
0.189839
0.194543
0.200878
0.207983
0.215214
0.222119
0.228407
0.233905
0.23853
0.242257
0.245127
0.247298
0.248797
0.248728
0.247122
0.254914
0.152439
0.140735
0.135538
0.135579
0.139221
0.145494
0.153419
0.162133
0.170972
0.17946
0.187278
0.194226
0.200188
0.205095
0.208929
0.211762
0.21349
0.212809
0.208787
0.214265
0.0944699
0.0854406
0.0820841
0.0836543
0.0887988
0.0965786
0.10603
0.116292
0.126689
0.136726
0.146061
0.154471
0.161812
0.167986
0.172918
0.176545
0.17864
0.178425
0.175535
0.173129
0.0371173
0.0307775
0.0292514
0.0323133
0.0389011
0.048117
0.0590208
0.0707624
0.0826627
0.0942167
0.105071
0.114993
0.123842
0.131543
0.138061
0.143376
0.147431
0.150305
0.15288
0.155055
-0.0192431
-0.0228993
-0.0226175
-0.0181118
-0.01015
0.000419322
0.0126882
0.0258265
0.0391589
0.0521761
0.0645182
0.075951
0.086339
0.0956248
0.103809
0.110902
0.116918
0.122286
0.128334
0.133234
-0.0742574
-0.0752558
-0.0732003
-0.0673076
-0.058051
-0.0462222
-0.032689
-0.0182543
-0.00358342
0.0108133
0.0245717
0.0374527
0.0493196
0.0601189
0.0698583
0.0785533
0.0862332
0.0934085
0.101377
0.107497
-0.127597
-0.125981
-0.122197
-0.114983
-0.104519
-0.0915344
-0.0768506
-0.0612358
-0.0453407
-0.0296732
-0.0146015
-0.000371145
0.0128748
0.0250777
0.0362406
0.0463736
0.0555107
0.0641686
0.0734804
0.0803427
-0.178959
-0.174791
-0.169333
-0.160868
-0.149291
-0.135264
-0.119554
-0.102889
-0.0859005
-0.0690909
-0.0528313
-0.0373747
-0.0228737
-0.00939712
0.00304662
0.0144565
0.0248637
0.0347681
0.0451357
0.0526043
-0.22807
-0.221427
-0.21436
-0.204722
-0.192131
-0.17718
-0.160575
-0.143
-0.125061
-0.107252
-0.0899453
-0.0734012
-0.057783
-0.0431723
-0.0295922
-0.0170573
-0.00554342
0.00542337
0.0166664
0.0247095
-0.274689
-0.265664
-0.257059
-0.246328
-0.232827
-0.217072
-0.199709
-0.18137
-0.162632
-0.143975
-0.125771
-0.108287
-0.0916949
-0.076091
-0.061513
-0.047989
-0.0355033
-0.0236118
-0.0116119
-0.00299324
-0.318606
-0.307304
-0.29724
-0.285502
-0.271193
-0.254757
-0.236774
-0.217819
-0.198436
-0.179088
-0.160142
-0.141867
-0.124448
-0.10799
-0.0925463
-0.0781579
-0.0648172
-0.0521121
-0.0394422
-0.0302418
-0.359645
-0.346187
-0.334748
-0.322088
-0.307073
-0.290077
-0.271609
-0.252186
-0.232313
-0.212432
-0.1929
-0.173988
-0.155885
-0.138711
-0.122531
-0.107396
-0.0933084
-0.079888
-0.0666217
-0.0568376
-0.397666
-0.382182
-0.369459
-0.355961
-0.340342
-0.322902
-0.304081
-0.284334
-0.264123
-0.243864
-0.223902
-0.204504
-0.185864
-0.168111
-0.15132
-0.135554
-0.120822
-0.10678
-0.0929867
-0.0826254
-0.432562
-0.415193
-0.40128
-0.38703
-0.370903
-0.353131
-0.334082
-0.31415
-0.293748
-0.273263
-0.253023
-0.233288
-0.214256
-0.196059
-0.178783
-0.1625
-0.147228
-0.132656
-0.118406
-0.107484
-0.464259
-0.445158
-0.430152
-0.415235
-0.398691
-0.380691
-0.361533
-0.341545
-0.321093
-0.300528
-0.280158
-0.260235
-0.240951
-0.222445
-0.20481
-0.188124
-0.172416
-0.157408
-0.142774
-0.131319
-0.49272
-0.472045
-0.456049
-0.440547
-0.423673
-0.40554
-0.386381
-0.366459
-0.346088
-0.325582
-0.305226
-0.285255
-0.26586
-0.247179
-0.22931
-0.212338
-0.196298
-0.18095
-0.16601
-0.154061
-0.517937
-0.495855
-0.478973
-0.462967
-0.445844
-0.427667
-0.408605
-0.388859
-0.36869
-0.348373
-0.328165
-0.308286
-0.288914
-0.270189
-0.252212
-0.23507
-0.218807
-0.203216
-0.188053
-0.17566
-0.539936
-0.51662
-0.498957
-0.482525
-0.465229
-0.447086
-0.428209
-0.408737
-0.388881
-0.368873
-0.34894
-0.329282
-0.310067
-0.291427
-0.273466
-0.256271
-0.239894
-0.224162
-0.208863
-0.196083
-0.55877
-0.534397
-0.516062
-0.49928
-0.48188
-0.463842
-0.445226
-0.426115
-0.406668
-0.387079
-0.367538
-0.348224
-0.32929
-0.310862
-0.293039
-0.275909
-0.259528
-0.243758
-0.228416
-0.215317
-0.574524
-0.549271
-0.530372
-0.513315
-0.495874
-0.478001
-0.459712
-0.441037
-0.422086
-0.40301
-0.383968
-0.365112
-0.346579
-0.328482
-0.310918
-0.293969
-0.277697
-0.261994
-0.246706
-0.233364
-0.587303
-0.561351
-0.541996
-0.524735
-0.507311
-0.489657
-0.471749
-0.453571
-0.435188
-0.41671
-0.398262
-0.379968
-0.361946
-0.344297
-0.327107
-0.310457
-0.294404
-0.278875
-0.263744
-0.250243
-0.597239
-0.570763
-0.551061
-0.533665
-0.516311
-0.498921
-0.481439
-0.463808
-0.446052
-0.428243
-0.410471
-0.392834
-0.375425
-0.358332
-0.34163
-0.32539
-0.30967
-0.294424
-0.279554
-0.265989
-0.604477
-0.577654
-0.55771
-0.540245
-0.523011
-0.505923
-0.488901
-0.471856
-0.454774
-0.437691
-0.420666
-0.403766
-0.387065
-0.37063
-0.354523
-0.338805
-0.323529
-0.308676
-0.294179
-0.280652
-0.609192
-0.582187
-0.562104
-0.544636
-0.527565
-0.51081
-0.494275
-0.477842
-0.461468
-0.445157
-0.428935
-0.412844
-0.396932
-0.381248
-0.365838
-0.350751
-0.336029
-0.321681
-0.307673
-0.294296
-0.61156
-0.584533
-0.564411
-0.547001
-0.530135
-0.513739
-0.497708
-0.481906
-0.466263
-0.450755
-0.435381
-0.420156
-0.405105
-0.390256
-0.37564
-0.361288
-0.34723
-0.333499
-0.320101
-0.306999
-0.611768
-0.584871
-0.564805
-0.547514
-0.53089
-0.514874
-0.49936
-0.484197
-0.469297
-0.454612
-0.440117
-0.425805
-0.411675
-0.397737
-0.384003
-0.370486
-0.357201
-0.344201
-0.331539
-0.318849
-0.610012
-0.583385
-0.563468
-0.546352
-0.530006
-0.514389
-0.499397
-0.484874
-0.470719
-0.456865
-0.44327
-0.429902
-0.416743
-0.403781
-0.39101
-0.378422
-0.366017
-0.353863
-0.342069
-0.329942
-0.606487
-0.580261
-0.560579
-0.543694
-0.527661
-0.512458
-0.497989
-0.484101
-0.470683
-0.457659
-0.444969
-0.432566
-0.420414
-0.408482
-0.396746
-0.385179
-0.373757
-0.362565
-0.351776
-0.340378
-0.601389
-0.575681
-0.556317
-0.539718
-0.524029
-0.509254
-0.495308
-0.482043
-0.469349
-0.457141
-0.445351
-0.433921
-0.422798
-0.411938
-0.4013
-0.390835
-0.380498
-0.370384
-0.360743
-0.350258
-0.594905
-0.569824
-0.550855
-0.534594
-0.519285
-0.50495
-0.491524
-0.478867
-0.466874
-0.45546
-0.444554
-0.43409
-0.424006
-0.414246
-0.404757
-0.395469
-0.386313
-0.377392
-0.369045
-0.359675
-0.587216
-0.562858
-0.544359
-0.52849
-0.513592
-0.499712
-0.486801
-0.474735
-0.463415
-0.452766
-0.442714
-0.433196
-0.424145
-0.415499
-0.407195
-0.399149
-0.391264
-0.383648
-0.376743
-0.368712
-0.578487
-0.554944
-0.536985
-0.521561
-0.507109
-0.493699
-0.4813
-0.469803
-0.459127
-0.449201
-0.439965
-0.431357
-0.423317
-0.415782
-0.408684
-0.401929
-0.395396
-0.389194
-0.383881
-0.377429
-0.568873
-0.546227
-0.528878
-0.513952
-0.499983
-0.48706
-0.475169
-0.464223
-0.454153
-0.444906
-0.436433
-0.428687
-0.421616
-0.415166
-0.409275
-0.403844
-0.398731
-0.394045
-0.390471
-0.385864
-0.558506
-0.536838
-0.520169
-0.505794
-0.492347
-0.47993
-0.468549
-0.458132
-0.448631
-0.44001
-0.432238
-0.425287
-0.419123
-0.41371
-0.409
-0.404902
-0.40126
-0.398181
-0.396491
-0.394018
-0.547507
-0.526897
-0.510974
-0.497206
-0.48432
-0.472433
-0.461563
-0.451658
-0.442687
-0.434633
-0.427489
-0.421247
-0.415905
-0.41145
-0.407864
-0.405075
-0.402928
-0.401531
-0.401866
-0.401849
-0.535978
-0.516507
-0.501397
-0.488291
-0.476009
-0.464675
-0.45432
-0.444909
-0.436428
-0.428879
-0.422277
-0.416644
-0.412008
-0.408397
-0.405832
-0.404285
-0.403619
-0.403952
-0.406449
-0.409254
-0.524009
-0.505759
-0.49153
-0.479138
-0.467501
-0.456746
-0.446912
-0.437979
-0.429948
-0.422837
-0.416682
-0.411534
-0.407457
-0.404527
-0.402824
-0.402383
-0.403119
-0.405187
-0.409978
-0.416051
-0.511682
-0.494737
-0.481451
-0.469825
-0.458871
-0.448718
-0.439412
-0.430942
-0.423319
-0.416574
-0.410761
-0.405953
-0.402251
-0.399781
-0.398697
-0.399127
-0.401077
-0.404788
-0.411983
-0.421891
-0.499078
-0.483516
-0.471232
-0.460416
-0.450179
-0.440649
-0.431875
-0.423852
-0.416596
-0.410143
-0.404554
-0.399918
-0.396361
-0.394055
-0.393229
-0.394128
-0.396891
-0.401921
-0.411492
-0.425991
-0.48628
-0.472174
-0.460941
-0.45097
-0.441477
-0.432586
-0.424344
-0.416751
-0.409819
-0.403581
-0.398093
-0.393441
-0.389755
-0.38723
-0.38615
-0.386876
-0.389696
-0.395247
-0.406805
-0.427075
-0.473377
-0.460785
-0.450641
-0.441542
-0.432811
-0.424566
-0.416854
-0.409672
-0.403023
-0.396926
-0.391415
-0.38655
-0.382433
-0.379233
-0.377239
-0.376887
-0.378616
-0.383289
-0.3956
-0.422905
-0.46047
-0.44943
-0.440398
-0.432184
-0.424224
-0.416629
-0.409442
-0.402653
-0.396254
-0.390236
-0.38459
-0.379317
-0.374428
-0.369962
-0.366041
-0.362951
-0.360994
-0.360365
-0.364936
-0.389752
-0.447669
-0.438193
-0.430277
-0.422951
-0.415762
-0.408816
-0.402151
-0.395752
-0.389595
-0.383639
-0.377822
-0.372053
-0.366186
-0.359977
-0.353039
-0.344818
-0.334143
-0.317193
-0.287498
-0.257145
-0.435089
-0.427161
-0.42035
-0.413902
-0.407476
-0.401175
-0.395036
-0.389043
-0.383164
-0.377344
-0.371503
-0.36552
-0.359224
-0.352358
-0.344566
-0.335443
-0.324362
-0.309213
-0.286655
-0.266489
-0.422848
-0.41642
-0.410683
-0.405092
-0.399415
-0.393753
-0.388145
-0.38258
-0.37703
-0.371442
-0.365739
-0.359814
-0.353529
-0.346695
-0.339091
-0.330516
-0.320707
-0.308698
-0.29361
-0.283201
-0.411052
-0.406051
-0.401342
-0.396576
-0.391626
-0.386592
-0.381516
-0.3764
-0.371222
-0.365942
-0.360496
-0.354806
-0.348767
-0.342259
-0.335155
-0.32737
-0.318786
-0.308864
-0.297571
-0.291221
-0.3998
-0.396129
-0.392388
-0.388407
-0.384154
-0.379729
-0.375183
-0.370528
-0.365755
-0.360837
-0.355735
-0.350393
-0.344749
-0.338733
-0.332292
-0.325417
-0.318084
-0.309962
-0.30122
-0.296813
-0.38917
-0.386718
-0.383874
-0.38063
-0.377038
-0.3732
-0.369173
-0.364982
-0.360633
-0.356114
-0.351406
-0.346479
-0.341303
-0.335849
-0.330109
-0.324118
-0.317899
-0.311236
-0.304325
-0.301058
-0.379222
-0.377868
-0.375845
-0.373283
-0.370312
-0.367032
-0.363508
-0.359777
-0.355857
-0.351753
-0.347462
-0.342977
-0.33829
-0.3334
-0.328325
-0.323119
-0.317821
-0.312275
-0.306657
-0.304062
-0.37
-0.36962
-0.368337
-0.366401
-0.364005
-0.36125
-0.358206
-0.354921
-0.351425
-0.347736
-0.343866
-0.339822
-0.335615
-0.331259
-0.326786
-0.322255
-0.317708
-0.313022
-0.308336
-0.306131
-0.361526
-0.361999
-0.361376
-0.360009
-0.358141
-0.355874
-0.353281
-0.350422
-0.347335
-0.344049
-0.340586
-0.336967
-0.333212
-0.329345
-0.325404
-0.321445
-0.317508
-0.313493
-0.309499
-0.307526
-0.35381
-0.355023
-0.354982
-0.354124
-0.352736
-0.350917
-0.348744
-0.346284
-0.343583
-0.340678
-0.337601
-0.334378
-0.331037
-0.327609
-0.324129
-0.320652
-0.317212
-0.313726
-0.31026
-0.30843
-0.346852
-0.348699
-0.349168
-0.348761
-0.347804
-0.34639
-0.344602
-0.34251
-0.340167
-0.337616
-0.334894
-0.332033
-0.329065
-0.326022
-0.32294
-0.319866
-0.316832
-0.313768
-0.310713
-0.308977
-0.340643
-0.343029
-0.343938
-0.343929
-0.343353
-0.342303
-0.340862
-0.339103
-0.337086
-0.334856
-0.332455
-0.329919
-0.32728
-0.324572
-0.321828
-0.319092
-0.316391
-0.313665
-0.310937
-0.309269