1.45 	0 	0 	0.0370734 	-0.006832 	3.67909e-21
2.35 	0 	0 	0.233427 	-0.0115186 	7.19531e-22
