/*--------------------------------*- C++ -*----------------------------------*\
  =========                 |
  \\      /  F ield         | OpenFOAM: The Open Source CFD Toolbox
   \\    /   O peration     | Website:  https://openfoam.org
    \\  /    A nd           | Version:  6.0
     \\/     M anipulation  |
\*---------------------------------------------------------------------------*/
FoamFile
{
    version     2.0;
    format      ascii;
    class       surfaceScalarField;
    location    "32";
    object      phi;
}
// * * * * * * * * * * * * * * * * * * * * * * * * * * * * * * * * * * * * * //

dimensions      [0 3 -1 0 0 0 0];

internalField   nonuniform List<scalar> 
68636
(
3.02234e-05
0.00310559
1.62306e-08
6.08569e-05
0.00307064
9.11162e-05
0.00300234
0.000120493
0.00290133
0.000148625
0.00276855
0.000175169
0.00260533
0.000199812
0.00241345
0.000222266
0.00219511
0.00024227
0.00195278
0.000259597
0.00168906
0.000274051
0.00140685
0.000285471
0.0011091
0.000293741
0.000799165
0.000298733
0.000479711
0.000149657
0.000298809
2.99498e-05
0.00307562
2.11525e-08
6.03062e-05
0.00304028
9.02851e-05
0.00297236
0.000119388
0.00287222
0.000147261
0.00274067
0.000173565
0.00257901
0.000197986
0.00238901
0.000220237
0.00217284
0.000240058
0.00193293
0.000257227
0.00167187
0.00027155
0.00139251
0.000282863
0.00109776
0.000291082
0.000790916
0.000295875
0.000474873
0.000149268
0.000296186
2.9677e-05
0.00304592
2.26028e-08
5.97533e-05
0.0030102
8.94535e-05
0.00294266
0.00011829
0.00284338
0.000145912
0.00271305
0.000171981
0.00255294
0.000196182
0.00236481
0.000218231
0.0021508
0.000237872
0.00191329
0.000254884
0.00165486
0.000269077
0.00137832
0.00028028
0.00108656
0.000288427
0.000782776
0.000293265
0.000470049
0.000148594
0.000293979
2.94045e-05
0.00301649
2.3511e-08
5.92011e-05
0.0029804
8.86264e-05
0.00291324
0.000117202
0.0028148
0.000144577
0.00268567
0.000170413
0.0025271
0.000194395
0.00234082
0.000216244
0.00212894
0.000235705
0.00189382
0.000252562
0.001638
0.000266626
0.00136424
0.000277722
0.00107545
0.000285782
0.000774698
0.00029062
0.000465182
0.000147598
0.000291568
2.91326e-05
0.00298733
2.2341e-08
5.86517e-05
0.00295088
8.78063e-05
0.00288409
0.000116125
0.00278648
0.000143257
0.00265854
0.00016886
0.0025015
0.000192625
0.00231705
0.000214274
0.0021073
0.000233557
0.00187454
0.00025026
0.0016213
0.000264196
0.00135031
0.000275189
0.00106447
0.000283156
0.00076674
0.000287949
0.000460405
0.00014654
0.00028905
2.88616e-05
0.00295845
2.18667e-08
5.81065e-05
0.00292163
8.69945e-05
0.0028552
0.00011506
0.00275841
0.00014195
0.00263165
0.000167323
0.00247613
0.000190871
0.0022935
0.000212322
0.00208584
0.000231429
0.00185543
0.000247978
0.00160474
0.000261788
0.00133649
0.00027268
0.00105357
0.000280558
0.00075885
0.000285295
0.000455646
0.000145309
0.000286491
2.85921e-05
0.00292983
2.3196e-08
5.75667e-05
0.00289266
8.6192e-05
0.00282658
0.000114007
0.0027306
0.000140656
0.00260501
0.0001658
0.00245099
0.000189134
0.00227017
0.000210388
0.00206459
0.000229319
0.0018365
0.000245718
0.00158835
0.000259401
0.00132281
0.000270196
0.00104278
0.000277988
0.000751067
0.000282668
0.000450982
0.000144102
0.000283917
2.83247e-05
0.00290148
2.64998e-08
5.7033e-05
0.00286395
8.5399e-05
0.00279821
0.000112965
0.00270303
0.000139374
0.0025786
0.00016429
0.00242607
0.000187411
0.00224705
0.000208471
0.00204353
0.000227229
0.00181774
0.000243478
0.0015721
0.000257036
0.00130925
0.000267734
0.00103207
0.000275448
0.000743342
0.000280073
0.000446338
0.000142793
0.000281353
2.80599e-05
0.00287339
3.309e-08
5.65059e-05
0.0028355
8.46156e-05
0.0027701
0.000111935
0.00267571
0.000138105
0.00255243
0.000162794
0.00240139
0.000185704
0.00222414
0.000206571
0.00202267
0.000225158
0.00179915
0.000241258
0.00155601
0.000254692
0.00129582
0.000265295
0.00102148
0.000272934
0.000735712
0.000277509
0.000441778
0.000141532
0.000278809
2.77979e-05
0.00284555
4.20854e-08
5.59854e-05
0.00280731
8.38414e-05
0.00274225
0.000110915
0.00264864
0.000136848
0.0025265
0.000161311
0.00237692
0.000184011
0.00220144
0.000204687
0.00200199
0.000223105
0.00178073
0.000239058
0.00154005
0.000252369
0.0012825
0.000262877
0.00101096
0.000270445
0.000728133
0.000274974
0.000437231
0.000140198
0.000276281
2.7539e-05
0.00281796
5.26315e-08
5.54712e-05
0.00277938
8.30759e-05
0.00271464
0.000109905
0.00262181
0.000135601
0.0025008
0.000159841
0.00235269
0.000182333
0.00217895
0.00020282
0.00198151
0.00022107
0.00176249
0.000236878
0.00152424
0.000250067
0.00126932
0.000260481
0.00100056
0.00026798
0.000720643
0.000272466
0.000432759
0.000138926
0.000273775
2.72832e-05
0.00279061
6.33699e-08
5.49629e-05
0.0027517
8.23183e-05
0.00268729
0.000108904
0.00259523
0.000134366
0.00247534
0.000158383
0.00232867
0.000180669
0.00215666
0.000200969
0.00196121
0.000219053
0.0017444
0.000234717
0.00150857
0.000247786
0.00125624
0.000258105
0.000990229
0.000265537
0.000713202
0.000269984
0.000428295
0.000137587
0.000271298
2.70304e-05
0.00276351
7.22464e-08
5.44601e-05
0.00272427
8.1568e-05
0.00266018
0.000107912
0.00256888
0.000133142
0.00245011
0.000156938
0.00230488
0.00017902
0.00213458
0.000199134
0.0019411
0.000217054
0.00172648
0.000232575
0.00149306
0.000245525
0.0012433
0.00025575
0.000980008
0.000263116
0.000705845
0.000267527
0.000423898
0.000136296
0.000268852
2.67805e-05
0.00273665
7.80585e-08
5.39623e-05
0.00269709
8.08245e-05
0.00263332
0.000106929
0.00254278
0.000131928
0.00242512
0.000155506
0.0022813
0.000177386
0.0021127
0.000197317
0.00192116
0.000215073
0.00170872
0.000230453
0.00147767
0.000243284
0.00123046
0.000253417
0.000969869
0.000260716
0.000698536
0.000265092
0.000419507
0.000134935
0.00026643
2.65334e-05
0.00271003
7.99637e-08
5.34692e-05
0.00267015
8.00875e-05
0.0026067
0.000105954
0.00251691
0.000130724
0.00240035
0.000154087
0.00225794
0.000175767
0.00209102
0.000195516
0.00190142
0.000213111
0.00169113
0.000228351
0.00146244
0.000241065
0.00121775
0.000251105
0.000959834
0.000258339
0.000691311
0.00026268
0.00041518
0.000133624
0.000264024
2.62889e-05
0.00268367
7.8131e-08
5.29806e-05
0.00264346
7.93567e-05
0.00258033
0.000104987
0.00249128
0.000129531
0.0023758
0.000152681
0.00223478
0.000174163
0.00206954
0.000193732
0.00188185
0.000211167
0.00167369
0.000226269
0.00144733
0.000238866
0.00120515
0.000248815
0.00094988
0.000255984
0.000684133
0.00026029
0.00041086
0.000132259
0.000261633
2.60469e-05
0.00265755
7.39738e-08
5.24963e-05
0.00261701
7.86321e-05
0.00255419
0.000104028
0.00246589
0.000128348
0.00235148
0.000151287
0.00221185
0.000172573
0.00204825
0.000191965
0.00186246
0.000209241
0.00165642
0.000224206
0.00143237
0.000236688
0.00119267
0.000246545
0.000940028
0.00025365
0.000677037
0.000257921
0.000406603
0.000130952
0.00025926
2.58072e-05
0.00263167
6.93652e-08
5.20163e-05
0.0025908
7.79138e-05
0.0025283
0.000103078
0.00244073
0.000127175
0.00232738
0.000149905
0.00218912
0.000170998
0.00202716
0.000190213
0.00184324
0.000207333
0.0016393
0.000222162
0.00141754
0.00023453
0.0011803
0.000244297
0.000930256
0.000251338
0.000669988
0.000255574
0.000402354
0.000129594
0.000256911
2.55697e-05
0.00260603
6.65566e-08
5.15404e-05
0.00256483
7.72018e-05
0.00250263
0.000102136
0.00241579
0.000126013
0.00230351
0.000148535
0.0021666
0.000169436
0.00200626
0.000188478
0.0018242
0.000205442
0.00162234
0.000220136
0.00140285
0.000232391
0.00116805
0.000242068
0.000920585
0.000249046
0.000663019
0.000253249
0.000398164
0.000128283
0.000254591
2.53342e-05
0.00258063
6.73282e-08
5.10686e-05
0.0025391
7.6496e-05
0.00247721
0.000101202
0.00239109
0.000124861
0.00227985
0.000147178
0.00214428
0.000167889
0.00198555
0.000186758
0.00180533
0.000203568
0.00160552
0.000218129
0.00138828
0.000230272
0.0011559
0.00023986
0.000910992
0.000246775
0.000656097
0.000250946
0.000393982
0.00012691
0.0002523
2.51005e-05
0.00255546
7.2359e-08
5.06009e-05
0.0025136
7.57965e-05
0.00245201
0.000100277
0.00236661
0.00012372
0.00225641
0.000145833
0.00212217
0.000166356
0.00196503
0.000185054
0.00178664
0.000201712
0.00158887
0.00021614
0.00137386
0.000228172
0.00114387
0.000237672
0.000901498
0.000244524
0.000649253
0.000248664
0.000389854
0.000125569
0.000250033
2.48687e-05
0.00253051
8.11617e-08
5.0137e-05
0.00248833
7.51032e-05
0.00242705
9.93606e-05
0.00234235
0.000122589
0.00223318
0.000144501
0.00210026
0.000164838
0.00194469
0.000183365
0.00176811
0.000199872
0.00157236
0.000214169
0.00135956
0.000226091
0.00113195
0.000235504
0.000892082
0.000242293
0.000642457
0.000246402
0.000385736
0.000124168
0.000247785
2.46387e-05
0.00250578
9.19523e-08
4.9677e-05
0.00246329
7.44159e-05
0.00240231
9.84526e-05
0.00231832
0.000121469
0.00221016
0.000143181
0.00207855
0.000163333
0.00192454
0.000181693
0.00174975
0.00019805
0.00155601
0.000212216
0.0013454
0.00022403
0.00112014
0.000233356
0.00088276
0.000240084
0.000635737
0.000244158
0.000381673
0.000122802
0.00024555
2.44106e-05
0.00248127
1.02276e-07
4.9221e-05
0.00243848
7.37348e-05
0.0023778
9.75528e-05
0.0022945
0.00012036
0.00218736
0.000141875
0.00205703
0.000161843
0.00190457
0.000180037
0.00173156
0.000196245
0.0015398
0.000210282
0.00133136
0.000221987
0.00110843
0.000231228
0.000873517
0.000237895
0.000629065
0.000241934
0.000377625
0.000121393
0.000243326
2.41847e-05
0.00245697
1.09701e-07
4.8769e-05
0.0024139
7.30598e-05
0.00235351
9.66612e-05
0.0022709
0.000119261
0.00216476
0.00014058
0.00203571
0.000160368
0.00188478
0.000178396
0.00171353
0.000194456
0.00152374
0.000208366
0.00131745
0.000219964
0.00109684
0.000229121
0.000864364
0.000235727
0.000622465
0.000239729
0.000373633
0.000120035
0.000241111
2.39609e-05
0.0024329
1.12518e-07
4.83211e-05
0.00238954
7.23909e-05
0.00232944
9.57778e-05
0.00224752
0.000118172
0.00214236
0.000139298
0.00201459
0.000158906
0.00186518
0.00017677
0.00169567
0.000192684
0.00150783
0.000206467
0.00130367
0.000217959
0.00108535
0.000227032
0.00085529
0.000233579
0.000615913
0.000237544
0.00036966
0.000118653
0.000238907
2.37393e-05
0.00240905
1.10307e-07
4.78774e-05
0.0023654
7.17281e-05
0.00230559
9.49024e-05
0.00222434
0.000117093
0.00212017
0.000138027
0.00199366
0.000157457
0.00184575
0.000175159
0.00167797
0.000190928
0.00149206
0.000204585
0.00129001
0.000215972
0.00107396
0.000224963
0.000846301
0.000231452
0.00060943
0.000235377
0.000365743
0.000117334
0.000236717
2.35201e-05
0.00238543
1.0404e-07
4.74379e-05
0.00234148
7.10715e-05
0.00228195
9.4035e-05
0.00220138
0.000116024
0.00209819
0.000136768
0.00197291
0.000156022
0.0018265
0.000173563
0.00166043
0.000189188
0.00147643
0.00020272
0.00127648
0.000214003
0.00106268
0.000222912
0.00083739
0.000229343
0.000602993
0.000233231
0.000361846
0.000115999
0.000234545
2.33032e-05
0.00236203
9.5751e-08
4.70027e-05
0.00231778
7.04209e-05
0.00225853
9.31756e-05
0.00217862
0.000114965
0.0020764
0.00013552
0.00195236
0.000154599
0.00180742
0.000171981
0.00164305
0.000187463
0.00146095
0.000200871
0.00126307
0.000212051
0.0010515
0.00022088
0.000828563
0.000227254
0.000596623
0.000231104
0.000358004
0.000114728
0.000232394
2.30886e-05
0.00233885
8.79725e-08
4.65716e-05
0.0022943
6.97765e-05
0.00223533
9.23241e-05
0.00215608
0.000113915
0.0020548
0.000134284
0.00193199
0.00015319
0.00178851
0.000170413
0.00162583
0.000185754
0.00144561
0.000199039
0.00124979
0.000210117
0.00104042
0.000218865
0.000819811
0.000225183
0.000590298
0.000228997
0.000354178
0.000113437
0.000230266
2.28762e-05
0.00231589
8.29581e-08
4.61449e-05
0.00227103
6.91382e-05
0.00221233
9.14804e-05
0.00213373
0.000112875
0.00203341
0.000133059
0.0019118
0.000151792
0.00176978
0.000168858
0.00160876
0.000184059
0.00143041
0.000197222
0.00123662
0.000208199
0.00102944
0.000216868
0.000811143
0.00022313
0.000584039
0.00022691
0.000350405
0.000112204
0.000228162
2.26658e-05
0.00229314
8.2122e-08
4.57222e-05
0.00224797
6.85058e-05
0.00218955
9.06445e-05
0.00211159
0.000111844
0.00201221
0.000131844
0.0018918
0.000150407
0.00175121
0.000167317
0.00159185
0.000182379
0.00141534
0.000195422
0.00122358
0.000206298
0.00101856
0.000214889
0.000802547
0.000221096
0.000577824
0.000224843
0.000346645
0.000110939
0.000226083
2.24574e-05
0.0022706
8.57134e-08
4.53035e-05
0.00222512
6.78794e-05
0.00216697
8.98162e-05
0.00208965
0.000110823
0.0019912
0.000130641
0.00187198
0.000149034
0.00173282
0.00016579
0.00157509
0.000180714
0.00140042
0.000193637
0.00121065
0.000204414
0.00100778
0.000212927
0.000794035
0.000219079
0.000571675
0.000222796
0.000342936
0.000109725
0.000224028
2.22509e-05
0.00224825
9.28484e-08
4.48888e-05
0.00220248
6.72587e-05
0.0021446
8.89955e-05
0.00206792
0.000109811
0.00197038
0.000129448
0.00185234
0.000147674
0.00171459
0.000164276
0.00155849
0.000179063
0.00138562
0.000191868
0.00119784
0.000202547
0.000997098
0.000210983
0.000785593
0.000217081
0.000565567
0.000220768
0.000339236
0.000108471
0.000221996
2.20463e-05
0.0022261
1.01858e-07
4.44779e-05
0.00218005
6.66437e-05
0.00212243
8.81822e-05
0.00204637
0.000108808
0.00194975
0.000128265
0.00183288
0.000146325
0.00169653
0.000162775
0.00154203
0.000177427
0.00137097
0.000190115
0.00118515
0.000200697
0.000986515
0.000209057
0.000777234
0.000215101
0.000559526
0.000218759
0.000335586
0.000107263
0.000219986
2.18435e-05
0.00220415
1.10759e-07
4.40707e-05
0.00215782
6.60342e-05
0.00210047
8.73763e-05
0.00202503
0.000107814
0.00192931
0.000127094
0.0018136
0.000144988
0.00167863
0.000161288
0.00152573
0.000175805
0.00135645
0.000188377
0.00117257
0.000198864
0.000976024
0.000207148
0.000768943
0.00021314
0.000553524
0.000216769
0.000331945
0.000106011
0.000217996
2.16425e-05
0.00218239
1.17769e-07
4.36672e-05
0.0021358
6.54302e-05
0.0020787
8.65776e-05
0.00200388
0.000106828
0.00190905
0.000125932
0.00179449
0.000143663
0.0016609
0.000159813
0.00150958
0.000174198
0.00134206
0.000186656
0.00116012
0.000197047
0.000965633
0.000205258
0.000760734
0.000211197
0.00054759
0.000214798
0.000328352
0.000104802
0.000216026
2.14433e-05
0.00216082
1.2167e-07
4.32672e-05
0.00211397
6.48316e-05
0.00205714
8.5786e-05
0.00198292
0.000105852
0.00188898
0.000124781
0.00177556
0.000142349
0.00164332
0.000158352
0.00149357
0.000172606
0.0013278
0.00018495
0.00114776
0.000195248
0.00095533
0.000203385
0.00075259
0.000209272
0.000541693
0.000212846
0.000324767
0.00010355
0.000214074
2.12459e-05
0.00213945
1.22009e-07
4.28707e-05
0.00209234
6.42384e-05
0.00203577
8.50015e-05
0.00196216
0.000104884
0.0018691
0.00012364
0.0017568
0.000141048
0.00162591
0.000156904
0.00147771
0.000171028
0.00131368
0.000183261
0.00113553
0.000193466
0.000945126
0.00020153
0.000744528
0.000207367
0.000535862
0.000210912
0.000321231
0.000102341
0.00021214
2.10504e-05
0.00211828
1.19074e-07
4.24777e-05
0.00207092
6.36503e-05
0.00201459
8.42239e-05
0.00194159
0.000103925
0.0018494
0.00012251
0.00173821
0.000139758
0.00160866
0.00015547
0.001462
0.000169465
0.00129968
0.000181587
0.00112341
0.0001917
0.000935008
0.000199694
0.000736528
0.000205479
0.000530068
0.000208997
0.000317703
0.000101093
0.000210223
2.08566e-05
0.00209731
1.13744e-07
4.20882e-05
0.00204968
6.30675e-05
0.00199361
8.34532e-05
0.0019212
0.000102974
0.00182987
0.000121389
0.0017198
0.00013848
0.00159157
0.000154048
0.00144643
0.000167917
0.00128581
0.000179929
0.00111139
0.000189952
0.000924987
0.000197875
0.000728609
0.00020361
0.000524338
0.000207099
0.000314223
9.98886e-05
0.000208323
2.06647e-05
0.00207654
1.07217e-07
4.1702e-05
0.00202865
6.24898e-05
0.00197283
8.26893e-05
0.001901
0.000102032
0.00181053
0.000120278
0.00170155
0.000137213
0.00157464
0.00015264
0.001431
0.000166383
0.00127207
0.000178287
0.00109948
0.000188221
0.000915049
0.000196073
0.000720751
0.000201759
0.000518644
0.000205221
0.000310752
9.86487e-05
0.000206439
2.04745e-05
0.00205596
1.00753e-07
4.13194e-05
0.0020078
6.19173e-05
0.00195223
8.19323e-05
0.00188098
0.000101098
0.00179136
0.000119178
0.00168347
0.000135958
0.00155786
0.000151245
0.00141571
0.000164863
0.00125845
0.000176661
0.00108769
0.000186506
0.000905206
0.00019429
0.00071297
0.000199927
0.000513013
0.00020336
0.000307328
9.74541e-05
0.000204573
2.0286e-05
0.00203558
9.54284e-08
4.09401e-05
0.00198715
6.13499e-05
0.00193182
8.1182e-05
0.00186115
0.000100173
0.00177237
0.000118087
0.00166555
0.000134715
0.00154123
0.000149863
0.00140056
0.000163358
0.00124495
0.00017505
0.00107599
0.000184808
0.000895445
0.000192524
0.00070525
0.000198112
0.000507418
0.000201517
0.000303914
9.62272e-05
0.000202724
2.00993e-05
0.00201539
9.19919e-08
4.05642e-05
0.00196668
6.07875e-05
0.00191159
8.04385e-05
0.0018415
9.92558e-05
0.00175355
0.000117007
0.0016478
0.000133483
0.00152475
0.000148494
0.00138555
0.000161868
0.00123158
0.000173456
0.00106441
0.000183127
0.000885776
0.000190775
0.000697605
0.000196315
0.000501883
0.000199692
0.000300547
9.50461e-05
0.000200891
1.99142e-05
0.00199539
9.07919e-08
4.01917e-05
0.0019464
6.02302e-05
0.00189156
7.97017e-05
0.00182203
9.83473e-05
0.00173491
0.000115937
0.00163021
0.000132263
0.00150842
0.000147139
0.00137068
0.000160393
0.00121832
0.000171877
0.00105292
0.000181463
0.000876188
0.000189043
0.00069002
0.000194536
0.000496384
0.000197885
0.00029719
9.38358e-05
0.000199075
1.97307e-05
0.00197556
9.18057e-08
3.98226e-05
0.00192631
5.96781e-05
0.0018717
7.89717e-05
0.00180274
9.74472e-05
0.00171643
0.000114877
0.00161278
0.000131055
0.00149225
0.000145796
0.00135594
0.000158931
0.00120519
0.000170313
0.00104154
0.000179814
0.000866689
0.000187329
0.000682509
0.000192774
0.000490945
0.000196094
0.000293878
9.26716e-05
0.000197276
1.95489e-05
0.00195592
9.471e-08
3.9457e-05
0.0019064
5.9131e-05
0.00185203
7.82485e-05
0.00178362
9.65556e-05
0.00169812
0.000113827
0.00159551
0.000129859
0.00147621
0.000144467
0.00134133
0.000157485
0.00119217
0.000168765
0.00103026
0.000178183
0.000857269
0.000185631
0.000675056
0.000191029
0.000485541
0.000194322
0.000290578
9.14803e-05
0.000195494
1.93688e-05
0.00193645
9.90031e-08
3.90947e-05
0.00188667
5.85889e-05
0.00183253
7.7532e-05
0.00176468
9.56724e-05
0.00167998
0.000112787
0.00157839
0.000128674
0.00146033
0.000143151
0.00132685
0.000156052
0.00117927
0.000167232
0.00101908
0.000176567
0.000847937
0.00018395
0.000667676
0.000189301
0.000480195
0.000192565
0.000287323
9.03351e-05
0.000193728
1.91902e-05
0.00191716
1.0411e-07
3.87358e-05
0.00186713
5.8052e-05
0.00181322
7.68224e-05
0.00174591
9.47977e-05
0.00166201
0.000111757
0.00156143
0.000127501
0.00144458
0.000141848
0.00131251
0.000154634
0.00116648
0.000165715
0.00100799
0.000174967
0.000838682
0.000182286
0.000660353
0.00018759
0.000474885
0.000190826
0.000284079
8.91647e-05
0.000191978
1.90133e-05
0.00189803
1.09491e-07
3.83803e-05
0.00184776
5.75202e-05
0.00179408
7.61195e-05
0.00172731
9.39315e-05
0.00164419
0.000110737
0.00154463
0.000126339
0.00142898
0.000140557
0.00129829
0.00015323
0.00115381
0.000164212
0.00099701
0.000173383
0.000829514
0.000180637
0.000653101
0.000185895
0.000469632
0.000189103
0.000280879
8.80403e-05
0.000190244
1.88379e-05
0.00187908
1.147e-07
3.80281e-05
0.00182857
5.69935e-05
0.00177511
7.54234e-05
0.00170888
9.30737e-05
0.00162654
0.000109727
0.00152797
0.000125189
0.00141352
0.00013928
0.0012842
0.000151839
0.00114125
0.000162725
0.000986122
0.000171814
0.000820422
0.000179005
0.000645907
0.000184216
0.000464413
0.000187396
0.000277692
8.68922e-05
0.000188526
1.86643e-05
0.0018603
1.19428e-07
3.76794e-05
0.00180955
5.64718e-05
0.00175632
7.47341e-05
0.00169061
9.22244e-05
0.00160905
0.000108728
0.00151147
0.00012405
0.0013982
0.000138015
0.00127023
0.000150463
0.0011288
0.000161252
0.000975334
0.00017026
0.000811415
0.000177388
0.000638782
0.000182553
0.000459252
0.000185705
0.000274549
8.579e-05
0.000186823
1.84922e-05
0.00184168
1.23495e-07
3.7334e-05
0.00179071
5.59553e-05
0.0017377
7.40516e-05
0.00167252
9.13835e-05
0.00159172
0.000107738
0.00149511
0.000122923
0.00138301
0.000136763
0.00125639
0.0001491
0.00111646
0.000159793
0.000964638
0.000168722
0.000802484
0.000175786
0.000631714
0.000180906
0.000454126
0.00018403
0.000271418
8.46655e-05
0.000185136
1.83218e-05
0.00182323
1.26847e-07
3.6992e-05
0.00177204
5.54438e-05
0.00171924
7.33759e-05
0.00165458
9.05509e-05
0.00157454
0.000106758
0.0014789
0.000121807
0.00136796
0.000135523
0.00124267
0.00014775
0.00110423
0.000158348
0.00095404
0.000167198
0.000793636
0.000174199
0.000624715
0.000179274
0.000449056
0.000182369
0.000268331
8.35868e-05
0.000183464
1.8153e-05
0.00180495
1.29509e-07
3.66533e-05
0.00175354
5.49374e-05
0.00170096
7.27068e-05
0.00163682
8.97267e-05
0.00155752
0.000105788
0.00146284
0.000120702
0.00135305
0.000134296
0.00122908
0.000146414
0.00109211
0.000156917
0.000943534
0.000165689
0.000784861
0.000172628
0.000617772
0.000177657
0.00044402
0.000180724
0.000265256
8.24869e-05
0.000181806
1.79859e-05
0.00178683
1.31573e-07
3.63179e-05
0.0017352
5.44359e-05
0.00168284
7.20444e-05
0.00161921
8.89106e-05
0.00154066
0.000104827
0.00144692
0.000119608
0.00133827
0.00013308
0.0012156
0.00014509
0.0010801
0.0001555
0.000933124
0.000164193
0.00077617
0.00017107
0.000610898
0.000176055
0.00043904
0.000179094
0.000262225
8.14325e-05
0.000180163
1.78203e-05
0.00176887
1.33145e-07
3.59859e-05
0.00171704
5.39395e-05
0.00166489
7.13886e-05
0.00160176
8.81027e-05
0.00152394
0.000103876
0.00143115
0.000118525
0.00132362
0.000131877
0.00120225
0.000143779
0.0010682
0.000154096
0.000922803
0.000162712
0.000767552
0.000169528
0.000604077
0.000174467
0.000434094
0.000177478
0.000259207
8.03581e-05
0.000178535
1.76564e-05
0.00175108
1.34344e-07
3.56571e-05
0.00169904
5.3448e-05
0.00164709
7.07393e-05
0.00158446
8.73027e-05
0.00150738
0.000102935
0.00141552
0.000117452
0.0013091
0.000130684
0.00118902
0.000142481
0.0010564
0.000152706
0.000912578
0.000161244
0.000759015
0.000167999
0.000597326
0.000172893
0.000429204
0.000175876
0.000256232
7.93288e-05
0.000176921
1.74941e-05
0.00173345
1.3527e-07
3.53316e-05
0.0016812
5.29613e-05
0.00162946
7.00964e-05
0.00156733
8.65107e-05
0.00149096
0.000102002
0.00140002
0.000116389
0.00129471
0.000129504
0.0011759
0.000141195
0.00104471
0.000151328
0.000902442
0.00015979
0.00075055
0.000166484
0.000590628
0.000171334
0.000424347
0.000174289
0.00025327
7.82803e-05
0.00017532
1.73333e-05
0.00171598
1.36011e-07
3.50093e-05
0.00166352
5.24795e-05
0.00161199
6.94599e-05
0.00155035
8.57263e-05
0.00147469
0.000101079
0.00138467
0.000115337
0.00128045
0.000128334
0.0011629
0.00013992
0.00103312
0.000149963
0.000892399
0.000158349
0.000742166
0.000164982
0.000583997
0.000169788
0.000419546
0.000172715
0.000250351
7.72763e-05
0.000173734
1.71741e-05
0.00169867
1.36626e-07
3.46901e-05
0.001646
5.20024e-05
0.00159468
6.88295e-05
0.00153352
8.49496e-05
0.00145857
0.000100164
0.00136945
0.000114294
0.00126632
0.000127175
0.00115002
0.000138658
0.00102164
0.00014861
0.000882443
0.000156921
0.000733852
0.000163494
0.000577419
0.000168256
0.000414777
0.000171156
0.000247445
7.62537e-05
0.000172161
1.70165e-05
0.00168152
1.37162e-07
3.4374e-05
0.00162864
5.15299e-05
0.00157752
6.82053e-05
0.00151684
8.41803e-05
0.00144259
9.92583e-05
0.00135437
0.000113262
0.00125232
0.000126027
0.00113726
0.000137406
0.00101026
0.000147269
0.00087258
0.000155505
0.000725619
0.000162019
0.000570909
0.000166737
0.000410063
0.000169609
0.000244581
7.52751e-05
0.000170602
1.68603e-05
0.00166452
1.37644e-07
3.4061e-05
0.00161144
5.1062e-05
0.00156052
6.75871e-05
0.00150032
8.34184e-05
0.00142676
9.83609e-05
0.00133943
0.000112239
0.00123844
0.000124889
0.0011246
0.000136166
0.000998978
0.000145941
0.000862802
0.000154102
0.000717454
0.000160557
0.000564449
0.000165232
0.000405382
0.000168076
0.000241729
7.42782e-05
0.000169057
1.67057e-05
0.00164767
1.38094e-07
3.3751e-05
0.00159439
5.05986e-05
0.00154367
6.69748e-05
0.00148394
8.26636e-05
0.00141107
9.74719e-05
0.00132462
0.000111225
0.00122468
0.000123762
0.00111207
0.000134938
0.000987803
0.000144624
0.000853116
0.000152711
0.000709369
0.000159107
0.000558057
0.000163739
0.000400754
0.000166556
0.00023892
7.33245e-05
0.000167524
1.65526e-05
0.00163098
1.38518e-07
3.3444e-05
0.0015775
5.01396e-05
0.00152698
6.63682e-05
0.00146771
8.19158e-05
0.00139552
9.65909e-05
0.00130994
0.000110221
0.00121105
0.000122645
0.00109964
0.00013372
0.000976725
0.000143318
0.000843514
0.000151333
0.000701351
0.00015767
0.000551714
0.000162259
0.000396159
0.00016505
0.000236123
7.23528e-05
0.000166006
1.64008e-05
0.00161444
1.38926e-07
3.31398e-05
0.00156076
4.96849e-05
0.00151043
6.57673e-05
0.00145163
8.11749e-05
0.00138011
9.5718e-05
0.0012954
0.000109225
0.00119755
0.000121537
0.00108733
0.000132512
0.00096575
0.000142024
0.000834002
0.000149966
0.000693412
0.000156246
0.000545438
0.000160793
0.000391616
0.000163556
0.000233368
7.14233e-05
0.0001645
1.62506e-05
0.00159805
1.39317e-07
3.28385e-05
0.00154417
4.92344e-05
0.00149403
6.51719e-05
0.00143569
8.04408e-05
0.00136484
9.4853e-05
0.00128098
0.000108238
0.00118416
0.00012044
0.00107512
0.000131316
0.000954871
0.000140742
0.000824573
0.000148611
0.000685539
0.000154833
0.000539211
0.000159338
0.000387105
0.000162075
0.000230624
7.04758e-05
0.000163007
1.61017e-05
0.00158181
1.39699e-07
3.254e-05
0.00152773
4.87881e-05
0.00147779
6.45819e-05
0.0014199
7.97133e-05
0.00134971
9.39956e-05
0.0012667
0.00010726
0.0011709
0.000119352
0.00106303
0.000130129
0.000944093
0.00013947
0.000815232
0.000147268
0.000677743
0.000153433
0.000533048
0.000157897
0.000382646
0.000160607
0.000227922
6.95696e-05
0.000161528
1.59542e-05
0.00156571
1.40067e-07
3.22442e-05
0.00151144
4.83458e-05
0.00146168
6.39972e-05
0.00140424
7.89922e-05
0.00133471
9.31458e-05
0.00125254
0.000106291
0.00115775
0.000118273
0.00105105
0.000128953
0.00093341
0.000138209
0.000805973
0.000145936
0.000670013
0.000152046
0.000526934
0.000156467
0.000378218
0.000159152
0.000225231
6.86454e-05
0.000160061
1.5808e-05
0.00154976
1.40431e-07
3.19511e-05
0.0014953
4.79074e-05
0.00144573
6.34178e-05
0.00138873
7.82775e-05
0.00131985
9.23034e-05
0.00123852
0.00010533
0.00114472
0.000117204
0.00103917
0.000127788
0.000922826
0.000136959
0.000796801
0.000144616
0.000662358
0.00015067
0.000520884
0.000155051
0.000373842
0.000157709
0.00022258
6.77614e-05
0.000158607
1.56631e-05
0.00153396
1.40785e-07
3.16606e-05
0.0014793
4.7473e-05
0.00142991
6.28434e-05
0.00137336
7.75691e-05
0.00130512
9.14684e-05
0.00122462
0.000104377
0.00113181
0.000116144
0.00102741
0.000126632
0.000912336
0.00013572
0.000787709
0.000143308
0.000654767
0.000149305
0.000514882
0.000153646
0.000369495
0.000156279
0.00021994
6.68593e-05
0.000157167
1.55196e-05
0.0015183
1.41139e-07
3.13728e-05
0.00146344
4.70424e-05
0.00141424
6.22741e-05
0.00135813
7.68668e-05
0.00129053
9.06406e-05
0.00121084
0.000103433
0.00111902
0.000115093
0.00101575
0.000125486
0.000901943
0.000134492
0.000778702
0.00014201
0.000647251
0.000147953
0.000508942
0.000152254
0.000365199
0.000154862
0.00021734
6.59964e-05
0.000155739
1.53773e-05
0.00150278
1.41489e-07
3.10874e-05
0.00144773
4.66156e-05
0.00139871
6.17098e-05
0.00134303
7.61707e-05
0.00127607
8.98199e-05
0.00119719
0.000102496
0.00110634
0.000114051
0.00100419
0.00012435
0.000891641
0.000133274
0.000769775
0.000140724
0.000639798
0.000146612
0.000503048
0.000150873
0.000360932
0.000153457
0.000214751
6.51152e-05
0.000154323
1.52363e-05
0.0014874
1.41842e-07
3.08045e-05
0.00143216
4.61926e-05
0.00138333
6.11503e-05
0.00132807
7.54805e-05
0.00126174
8.90063e-05
0.00118366
0.000101568
0.00109378
0.000113018
0.000992739
0.000123223
0.000881436
0.000132067
0.000760931
0.000139449
0.000632418
0.000145284
0.000497217
0.000149505
0.000356716
0.000152064
0.0002122
6.42722e-05
0.000152921
1.50965e-05
0.00147216
1.42193e-07
3.05242e-05
0.00141673
4.57731e-05
0.00136808
6.05957e-05
0.00131325
7.47962e-05
0.00124753
8.81997e-05
0.00117026
0.000100648
0.00108133
0.000111994
0.000981391
0.000122107
0.00087132
0.00013087
0.000752165
0.000138185
0.000625101
0.000143966
0.00049143
0.000148149
0.000352527
0.000150683
0.000209659
6.34108e-05
0.000151531
1.4958e-05
0.00145706
1.42552e-07
3.02462e-05
0.00140144
4.53573e-05
0.00135296
6.00458e-05
0.00129856
7.41179e-05
0.00123346
8.74e-05
0.00115697
9.97353e-05
0.00106899
0.000110979
0.000970148
0.000121
0.000861299
0.000129683
0.000743481
0.000136932
0.000617854
0.00014266
0.000485705
0.000146804
0.000348387
0.000149315
0.000207156
6.25864e-05
0.000150154
1.48207e-05
0.00144209
1.42911e-07
2.99706e-05
0.00138629
4.49451e-05
0.00133799
5.95006e-05
0.00128401
7.34453e-05
0.00121951
8.66071e-05
0.00114381
9.88307e-05
0.00105677
0.000109972
0.000959004
0.000119902
0.000851366
0.000128507
0.000734873
0.000135689
0.000610669
0.000141366
0.000480024
0.000145472
0.000344275
0.000147959
0.000204663
6.17436e-05
0.000148789
1.46845e-05
0.00142726
1.43279e-07
2.96975e-05
0.00137128
4.45364e-05
0.00132315
5.89601e-05
0.00126958
7.27785e-05
0.00120569
8.5821e-05
0.00113076
9.79339e-05
0.00104466
0.000108974
0.000947963
0.000118815
0.000841526
0.000127341
0.000726346
0.000134458
0.000603554
0.000140083
0.000474402
0.000144152
0.000340212
0.000146616
0.000202207
6.09368e-05
0.000147436
1.45495e-05
0.00141257
1.4365e-07
2.94266e-05
0.0013564
4.41311e-05
0.00130844
5.84243e-05
0.00125529
7.21174e-05
0.001192
8.50417e-05
0.00111784
9.70448e-05
0.00103265
0.000107985
0.000937021
0.000117736
0.000831772
0.000126186
0.000717893
0.000133238
0.000596498
0.000138812
0.000468823
0.000142843
0.000336174
0.000145284
0.00019976
6.01115e-05
0.000146096
1.44157e-05
0.00139801
1.44029e-07
2.91581e-05
0.00134166
4.37294e-05
0.00129387
5.7893e-05
0.00124112
7.1462e-05
0.00117843
8.42692e-05
0.00110503
9.61634e-05
0.00102076
0.000107005
0.000926179
0.000116667
0.000822109
0.00012504
0.00070952
0.000132029
0.000589511
0.000137552
0.000463304
0.000141546
0.000332185
0.000143964
0.000197349
5.93213e-05
0.000144769
1.42831e-05
0.00138358
1.44411e-07
2.88919e-05
0.00132705
4.33311e-05
0.00127943
5.73663e-05
0.00122709
7.08122e-05
0.00116498
8.35033e-05
0.00109234
9.52897e-05
0.00100897
0.000106033
0.000915434
0.000115608
0.000812531
0.000123905
0.00070122
0.00013083
0.000582583
0.000136303