/*--------------------------------*- C++ -*----------------------------------*\
  =========                 |
  \\      /  F ield         | OpenFOAM: The Open Source CFD Toolbox
   \\    /   O peration     | Website:  https://openfoam.org
    \\  /    A nd           | Version:  6.0
     \\/     M anipulation  |
\*---------------------------------------------------------------------------*/
FoamFile
{
    version     2.0;
    format      ascii;
    class       volScalarField;
    location    "450";
    object      nut;
}
// * * * * * * * * * * * * * * * * * * * * * * * * * * * * * * * * * * * * * //

dimensions      [0 2 -1 0 0 0 0];

internalField   nonuniform List<scalar> 
9800
(
0.140005
0.140007
0.139996
0.139987
0.139975
0.139964
0.139975
0.139995
0.140001
0.140006
0.14001
0.140014
0.140017
0.140021
0.140024
0.140029
0.140034
0.140039
0.140038
0.140039
0.140039
0.140036
0.140018
0.140017
0.140035
0.140039
0.140039
0.140038
0.140039
0.140035
0.14003
0.140025
0.140021
0.140018
0.140014
0.140011
0.140007
0.140002
0.139996
0.139982
0.139967
0.139975
0.139986
0.139995
0.140002
0.140009
0.140016
0.140024
0.140033
0.140044
0.140057
0.140072
0.140091
0.140113
0.140141
0.140175
0.140218
0.140272
0.140343
0.140436
0.140563
0.140739
0.141019
0.141394
0.142365
0.143567
0.144844
0.146278
0.146891
0.147517
0.147891
0.148154
0.148294
0.148343
0.14834
0.148336
0.148371
0.14847
0.148636
0.14885
0.149082
0.149296
0.149456
0.14954
0.149538
0.149451
0.149288
0.149064
0.148787
0.148515
0.148332
0.148248
0.148254
0.148339
0.148488
0.148691
0.148944
0.149643
0.163021
0.256757
0.140198
0.140167
0.140125
0.140095
0.140073
0.140063
0.140069
0.140075
0.140073
0.14007
0.140069
0.140069
0.140069
0.140069
0.140068
0.140061
0.140045
0.140024
0.140054
0.140071
0.140083
0.14008
0.140048
0.140046
0.140081
0.140085
0.140074
0.140058
0.140025
0.140042
0.140058
0.140066
0.140067
0.140066
0.140066
0.140067
0.140069
0.14007
0.140072
0.140068
0.14006
0.140064
0.140078
0.140098
0.140121
0.140145
0.14017
0.140197
0.140227
0.14026
0.140297
0.140339
0.140387
0.140442
0.140505
0.140579
0.140665
0.140767
0.140888
0.141033
0.141209
0.141424
0.141699
0.142026
0.142512
0.143044
0.143439
0.143744
0.143934
0.144109
0.144267
0.144407
0.144521
0.144609
0.144679
0.144739
0.144798
0.144861
0.14493
0.145002
0.145074
0.145137
0.145196
0.145289
0.145419
0.145582
0.145772
0.145983
0.146205
0.146429
0.146648
0.146854
0.147042
0.147207
0.147347
0.147462
0.147553
0.147624
0.147829
0.150927
0.140259
0.140216
0.140175
0.140148
0.140132
0.140125
0.140123
0.140119
0.140113
0.140108
0.140102
0.140093
0.140078
0.140054
0.140023
0.140016
0.140027
0.140039
0.140077
0.140107
0.140125
0.14012
0.140078
0.140076
0.14012
0.140128
0.14011
0.140082
0.14004
0.140022
0.140012
0.140025
0.140058
0.140079
0.140092
0.1401
0.140105
0.140109
0.140113
0.140115
0.140115
0.140117
0.140124
0.140138
0.140157
0.14018
0.140206
0.140235
0.140265
0.140297
0.140332
0.14037
0.140411
0.140456
0.140505
0.140559
0.140619
0.140684
0.140755
0.140832
0.140915
0.140996
0.14111
0.14125
0.141415
0.141604
0.141807
0.142033
0.142274
0.142529
0.142787
0.143043
0.143292
0.143536
0.143773
0.144005
0.144234
0.144461
0.144683
0.144897
0.145101
0.145293
0.145469
0.145627
0.145765
0.145881
0.145973
0.146042
0.146087
0.146109
0.146111
0.146094
0.146062
0.146019
0.145968
0.145913
0.145857
0.145804
0.145758
0.145741
0.140263
0.140224
0.14019
0.140167
0.14015
0.140137
0.140122
0.140103
0.140082
0.140057
0.140042
0.140031
0.140021
0.140016
0.140014
0.140022
0.140045
0.140078
0.140119
0.140153
0.140171
0.140157
0.140109
0.140103
0.140153
0.140169
0.140154
0.14012
0.140076
0.140038
0.140013
0.139999
0.14
0.140013
0.140027
0.14004
0.140067
0.140091
0.140108
0.14012
0.140129
0.140135
0.140142
0.140152
0.140165
0.140182
0.140204
0.140228
0.140255
0.140285
0.140317
0.140351
0.140387
0.140425
0.140466
0.140509
0.140555
0.140604
0.140655
0.140708
0.140763
0.140817
0.140872
0.14093
0.140989
0.141049
0.141115
0.141192
0.141278
0.141372
0.141471
0.141571
0.141671
0.141768
0.141857
0.141937
0.142006
0.142063
0.142113
0.142156
0.142195
0.14223
0.142264
0.142298
0.142335
0.142375
0.142419
0.142467
0.142518
0.142572
0.142629
0.142687
0.142747
0.142807
0.142869
0.142931
0.142993
0.143057
0.143117
0.14321
0.140268
0.140235
0.140204
0.14018
0.140158
0.140136
0.140112
0.140087
0.14006
0.140031
0.140002
0.13997
0.139947
0.139954
0.139981
0.14003
0.140072
0.140118
0.140163
0.140198
0.140211
0.140188
0.140136
0.140126
0.140179
0.140204
0.140193
0.140158
0.140111
0.14006
0.139999
0.13995
0.139932
0.139947
0.139981
0.14001
0.14004
0.14007
0.140095
0.140117
0.140135
0.14015
0.140163
0.140175
0.140188
0.140203
0.14022
0.14024
0.140263
0.140289
0.140317
0.140347
0.14038
0.140414
0.14045
0.140488
0.140527
0.140568
0.14061
0.140653
0.140696
0.140739
0.140781
0.140822
0.14086
0.140896
0.140931
0.140966
0.141002
0.141042
0.141087
0.141137
0.141191
0.141247
0.141303
0.141358
0.14141
0.14146
0.141507
0.141554
0.141601
0.141651
0.141702
0.141754
0.141808
0.141863
0.14192
0.141977
0.142034
0.142092
0.14215
0.142208
0.142266
0.142323
0.142382
0.14244
0.1425
0.14256
0.142617
0.142691
0.14025
0.140223
0.140195
0.14017
0.140144
0.140117
0.140087
0.140053
0.140011
0.139961
0.139905
0.139874
0.139869
0.139898
0.139963
0.140047
0.140106
0.14016
0.140207
0.140238
0.140242
0.140211
0.140156
0.140143
0.140197
0.14023
0.140227
0.140196
0.140147
0.140086
0.140007
0.139917
0.139867
0.13986
0.139888
0.139939
0.139988
0.140031
0.140067
0.140097
0.140123
0.140144
0.140162
0.140179
0.140194
0.140209
0.140224
0.140241
0.140259
0.14028
0.140302
0.140327
0.140353
0.140381
0.140411
0.140442
0.140475
0.140509
0.140543
0.140579
0.140615
0.140652
0.140689
0.140726
0.140763
0.140799
0.140835
0.14087
0.140905
0.14094
0.140977
0.141016
0.141058
0.141102
0.141148
0.141197
0.141246
0.141296
0.141346
0.141397
0.141448
0.1415
0.141553
0.141606
0.14166
0.141715
0.14177
0.141826
0.141881
0.141935
0.141989
0.142043
0.142096
0.142149
0.142201
0.142253
0.142305
0.142357
0.142406
0.142463
0.140196
0.140168
0.140131
0.14009
0.140044
0.139993
0.139939
0.139895
0.139852
0.139813
0.139789
0.139797
0.139845
0.139925
0.140008
0.14009
0.140155
0.140211
0.140253
0.140275
0.140268
0.140227
0.140167
0.140148
0.140209
0.140251
0.140259
0.140237
0.140192
0.140131
0.140053
0.139959
0.139863
0.139799
0.13978
0.139796
0.139831
0.139872
0.139917
0.139972
0.140024
0.140068
0.140105
0.140135
0.140161
0.140182
0.1402
0.140218
0.140235
0.140252
0.140271
0.140291
0.140313
0.140336
0.140361
0.140387
0.140415
0.140444
0.140474
0.140505
0.140537
0.140569
0.140603
0.140637
0.140672
0.140708
0.140744
0.140781
0.140818
0.140855
0.140893
0.140931
0.14097
0.14101
0.141051
0.141094
0.141138
0.141182
0.141227
0.141273
0.141319
0.141364
0.14141
0.141456
0.141502
0.141547
0.141592
0.141637
0.141682
0.141726
0.141769
0.141812
0.141855
0.141897
0.141939
0.141981
0.142023
0.142065
0.142104
0.142142
0.140013
0.139984
0.139923
0.139867
0.13982
0.139776
0.139738
0.139712
0.1397
0.139708
0.139748
0.139824
0.139909
0.139998
0.140081
0.140154
0.140216
0.140265
0.140298
0.140306
0.140284
0.14023
0.140155
0.140113
0.140201
0.140261
0.140285
0.140276
0.140241
0.140187
0.140118
0.140032
0.139933
0.139833
0.139743
0.139694
0.139679
0.139688
0.139714
0.139753
0.139799
0.139847
0.139904
0.139963
0.140017
0.140066
0.140108
0.140144
0.140174
0.140199
0.140222
0.140243
0.140263
0.140284
0.140306
0.140328
0.140352
0.140377
0.140402
0.140429
0.140457
0.140486
0.140516
0.140546
0.140577
0.14061
0.140643
0.140677
0.140711
0.140746
0.140782
0.140818
0.140855
0.140892
0.140929
0.140967
0.141006
0.141044
0.141083
0.141122
0.141161
0.141199
0.141237
0.141275
0.141312
0.141349
0.141385
0.141421
0.141456
0.14149
0.141525
0.141559
0.141592
0.141626
0.141659
0.141693
0.141727
0.141761
0.141793
0.14182
0.139726
0.139687
0.139644
0.139609
0.139584
0.139572
0.139576
0.139599
0.139647
0.139724
0.139827
0.139919
0.140008
0.140089
0.140163
0.140226
0.140279
0.140316
0.140333
0.140323
0.140281
0.140203
0.140091
0.140061
0.140173
0.140254
0.140297
0.140306
0.140287
0.140246
0.140188
0.140114
0.140026
0.139927
0.139816
0.139703
0.139619
0.139568
0.139546
0.139546
0.139562
0.13959
0.139628
0.139674
0.139724
0.139777
0.139829
0.139885
0.139945
0.140004
0.140058
0.140106
0.140148
0.140184
0.140215
0.140244
0.14027
0.140295
0.14032
0.140345
0.14037
0.140396
0.140422
0.140449
0.140477
0.140505
0.140534
0.140563
0.140593
0.140624
0.140655
0.140686
0.140718
0.14075
0.140782
0.140814
0.140846
0.140878
0.14091
0.140942
0.140973
0.141004
0.141034
0.141064
0.141093
0.141122
0.14115
0.141178
0.141205
0.141232
0.141259
0.141285
0.141312
0.141339
0.141366
0.141393
0.14142
0.141448
0.141475
0.141493
0.139452
0.139424
0.139418
0.139427
0.139456
0.139507
0.139581
0.139669
0.139763
0.139861
0.139958
0.140043
0.14012
0.14019
0.140252
0.140302
0.140339
0.140358
0.140354
0.140321
0.140253
0.140145
0.140007
0.139994
0.140121
0.140225
0.140291
0.140321
0.140322
0.140298
0.140256
0.140196
0.140123
0.140037
0.139938
0.139826
0.13971
0.139596
0.139499
0.139432
0.139394
0.139378
0.13938
0.139395
0.139419
0.139453
0.139493
0.139538
0.13959
0.139645
0.139702
0.139757
0.13981
0.139866
0.139929
0.139993
0.140053
0.140108
0.140156
0.140199
0.140237
0.140271
0.140302
0.140332
0.14036
0.140388
0.140415
0.140441
0.140468
0.140494
0.14052
0.140546
0.140572
0.140598
0.140623
0.140648
0.140673
0.140697
0.14072
0.140744
0.140766
0.140788
0.14081
0.140831
0.140852
0.140872
0.140892
0.140912
0.140932
0.140951
0.140971
0.140991
0.141011
0.141031
0.141052
0.141073
0.141095
0.141118
0.141139
0.141152
0.139255
0.139254
0.139312
0.139397
0.1395
0.139609
0.139715
0.139818
0.139914
0.140005
0.140089
0.140163
0.140229
0.140286
0.140333
0.140367
0.140384
0.14038
0.14035
0.140289
0.140193
0.140061
0.139921
0.139916
0.140048
0.140174
0.140264
0.140318
0.140341
0.140338
0.140314
0.140271
0.140214
0.140143
0.14006
0.139965
0.139858
0.13974
0.139616
0.139492
0.139376
0.139285
0.139224
0.139187
0.139169
0.139166
0.139175
0.139194
0.13922
0.139253
0.139292
0.139335
0.139381
0.139431
0.139484
0.139541
0.139597
0.139651
0.139703
0.139761
0.139825
0.139891
0.139953
0.14001
0.140062
0.140107
0.140148
0.140185
0.140218
0.140248
0.140276
0.140302
0.140325
0.140348
0.140369
0.140388
0.140407
0.140425
0.140442
0.140459
0.140475
0.140491
0.140506
0.140522
0.140537
0.140552
0.140567
0.140582
0.140598
0.140614
0.140631
0.140648
0.140666
0.140684
0.140703
0.140723
0.140743
0.140763
0.140782
0.140791
0.13929
0.139352
0.139452
0.139565
0.139679
0.139789
0.139891
0.139985
0.140071
0.14015
0.140222
0.140284
0.140336
0.140378
0.140407
0.140419
0.140413
0.140383
0.140325
0.140235
0.140111
0.139955
0.139812
0.139793
0.139888
0.140053
0.14018
0.140265
0.140315
0.140337
0.140335
0.140312
0.140271
0.140216
0.140148
0.140066
0.139972
0.139864
0.139742
0.139607
0.139459
0.139306
0.139165
0.139054
0.138975
0.13892
0.138884
0.138862
0.138853
0.138853
0.138861
0.138876
0.138897
0.138924
0.138955
0.13899
0.139027
0.139064
0.139103
0.139144
0.139186
0.139229
0.139271
0.139313
0.139356
0.139405
0.139458
0.139511
0.139561
0.139607
0.139648
0.139685
0.139718
0.139747
0.139774
0.139797
0.139818
0.139837
0.139855
0.139871
0.139888
0.139903
0.139919
0.139935
0.139952
0.139969
0.139987
0.140005
0.140024
0.140044
0.140064
0.140084
0.140105
0.140125
0.140145
0.140164
0.140182
0.140198
0.140211
0.140205
0.139285
0.139369
0.1395
0.139638
0.139764
0.139876
0.139976
0.140065
0.140144
0.140215
0.140278
0.140328
0.140365
0.140389
0.140397
0.140386
0.140351
0.140289
0.140194
0.140062
0.139892
0.139715
0.139615
0.139611
0.139706
0.139898
0.140064
0.140184
0.140264
0.140312
0.140333
0.14033
0.140308
0.14027
0.140217
0.140151
0.140072
0.139979
0.139872
0.139749
0.139609
0.139451
0.139282
0.139112
0.13895
0.13881
0.1387
0.138617
0.138553
0.138505
0.138469
0.138444
0.138427
0.138417
0.138413
0.138413
0.138417
0.138424
0.138434
0.138445
0.138457
0.13847
0.138483
0.138497
0.138511
0.138525
0.13854
0.138555
0.13857
0.138584
0.138595
0.138606
0.138615
0.138625
0.138637
0.138652
0.13867
0.138691
0.138714
0.138738
0.138763
0.138789
0.138816
0.138844
0.138873
0.138902
0.138933
0.138964
0.138996
0.139029
0.139061
0.139092
0.139123
0.139152
0.139179
0.139204
0.139227
0.139246
0.139259
0.139245
0.139577
0.13968
0.139795
0.139909
0.140013
0.140106
0.140188
0.14026
0.140322
0.140375
0.140417
0.140445
0.140458
0.140456
0.140435
0.140393
0.140325
0.140227
0.140096
0.13993
0.139734
0.139526
0.139377
0.139324
0.13936
0.139465
0.139609
0.139781
0.139926
0.140033
0.140103
0.140138
0.140144
0.140127
0.140089
0.140032
0.139956
0.13986
0.139742
0.139603
0.139438
0.13926
0.13908
0.138904
0.138737
0.138584
0.138446
0.138326
0.138223
0.138134
0.13806
0.137996
0.137942
0.137895
0.137855
0.137821
0.137792
0.137768
0.137747
0.137728
0.137712
0.137697
0.137683
0.137671
0.137659
0.137648
0.137636
0.137624
0.137612
0.137599
0.137585
0.137571
0.137557
0.137543
0.137528
0.137514
0.1375
0.137486
0.137473
0.137461
0.13745
0.137441
0.137435
0.137434
0.13744
0.137452
0.137469
0.137491
0.137515
0.137541
0.137567
0.137593
0.137615
0.137635
0.137652
0.137665
0.137674
0.137677
0.137671
0.137612
0.139256
0.139267
0.139329
0.139401
0.13947
0.139532
0.139586
0.139633
0.139673
0.139707
0.139737
0.139752
0.139746
0.139713
0.139655
0.139575
0.139479
0.139372
0.139253
0.139124
0.138996
0.138887
0.138823
0.138827
0.138905
0.13907
0.139271
0.139467
0.139641
0.139785
0.139897
0.139974
0.140021
0.140041
0.140036
0.14001
0.139962
0.139894
0.139806
0.1397
0.139577
0.13944
0.139294
0.139142
0.138986
0.138826
0.138664
0.138502
0.138344
0.138195
0.138059
0.137937
0.137827
0.137728
0.137638
0.137556
0.137479
0.137408
0.137342
0.137279
0.137219
0.137161
0.137106
0.137052
0.137
0.13695
0.1369
0.136852
0.136804
0.136758
0.136711
0.136666
0.136621
0.136576
0.136532
0.136488
0.136447
0.136405
0.136365
0.136325
0.136286
0.136246
0.136207
0.136168
0.136129
0.136091
0.136053
0.136015
0.135978
0.135945
0.135921
0.135909
0.135902
0.1359
0.135901
0.135901
0.1359
0.135897
0.135885
0.135815
0.139499
0.139497
0.13951
0.139529
0.139548
0.139562
0.139571
0.139574
0.139569
0.139556
0.139534
0.1395
0.13945
0.139383
0.1393
0.139204
0.139096
0.138979
0.138854
0.138724
0.13859
0.138456
0.138324
0.1382
0.13812
0.138124
0.13818
0.138264
0.13836
0.138456
0.138547
0.138625
0.138687
0.138732
0.138759
0.138771
0.138766
0.138746
0.138711
0.138662
0.138601
0.138529
0.138447
0.138356
0.138257
0.138151
0.138039
0.137923
0.137803
0.13768
0.137559
0.137438
0.137319
0.137202
0.137087
0.136974
0.136863
0.136755
0.13665
0.136547
0.136446
0.136348
0.136253
0.136161
0.136072
0.135986
0.135904
0.135824
0.135748
0.135675
0.135604
0.135536
0.13547
0.135407
0.135344
0.135283
0.135224
0.135165
0.135107
0.135049
0.134992
0.134934
0.134876
0.134817
0.134756
0.134694
0.134631
0.134566
0.134499
0.134431
0.134362
0.134292
0.134221
0.134147
0.13407
0.133991
0.13391
0.133826
0.133739
0.133654
0.138314
0.138391
0.138464
0.138485
0.13847
0.138441
0.138408
0.138373
0.138333
0.138275
0.138193
0.13812
0.138049
0.137979
0.137911
0.137847
0.137793
0.137749
0.137718
0.137699
0.137691
0.137691
0.137698
0.137713
0.13774
0.137783
0.137838
0.137905
0.137979
0.138056
0.138132
0.138204
0.138269
0.138327
0.138375
0.138415
0.138443
0.138461
0.138468
0.138464
0.138451
0.138427
0.138394
0.138353
0.138302
0.138243
0.138176
0.138103
0.138022
0.137934
0.137839
0.137739
0.137632
0.137521
0.137404
0.137283
0.137157
0.137026
0.136892
0.136754
0.136617
0.136477
0.136335
0.136187
0.136031
0.135869
0.135701
0.135532
0.135366
0.135207
0.135054
0.134909
0.134771
0.134639
0.134511
0.134387
0.134266
0.134148
0.134032
0.133917
0.133804
0.133691
0.133579
0.133466
0.133353
0.13324
0.133127
0.133012
0.132899
0.132786
0.132673
0.132561
0.132448
0.132336
0.132221
0.132104
0.131986
0.131868
0.131749
0.131636
0.138269
0.138251
0.138222
0.138184
0.13814
0.138094
0.138048
0.138003
0.137958
0.137914
0.13787
0.137829
0.137789
0.13775
0.137712
0.137676
0.137643
0.137614
0.137589
0.137567
0.137549
0.137532
0.137517
0.137503
0.137488
0.13747
0.137451
0.13743
0.137407
0.137381
0.137353
0.13733
0.137314
0.137302
0.137291
0.137281
0.137268
0.137249
0.137228
0.137204
0.137176
0.137143
0.137104
0.137059
0.137009
0.136955
0.136896
0.136834
0.136767
0.136695
0.136617
0.136536
0.136449
0.136359
0.136266
0.136169
0.136068
0.135965
0.135859
0.13575
0.135637
0.135523
0.135408
0.135296
0.135185
0.135069
0.134954
0.134838
0.134724
0.134612
0.1345
0.13439
0.134284
0.134178
0.134074
0.133971
0.133869
0.133771
0.133673
0.133576
0.133481
0.133386
0.13329
0.133193
0.133095
0.132997
0.132897
0.132798
0.132697
0.132595
0.132493
0.132389
0.132285
0.132178
0.132069
0.131952
0.131821
0.131671
0.131498
0.131325
0.140106
0.140394
0.140622
0.140791
0.14091
0.140989
0.141037
0.141058
0.141053
0.141023
0.141001
0.14097
0.140936
0.140899
0.140861
0.140824
0.140787
0.14075
0.140715
0.140681
0.140647
0.140613
0.140578
0.140543
0.140507
0.14047
0.14043
0.140389
0.140344
0.140292
0.140236
0.140207
0.140166
0.140125
0.140082
0.140038
0.139992
0.139945
0.139896
0.139844
0.139789
0.139732
0.139673
0.139611
0.139548
0.13948
0.139409
0.139334
0.139257
0.139176
0.139089
0.138998
0.138902
0.138801
0.138697
0.138588
0.138476
0.138362
0.138247
0.138131
0.138011
0.137891
0.137784
0.137661
0.137532
0.137396
0.137253
0.137105
0.136947
0.13678
0.136604
0.136415
0.13621
0.135991
0.13576
0.135509
0.135248
0.134971
0.134683
0.13439
0.134097
0.133807
0.133519
0.133232
0.132947
0.132663
0.13238
0.132098
0.131816
0.131533
0.131249
0.130964
0.130677
0.130386
0.130092
0.129797
0.129502
0.129214
0.128949
0.128744
0.126875
0.125801
0.125326
0.125164
0.125155
0.125194
0.125131
0.124901
0.124516
0.124059
0.124271
0.123634
0.122934
0.122289
0.121686
0.121115
0.120567
0.120038
0.119523
0.119021
0.118534
0.118061
0.117605
0.11717
0.116756
0.116365
0.115995
0.115645
0.115313
0.115003
0.114828
0.115284
0.114984
0.114682
0.114373
0.114056
0.113731
0.113398
0.113059
0.112714
0.112364
0.112009
0.111652
0.111291
0.110927
0.11056
0.11019
0.109818
0.109444
0.109067
0.108688
0.108307
0.107924
0.107539
0.107154
0.10677
0.106389
0.106009
0.105631
0.105255
0.104881
0.104694
0.104878
0.104617
0.104334
0.10404
0.103734
0.103417
0.103091
0.102756
0.102413
0.102061
0.101701
0.101334
0.10096
0.100579
0.100192
0.0997994
0.0994014
0.0989987
0.0985919
0.0981812
0.0977671
0.0973497
0.0969293
0.096506
0.0960798
0.0956509
0.09522
0.0947879
0.0943563
0.0939271
0.0935037
0.0930911
0.0926973
0.0923349
0.0920237
0.0917954
0.0917005
0.0918252
0.375499
0.391155
0.405895
0.419776
0.432894
0.445328
0.457145
0.468401
0.479145
0.48942
0.499262
0.508703
0.517773
0.526498
0.5349
0.542999
0.550831
0.558373
0.56566
0.572715
0.57955
0.586177
0.592608
0.598851
0.604918
0.610818
0.616558
0.622148
0.627594
0.632905
0.638088
0.64315
0.648024
0.6527
0.657433
0.662076
0.666631
0.671104
0.675501
0.679829
0.684092
0.688298
0.692451
0.696559
0.700626
0.704659
0.708664
0.712452
0.716139
0.720125
0.724111
0.728099
0.732096
0.736107
0.740138
0.744195
0.748284
0.752409
0.756575
0.760374
0.764263
0.76871
0.773217
0.777781
0.782405
0.787092
0.791843
0.79552
0.801112
0.806012
0.153775
0.154418
0.155156
0.155968
0.156844
0.157778
0.158767
0.159805
0.160893
0.162027
0.163208
0.164433
0.165701
0.167011
0.168363
0.169755
0.171193
0.172663
0.174171
0.175718
0.177303
0.178927
0.180588
0.182286
0.184019
0.185788
0.187591
0.189429
0.191301
0.193207
0.195147
0.197121
0.199096
0.201068
0.203147
0.20526
0.207403
0.209575
0.211776
0.214003
0.216258
0.218539
0.220848
0.223184
0.225549
0.227943
0.23037
0.232732
0.235103
0.237693
0.24033
0.243011
0.245741
0.248526
0.251373
0.254292
0.257293
0.260392
0.263603
0.266704
0.270032
0.27388
0.277925
0.282185
0.286691
0.291473
0.296568
0.301317
0.307839
0.31418
0.145703
0.145708
0.145723
0.145742
0.145761
0.145778
0.145792
0.145803
0.14581
0.145816
0.145821
0.145826
0.145832
0.145839
0.145848
0.145859
0.145873
0.145889
0.145907
0.145927
0.145949
0.145974
0.146
0.146028
0.146057
0.146088
0.146119
0.14615
0.14618
0.146209
0.146235
0.146259
0.146277
0.146288
0.146306
0.146324
0.146343
0.146363
0.146383
0.146404
0.146428
0.146453
0.14648
0.14651
0.146542
0.146578
0.146617
0.146643
0.146665
0.146722
0.146786
0.146857
0.146936
0.147024
0.14712
0.147226
0.147344
0.147474
0.147619
0.147729
0.147869
0.148106
0.14838
0.148695
0.149059
0.149486
0.149991
0.150414
0.151314
0.152243
0.143075
0.143035
0.142994
0.142956
0.142922
0.142891
0.142863
0.142836
0.142808
0.142779
0.14275
0.142721
0.142691
0.142661
0.142631
0.142603
0.142575
0.142548
0.142521
0.142496
0.142471
0.142447
0.142423
0.1424
0.142378
0.142356
0.142334
0.142313
0.142293
0.142272
0.142252
0.142232
0.142211
0.14219
0.14217
0.142148
0.142126
0.142103
0.142079
0.142054
0.142028
0.142001
0.141973
0.141944
0.141914
0.141882
0.14185
0.141815
0.141778
0.141741
0.141704
0.141665
0.141626
0.141587
0.141546
0.141505
0.141463
0.14142
0.141376
0.141327
0.141276
0.141228
0.141182
0.141137
0.141094
0.141054
0.141017
0.140973
0.140959
0.140952
0.142619
0.14259
0.142559
0.142526
0.142493
0.14246
0.142428
0.142396
0.142366
0.142336
0.142305
0.142274
0.142243
0.142212
0.142181
0.142152
0.142123
0.142096
0.142069
0.142042
0.142016
0.141989
0.141963
0.141937
0.141911
0.141886
0.141861
0.141835
0.141811
0.141786
0.141762
0.141738
0.141715
0.141692
0.141669
0.141647
0.141625
0.141603
0.141581
0.14156
0.141539
0.141519
0.141499
0.14148
0.141461
0.141443
0.141425
0.141408
0.14139
0.141373
0.141355
0.141338
0.141321
0.141303
0.141286
0.141269
0.141252
0.141235
0.141219
0.141202
0.141185
0.141168
0.141151
0.141135
0.14112
0.141106
0.141096
0.141088
0.141083
0.141085
0.142418
0.142397
0.142374
0.142348
0.14232
0.142291
0.142261
0.142232
0.142203
0.142174
0.142146
0.142116
0.142087
0.142057
0.142027
0.141998
0.14197
0.141944
0.141918
0.141892
0.141866
0.14184
0.141814
0.141788
0.141763
0.141737
0.141711
0.141686
0.141661
0.141636
0.141612
0.141587
0.141564
0.14154
0.141516
0.141493
0.14147
0.141448
0.141425
0.141404
0.141382
0.141361
0.141341
0.141321
0.141302
0.141283
0.141266
0.141249
0.141232
0.141215
0.141198
0.141182
0.141165
0.141149
0.141133
0.141117
0.141102
0.141087
0.141072
0.141058
0.141043
0.141028
0.141014
0.141
0.140987
0.140976
0.140968
0.140962
0.14096
0.140963
0.142113
0.142099
0.142082
0.142062
0.14204
0.142015
0.141989
0.141963
0.141936
0.141911
0.141885
0.141859
0.141832
0.141805
0.141778
0.141751
0.141724
0.141698
0.141674
0.14165
0.141627
0.141603
0.141579
0.141555
0.141531
0.141507
0.141483
0.141459
0.141435
0.141411
0.141387
0.141363
0.14134
0.141316
0.141293
0.141269
0.141246
0.141222
0.141199
0.141176
0.141153
0.14113
0.141109
0.141087
0.141067
0.141048
0.141031
0.141014
0.140998
0.140982
0.140967
0.140952
0.140937
0.140923
0.140908
0.140895
0.140881
0.140868
0.140855
0.140843
0.140829
0.140816
0.140802
0.140789
0.140776
0.140765
0.140757
0.14075
0.140747
0.140749
0.1418
0.14179
0.141777
0.141762
0.141743
0.141722
0.141699
0.141676
0.141653
0.141631
0.141608
0.141585
0.14156
0.141536
0.14151
0.141484
0.141458
0.141431
0.141404
0.141378
0.141352
0.141327
0.141303
0.141279
0.141256
0.141233
0.141211
0.141189
0.141167
0.141145
0.141125
0.141104
0.141084
0.141065
0.141045
0.141026
0.141006
0.140987
0.140969
0.14095
0.140931
0.140913
0.140894
0.140875
0.140856
0.140837
0.140818
0.140799
0.140779
0.140758
0.140737
0.140715
0.140694
0.140673
0.140651
0.14063
0.14061
0.14059
0.140571
0.140553
0.140534
0.140516
0.140499
0.140483
0.140468
0.140457
0.140449
0.140443
0.140441
0.140443
0.14148
0.141474
0.141465
0.141452
0.141436
0.141418
0.141398
0.141378
0.141357
0.141338
0.141319
0.141299
0.141278
0.141256
0.141234
0.141211
0.141188
0.141165
0.141142
0.14112
0.141097
0.141075
0.141053
0.141033
0.141013
0.140994
0.140976
0.140959
0.140942
0.140926
0.14091
0.140894
0.140879
0.140863
0.140849
0.140834
0.140821
0.140808
0.140795
0.140782
0.140769
0.140755
0.140741
0.140726
0.140711
0.140695
0.140679
0.140663
0.140645
0.140628
0.140609
0.140591
0.140571
0.140552
0.140532
0.140511
0.140491
0.14047
0.14045
0.14043
0.140408
0.140386
0.140365
0.140344
0.140324
0.140305
0.14029
0.140277
0.14027
0.14027
0.14114
0.141135
0.141127
0.141116
0.141101
0.141084
0.141066
0.141047
0.141031
0.141015
0.140998
0.140981
0.140963
0.140945
0.140927
0.140908
0.140889
0.140871
0.140853
0.140835
0.140818
0.140802
0.140786
0.14077
0.140755
0.14074
0.140726
0.140711
0.140697
0.140683
0.140669
0.140655
0.140642
0.140628
0.140615
0.140602
0.140588
0.140575
0.140562
0.140548
0.140535
0.140521
0.140507
0.140493
0.140478
0.140464
0.140449
0.140435
0.14042
0.140404
0.140388
0.140371
0.140355
0.140338
0.14032
0.140303
0.140285
0.140267
0.140251
0.140233
0.140215
0.140197
0.140178
0.140159
0.14014
0.140123
0.140107
0.140092
0.140083
0.140081
0.140773
0.140766
0.140756
0.140742
0.140725
0.140706
0.140686
0.140668
0.140653
0.140638
0.140622
0.140606
0.14059
0.140573
0.140555
0.140538
0.14052
0.140502
0.140485
0.140468
0.140452
0.140436
0.14042
0.140405
0.14039
0.140375
0.14036
0.140345
0.140331
0.140316
0.140302
0.140287
0.140273
0.140259
0.140245
0.14023
0.140216
0.140202
0.140188
0.140173
0.140158
0.140143
0.140128
0.140113
0.140098
0.140082
0.140067
0.140051
0.140035
0.140019
0.140002
0.139985
0.139968
0.13995
0.139932
0.139914
0.139895
0.139877
0.13986
0.139843
0.139825
0.139806
0.139786
0.139767
0.139748
0.13973
0.139714
0.139698
0.139686
0.139683
0.140172
0.140159
0.140141
0.140121
0.140098
0.140075
0.140053
0.140035
0.140019
0.140004
0.139989
0.139973
0.139957
0.13994
0.139922
0.139905
0.139887
0.13987
0.139852
0.139835
0.139818
0.139801
0.139784
0.139767
0.139751
0.139735
0.139719
0.139703
0.139687
0.139671
0.139655
0.13964
0.139625
0.139609
0.139594
0.139579
0.139563
0.139548
0.139533
0.139517
0.139502
0.139486
0.13947
0.139454
0.139439
0.139423
0.139407
0.139391
0.139375
0.139359
0.139343
0.139326
0.139309
0.139292
0.139274
0.139256
0.139239
0.139222
0.139205
0.139189
0.139171
0.139154
0.139136
0.139118
0.139099
0.139082
0.139067
0.13905
0.139037
0.139031
0.139187
0.139167
0.139143
0.139118
0.139092
0.139069
0.139048
0.139032
0.139018
0.139004
0.13899
0.138975
0.13896
0.138944
0.138928
0.138911
0.138894
0.138877
0.138861
0.138844
0.138828
0.138812
0.138797
0.138782
0.138767
0.138753
0.138739
0.138725
0.138711
0.138698
0.138684
0.138671
0.138658
0.138645
0.138632
0.138619
0.138607
0.138594
0.138582
0.13857
0.138557
0.138545
0.138533
0.13852
0.138507
0.138495
0.138483
0.13847
0.138458
0.138445
0.138433
0.13842
0.138407
0.138394
0.138381
0.138367
0.138354
0.138341
0.138329
0.138316
0.138303
0.13829
0.138277
0.138263
0.138249
0.138236
0.138223
0.138208
0.138196
0.138191
0.137537
0.137519
0.137501
0.137484
0.137471
0.13746
0.137453
0.137449
0.137446
0.137442
0.137437
0.13743
0.137423
0.137414
0.137404
0.137394
0.137383
0.137373
0.137362
0.137353
0.137343
0.137334
0.137326
0.137318
0.137311
0.137304
0.137297
0.137291
0.137285
0.137279
0.137273
0.137267
0.137261
0.137254
0.137249
0.137243
0.137238
0.137233
0.137227
0.137222
0.137217
0.137212
0.137207
0.137201
0.137195
0.137189
0.137183
0.137176
0.137169
0.137162
0.137156
0.137149
0.137143
0.137136
0.137129
0.137122
0.137115
0.137107
0.1371
0.137092
0.137084
0.137077
0.13707
0.137063
0.137055
0.137046
0.137037
0.137022
0.13701
0.137
0.135734
0.13572
0.135711
0.135705
0.135701
0.1357
0.1357
0.1357
0.135701
0.135702
0.135701
0.135698
0.135691
0.135682
0.13567
0.135656
0.135641
0.135625
0.135611
0.135597
0.135584
0.135573
0.135562
0.135553
0.135544
0.135535
0.135528
0.135521
0.135514
0.135509
0.135503
0.135497
0.135491
0.135484
0.135477
0.135472
0.135467
0.135464
0.135462
0.13546
0.13546
0.13546
0.13546
0.13546
0.135459
0.135456
0.135452
0.135446
0.135438
0.135432
0.135428
0.135425
0.135422
0.135421
0.13542
0.135418
0.135415
0.135411
0.135406
0.135398
0.13539
0.135386
0.135383
0.135381
0.135378
0.135372
0.135365
0.13535
0.135342
0.135334
0.133579
0.133574
0.133572
0.13357
0.133569
0.133568
0.133567
0.133566
0.133565
0.133563
0.133562
0.133559
0.133557
0.133554
0.133551
0.133547
0.133544
0.13354
0.133536
0.133532
0.133528
0.133524
0.13352
0.133516
0.133513
0.13351
0.133506
0.133503
0.1335
0.133498
0.133495
0.133492
0.133488
0.133483
0.133479
0.133475
0.133471
0.133468
0.133465
0.133462
0.13346
0.133458
0.133456
0.133454
0.133452
0.133451
0.133448
0.133444
0.133439
0.133435
0.133432
0.133429
0.133428
0.133427
0.133426
0.133426
0.133426
0.133426
0.133425
0.13342
0.133415
0.133413
0.133413
0.133414
0.133416
0.133417
0.133416
0.133405
0.133401
0.133392
0.131556
0.131538
0.131523
0.131508
0.131493
0.13148
0.131466
0.131453
0.13144
0.131427
0.131414
0.131401
0.131389
0.131376
0.131363
0.13135
0.131338
0.131325
0.131312
0.131299
0.131286
0.131273
0.13126
0.131247
0.131235
0.131222
0.13121
0.131199
0.131188
0.131176
0.131165
0.131154
0.131142
0.131129
0.131115
0.131103
0.13109
0.131078
0.131067
0.131056
0.131046
0.131037
0.131028
0.13102
0.131013
0.131005
0.130996
0.130985
0.130973
0.130961
0.130951
0.130943
0.130936
0.13093
0.130925
0.130921
0.130918
0.130914
0.13091
0.1309
0.130889
0.130882
0.130878
0.130876
0.130875
0.130874
0.13087
0.130851
0.13084
0.130823
0.131158
0.131093
0.13103
0.130967
0.130903
0.130839
0.130775
0.130711
0.130646
0.130582
0.130518
0.130454
0.130391
0.130327
0.130264
0.1302
0.130137
0.130074
0.130011
0.129947
0.129884
0.129822
0.12976
0.129698
0.129637
0.129576
0.129516
0.129457
0.129398
0.129339
0.129282
0.129225
0.129167
0.129105
0.129043
0.128983
0.128922
0.128863
0.128805
0.128747
0.12869
0.128635
0.12858
0.128527
0.128475
0.128425
0.128375
0.128321
0.12826
0.128201
0.128144
0.128089
0.128037
0.127987
0.127939
0.127894
0.127851
0.12781
0.12777
0.12772
0.127663
0.127611
0.127565
0.127524
0.127488
0.127456
0.127425
0.127366
0.127327
0.127286
0.12763
0.127455
0.127337
0.127222
0.127106
0.126987
0.126866
0.126742
0.126617
0.12649
0.126362
0.126232
0.126101
0.125969
0.125836
0.125703
0.12557
0.125436
0.1253
0.125164
0.125028
0.124892
0.124755
0.12462
0.124484
0.124348
0.124212
0.124078
0.123944
0.123812
0.123682
0.123552
0.123417
0.123271
0.12313