/*--------------------------------*- C++ -*----------------------------------*\
  =========                 |
  \\      /  F ield         | OpenFOAM: The Open Source CFD Toolbox
   \\    /   O peration     | Website:  https://openfoam.org
    \\  /    A nd           | Version:  6.0
     \\/     M anipulation  |
\*---------------------------------------------------------------------------*/
FoamFile
{
    version     2.0;
    format      ascii;
    class       surfaceScalarField;
    location    "6.4";
    object      phi;
}
// * * * * * * * * * * * * * * * * * * * * * * * * * * * * * * * * * * * * * //

dimensions      [0 3 -1 0 0 0 0];

internalField   nonuniform List<scalar> 
68636
(
3.02281e-05
0.00310561
2.6917e-09
6.08429e-05
0.00307075
9.10914e-05
0.00300254
0.00012048
0.00290151
0.000148622
0.00276868
0.000175171
0.00260551
0.000199814
0.00241379
0.000222266
0.00219564
0.000242269
0.00195348
0.000259597
0.00168997
0.000274051
0.00140803
0.000285471
0.00111071
0.000293731
0.000801333
0.000298726
0.000483082
0.000158314
0.000299855
2.99502e-05
0.00307565
6.11789e-09
6.02869e-05
0.00304041
9.02603e-05
0.00297257
0.000119381
0.00287238
0.000147267
0.00274079
0.000173573
0.0025792
0.000197991
0.00238937
0.000220238
0.00217339
0.000240059
0.00193365
0.000257229
0.00167279
0.000271552
0.0013937
0.000282867
0.00109938
0.000291065
0.000793124
0.000295957
0.000478175
0.00015708
0.000297164
2.96744e-05
0.00304597
9.45885e-09
5.97354e-05
0.00301035
8.94362e-05
0.00294287
0.000118293
0.00284353
0.000145924
0.00271316
0.000171992
0.00255313
0.000196188
0.00236517
0.000218233
0.00215134
0.000237873
0.00191401
0.000254886
0.00165578
0.00026908
0.0013795
0.00028029
0.00108818
0.000288415
0.000785003
0.000293299
0.000473298
0.000155741
0.000294656
2.94011e-05
0.00301655
1.27927e-08
5.91888e-05
0.00298056
8.86198e-05
0.00291343
0.000117214
0.00281493
0.000144595
0.00268577
0.000170426
0.0025273
0.000194401
0.00234119
0.000216246
0.0021295
0.000235707
0.00189454
0.000252565
0.00163892
0.000266629
0.00136544
0.000277736
0.00107707
0.000285782
0.000776952
0.000290642
0.000468429
0.0001543
0.00029207
2.91303e-05
0.00298741
1.61143e-08
5.86473e-05
0.00295104
8.78108e-05
0.00288427
0.000116145
0.0027866
0.000143277
0.00265864
0.000168873
0.0025017
0.00019263
0.00231743
0.000214276
0.00210785
0.00023356
0.00187526
0.000250264
0.00162222
0.0002642
0.0013515
0.000275204
0.00106607
0.00028317
0.00076899
0.000287988
0.000463619
0.000152855
0.000289452
2.88619e-05
0.00295853
1.95971e-08
5.81105e-05
0.0029218
8.7009e-05
0.00285537
0.000115086
0.00275852
0.000141971
0.00263176
0.000167334
0.00247634
0.000190875
0.00229389
0.000212324
0.0020864
0.000231432
0.00185615
0.000247984
0.00160566
0.000261793
0.00133769
0.000272697
0.00105516
0.000280585
0.000761099
0.000285356
0.000458842
0.000151359
0.000286844
2.85957e-05
0.00292991
2.32413e-08
5.75785e-05
0.00289281
8.62144e-05
0.00282673
0.000114036
0.0027307
0.000140677
0.00260512
0.000165809
0.00245121
0.000189136
0.00227056
0.00021039
0.00206515
0.000229324
0.00183722
0.000245724
0.00158927
0.000259407
0.00132401
0.000270213
0.00104436
0.000278024
0.000753292
0.000282751
0.000454122
0.000149875
0.000284253
2.83319e-05
0.00290155
2.70937e-08
5.70512e-05
0.00286409
8.54269e-05
0.00279836
0.000112996
0.00270313
0.000139394
0.00257872
0.000164298
0.0024263
0.000187413
0.00224745
0.000208473
0.00204409
0.000227235
0.00181846
0.000243486
0.00157301
0.000257044
0.00131045
0.000267751
0.00103365
0.000275489
0.000745552
0.000280172
0.000449436
0.000148359
0.000281682
2.80703e-05
0.00287345
3.1192e-08
5.65286e-05
0.00283564
8.46465e-05
0.00277024
0.000111965
0.00267581
0.000138124
0.00255256
0.000162801
0.00240163
0.000185706
0.00222454
0.000206574
0.00202322
0.000225164
0.00179987
0.000241267
0.00155691
0.000254702
0.00129702
0.000265312
0.00102304
0.000272978
0.000737889
0.000277618
0.000444803
0.00014686
0.000279134
2.78111e-05
0.0028456
3.54782e-08
5.60107e-05
0.00280744
8.38731e-05
0.00274238
0.000110943
0.00264874
0.000136864
0.00252664
0.000161317
0.00237717
0.000184014
0.00220185
0.000204692
0.00200255
0.000223113
0.00178144
0.000239069
0.00154096
0.000252381
0.00128371
0.000262895
0.00101253
0.000270491
0.000730292
0.000275089
0.000440203
0.000145338
0.000276606
2.75541e-05
0.00281801
3.99343e-08
5.54975e-05
0.00277949
8.31066e-05
0.00271477
0.000109931
0.00262192
0.000135616
0.00250095
0.000159847
0.00235294
0.000182337
0.00217936
0.000202827
0.00198206
0.000221081
0.00176319
0.000236891
0.00152515
0.000250081
0.00127052
0.000260501
0.00100211
0.000268027
0.000722769
0.000272583
0.000435652
0.000143839
0.000274097
2.72993e-05
0.00279066
4.44967e-08
5.49888e-05
0.0027518
8.2347e-05
0.00268741
0.000108927
0.00259534
0.00013438
0.0024755
0.00015839
0.00232893
0.000180676
0.00215707
0.000200979
0.00196176
0.000219066
0.0017451
0.000234733
0.00150948
0.000247803
0.00125745
0.000258128
0.000991783
0.000265586
0.00071531
0.0002701
0.000431135
0.000142329
0.000271607
2.70468e-05
0.00276357
4.90784e-08
5.44846e-05
0.00272437
8.15942e-05
0.0026603
0.000107933
0.002569
0.000133154
0.00245028
0.000156946
0.00230514
0.000179029
0.00213499
0.000199148
0.00194164
0.00021707
0.00172718
0.000232594
0.00149396
0.000245545
0.0012445
0.000255776
0.000981554
0.000263167
0.000707922
0.000267641
0.000426666
0.000140845
0.000269137
2.67965e-05
0.00273672
5.36228e-08
5.3985e-05
0.00269718
8.08482e-05
0.00263344
0.000106948
0.0025429
0.00013194
0.00242529
0.000155516
0.00228156
0.000177398
0.00211311
0.000197333
0.0019217
0.000215093
0.00170942
0.000230475
0.00147857
0.000243308
0.00123166
0.000253446
0.000971415
0.00026077
0.000700596
0.000265204
0.00042223
0.000139357
0.000266689
2.65485e-05
0.00271011
5.8062e-08
5.34898e-05
0.00267024
8.01089e-05
0.00260682
0.000105971
0.00251704
0.000130736
0.00240052
0.000154098
0.0022582
0.000175781
0.00209142
0.000195535
0.00190195
0.000213133
0.00169182
0.000228375
0.00146333
0.000241091
0.00121895
0.000251137
0.000961371
0.000258395
0.00069334
0.000262789
0.00041784
0.000137893
0.000264264
2.63026e-05
0.00268374
6.23446e-08
5.29991e-05
0.00264354
7.93762e-05
0.00258044
0.000105004
0.00249141
0.000129543
0.00237598
0.000152693
0.00223505
0.000174178
0.00206994
0.000193753
0.00188238
0.00021119
0.00167439
0.000226294
0.00144823
0.000238894
0.00120635
0.000248849
0.000951416
0.000256042
0.000686147
0.000260397
0.000413483
0.000136424
0.000261863
2.6059e-05
0.00265762
6.64426e-08
5.25128e-05
0.00261709
7.86502e-05
0.0025543
0.000104045
0.00246602
0.000128361
0.00235167
0.0001513
0.00221211
0.000172591
0.00204865
0.000191986
0.00186298
0.000209266
0.00165711
0.000224232
0.00143326
0.000236717
0.00119387
0.000246581
0.000941553
0.000253709
0.000679021
0.000258026
0.00040917
0.000134978
0.000259483
2.58176e-05
0.00263173
7.03312e-08
5.20309e-05
0.00259087
7.79306e-05
0.00252841
0.000103094
0.00244085
0.00012719
0.00232757
0.00014992
0.00218938
0.000171017
0.00202755
0.000190236
0.00184376
0.000207358
0.00163999
0.000222188
0.00141843
0.00023456
0.00118149
0.000244335
0.000931777
0.000251399
0.000671956
0.000255677
0.00040489
0.000133527
0.000257125
2.55783e-05
0.00260608
7.3999e-08
5.15533e-05
0.0025649
7.72176e-05
0.00250274
0.000102152
0.00241592
0.000126029
0.00230369
0.000148553
0.00216686
0.000169458
0.00200665
0.000188502
0.00182472
0.000205468
0.00162302
0.000220164
0.00140374
0.000232423
0.00116924
0.000242109
0.000922093
0.000249109
0.000664957
0.00025335
0.000400652
0.000132099
0.000254787
2.53413e-05
0.00258066
7.74461e-08
5.108e-05
0.00253916
7.6511e-05
0.00247731
0.000101219
0.00239121
0.000124879
0.00228003
0.000147197
0.00214454
0.000167912
0.00198593
0.000186784
0.00180585
0.000203595
0.00160621
0.000218157
0.00138918
0.000230305
0.00115709
0.000239903
0.000912494
0.00024684
0.000658019
0.000251043
0.000396447
0.000130669
0.00025247
2.51064e-05
0.00255547
8.06753e-08
5.06111e-05
0.00251365
7.58108e-05
0.00245211
0.000100294
0.00236673
0.000123739
0.00225659
0.000145854
0.00212243
0.000166381
0.00196541
0.000185081
0.00178715
0.000201739
0.00158955
0.000216169
0.00137475
0.000228206
0.00114505
0.000237717
0.000902984
0.000244592
0.000651146
0.000248758
0.000392284
0.000129262
0.000250173
2.48738e-05
0.00253052
8.3706e-08
5.01463e-05
0.00248838
7.51169e-05
0.00242714
9.93777e-05
0.00234247
0.000122609
0.00223336
0.000144523
0.00210051
0.000164863
0.00194507
0.000183393
0.00176862
0.0001999
0.00157304
0.000214199
0.00136045
0.000226127
0.00113312
0.000235552
0.000893559
0.000242365
0.000644333
0.000246493
0.000388154
0.000127857
0.000247896
2.46432e-05
0.00250579
8.65651e-08
4.96859e-05
0.00246334
7.44292e-05
0.0024024
9.84694e-05
0.00231843
0.000121489
0.00221034
0.000143205
0.0020788
0.000163359
0.00192491
0.000181721
0.00175026
0.000198078
0.00155669
0.000212247
0.00134628
0.000224067
0.0011213
0.000233406
0.000884221
0.000240157
0.000637583
0.000244249
0.000384065
0.000126474
0.00024564
2.44149e-05
0.00248128
8.9294e-08
4.92296e-05
0.00243852
7.37478e-05
0.00237788
9.75693e-05
0.00229461
0.00012038
0.00218753
0.000141898
0.00205728
0.000161869
0.00190494
0.000180063
0.00173206
0.000196272
0.00154048
0.000210312
0.00133224
0.000222025
0.00110959
0.00023128
0.000874965
0.000237971
0.000630891
0.000242026
0.000380009
0.000125093
0.000243405
2.41886e-05
0.002457
9.19404e-08
4.87774e-05
0.00241394
7.30726e-05
0.00235358
9.66773e-05
0.002271
0.00011928
0.00216493
0.000140602
0.00203596
0.000160392
0.00188515
0.000178421
0.00171403
0.000194483
0.00152442
0.000208395
0.00131833
0.000220002
0.00109798
0.000229173
0.000865795
0.000235804
0.000624261
0.000239823
0.000375991
0.000123732
0.00024119
2.39644e-05
0.00243294
9.45593e-08
4.83294e-05
0.00238957
7.24035e-05
0.00232951
9.57934e-05
0.00224761
0.000118191
0.00214253
0.000139319
0.00201483
0.000158929
0.00186554
0.000176794
0.00169617
0.00019271
0.0015085
0.000206496
0.00130454
0.000217997
0.00108648
0.000227085
0.000856706
0.000233657
0.000617689
0.000237641
0.000372007
0.000122374
0.000238996
2.37424e-05
0.0024091
9.72001e-08
4.78855e-05
0.00236543
7.17404e-05
0.00230565
9.49175e-05
0.00222444
0.000117111
0.00212033
0.000138047
0.00199389
0.000157479
0.00184611
0.000175182
0.00167847
0.000190953
0.00149273
0.000204614
0.00129088
0.000216011
0.00107509
0.000225017
0.000847701
0.000231529
0.000611178
0.000235478
0.00036806
0.000121035
0.000236822
2.35223e-05
0.00238548
9.99077e-08
4.74456e-05
0.0023415
7.10834e-05
0.00228202
9.40496e-05
0.00220147
0.000116041
0.00209834
0.000136787
0.00197315
0.000156042
0.00182685
0.000173584
0.00166092
0.000189212
0.0014771
0.000202749
0.00127734
0.000214043
0.00106379
0.000222968
0.000838776
0.000229421
0.000604724
0.000233335
0.000364146
0.000119699
0.000234668
2.33044e-05
0.00236207
1.02709e-07
4.70097e-05
0.0023178
7.04323e-05
0.00225859
9.31894e-05
0.00217871
0.000114981
0.00207655
0.000135538
0.00195259
0.000154618
0.00180777
0.000172001
0.00164354
0.000187487
0.00146161
0.000200901
0.00126393
0.000212093
0.0010526
0.000220937
0.000829933
0.000227333
0.000598329
0.000231211
0.000360269
0.000118382
0.000232533
2.30884e-05
0.00233888
1.0562e-07
4.65778e-05
0.00229431
6.97871e-05
0.00223538
9.23371e-05
0.00215616
0.00011393
0.00205496
0.0001343
0.00193222
0.000153207
0.00178887
0.000170432
0.00162632
0.000185777
0.00144627
0.00019907
0.00125064
0.000210161
0.00104151
0.000218925
0.000821169
0.000225263
0.00059199
0.000229107
0.000356424
0.000117069
0.000230418
2.28744e-05
0.0023159
1.08631e-07
4.61498e-05
0.00227103
6.91477e-05
0.00221239
9.14925e-05
0.00213382
0.000112889
0.00203356
0.000133074
0.00191204
0.000151809
0.00177013
0.000168877
0.00160925
0.000184084
0.00143106
0.000197256
0.00123746
0.000208246
0.00103052
0.000216931
0.000812484
0.000223212
0.00058571
0.000227022
0.000352616
0.000115775
0.000228321
2.26623e-05
0.00229312
1.11726e-07
4.57257e-05
0.00224797
6.85142e-05
0.0021896
9.06555e-05
0.00211168
0.000111858
0.00201236
0.000131859
0.00189204
0.000150423
0.00175157
0.000167337
0.00159234
0.000182405
0.00141599
0.000195458
0.00122441
0.000206349
0.00101963
0.000214955
0.000803877
0.00022118
0.000579484
0.000224956
0.000348839
0.000114485
0.000226244
2.24522e-05
0.00227056
1.14868e-07
4.53054e-05
0.00222512
6.78864e-05
0.00216702
8.98261e-05
0.00208974
0.000110835
0.00199135
0.000130655
0.00187222
0.000149051
0.00173317
0.00016581
0.00157558
0.000180742
0.00140106
0.000193677
0.00121148
0.000204469
0.00100884
0.000212998
0.000795349
0.000219167
0.000573316
0.000222909
0.000345098
0.000113213
0.000224185
2.2244e-05
0.00224819
1.18018e-07
4.4889e-05
0.00220247
6.72643e-05
0.00214464
8.90043e-05
0.002068
0.000109822
0.00197053
0.000129461
0.00185258
0.00014769
0.00171494
0.000164298
0.00155897
0.000179094
0.00138627
0.000191912
0.00119866
0.000202607
0.000998142
0.000211058
0.000786897
0.000217172
0.000567201
0.000220881
0.000341389
0.000111946
0.000222146
2.20378e-05
0.00222603
1.21133e-07
4.44764e-05
0.00218003
6.66478e-05
0.00212247
8.81899e-05
0.00204645
0.000108819
0.0019499
0.000128279
0.00183312
0.000146342
0.00169688
0.000162799
0.00154251
0.000177462
0.0013716
0.000190163
0.00118596
0.000200761
0.000987544
0.000209137
0.000778521
0.000215195
0.000561143
0.000218871
0.000337714
0.000110695
0.000220125
2.18333e-05
0.00220408
1.24173e-07
4.40675e-05
0.0021578
6.6037e-05
0.0021005
8.73829e-05
0.00202511
0.000107824
0.00192946
0.000127107
0.00181383
0.000145007
0.00167898
0.000161314
0.0015262
0.000175844
0.00135707
0.00018843
0.00117337
0.000198932
0.000977042
0.000207232
0.000770221
0.000213237
0.000555138
0.00021688
0.00033407
0.00010945
0.000218123
2.16308e-05
0.00218232
1.27101e-07
4.36624e-05
0.00213577
6.54317e-05
0.00207873
8.65832e-05
0.00200396
0.000106838
0.00190921
0.000125947
0.00179472
0.000143683
0.00166124
0.000159843
0.00151004
0.00017424
0.00134268
0.000186713
0.0011609
0.00019712
0.000966635
0.000205345
0.000761996
0.000211296
0.000549188
0.000214907
0.000330461
0.00010822
0.000216139
2.14301e-05
0.00216076
1.29892e-07
4.32609e-05
0.00211394
6.48319e-05
0.00205716
8.57908e-05
0.001983
0.000105862
0.00188914
0.000124796
0.00177579
0.000142372
0.00164367
0.000158385
0.00149403
0.000172652
0.00132841
0.000185012
0.00114854
0.000195325
0.000956321
0.000203476
0.000753845
0.000209373
0.00054329
0.000212952
0.000326882
0.000106997
0.000214173
2.12311e-05
0.0021394
1.32528e-07
4.2863e-05
0.00209231
6.42375e-05
0.00203579
8.50056e-05
0.00196223
0.000104894
0.00186925
0.000123656
0.00175703
0.000141072
0.00162625
0.00015694
0.00147816
0.000171078
0.00131427
0.000183326
0.00113629
0.000193546
0.000946101
0.000201623
0.000745768
0.000207468
0.000537446
0.000211014
0.000323336
0.000105788
0.000212225
2.10341e-05
0.00211823
1.35003e-07
4.24688e-05
0.00207087
6.36486e-05
0.00201461
8.42276e-05
0.00194165
0.000103935
0.00184954
0.000122527
0.00173844
0.000139785
0.00160899
0.000155508
0.00146244
0.000169518
0.00130026
0.000181656
0.00112415
0.000191783
0.000935973
0.000199788
0.000737763
0.00020558
0.000531654
0.000209095
0.00031982
0.000104587
0.000210295
2.08387e-05
0.00209725
1.37321e-07
4.20781e-05
0.00204963
6.3065e-05
0.00199362
8.34566e-05
0.00192126
0.000102985
0.00183001
0.000121408
0.00172001
0.000138509
0.00159189
0.00015409
0.00144686
0.000167973
0.00128638
0.00018
0.00111212
0.000190037
0.000925937
0.000197969
0.00072983
0.000203709
0.000525915
0.000207193
0.000316337
0.000103399
0.000208382
2.06452e-05
0.00207647
1.39499e-07
4.1691e-05
0.00202859
6.24867e-05
0.00197282
8.26927e-05
0.00190105
0.000102043
0.00181066
0.000120299
0.00170176
0.000137245
0.00157495
0.000152684
0.00143142
0.000166442
0.00127262
0.00017836
0.00110021
0.000188306
0.000915991
0.000196167
0.000721969
0.000201855
0.000520226
0.000205308
0.000312884
0.000102219
0.000206487
2.04534e-05
0.00205587
1.41561e-07
4.13075e-05
0.00200773
6.19136e-05
0.00195222
8.19357e-05
0.00188103
0.00010111
0.00179149
0.0001192
0.00168367
0.000135992
0.00155815
0.000151292
0.00141612
0.000164924
0.00125899
0.000176735
0.00108839
0.000186591
0.000906135
0.000194381
0.000714179
0.000200018
0.000514589
0.00020344
0.000309463
0.000101052
0.000204609
2.02634e-05
0.00203546
1.4354e-07
4.09274e-05
0.00198707
6.13458e-05
0.0019318
8.11856e-05
0.00186119
0.000100186
0.00177249
0.000118111
0.00166574
0.000134751
0.00154152
0.000149912
0.00140096
0.000163421
0.00124548
0.000175125
0.00107669
0.000184892
0.000896368
0.000192612
0.000706459
0.000198199
0.000509002
0.00020159
0.000306072
9.9893e-05
0.000202748
2.00751e-05
0.00201524
1.45472e-07
4.05507e-05
0.00196659
6.07832e-05
0.00191157
8.04424e-05
0.00184153
9.92696e-05
0.00175366
0.000117032
0.00164798
0.000133521
0.00152503
0.000148544
0.00138593
0.000161931
0.00123209
0.00017353
0.00106509
0.000183208
0.000886689
0.000190859
0.000698808
0.000196395
0.000503465
0.000199757
0.000302711
9.87458e-05
0.000200905
1.98885e-05
0.00199521
1.47397e-07
4.01775e-05
0.0019463
6.02257e-05
0.00189152
7.97059e-05
0.00182205
9.83619e-05
0.001735
0.000115963
0.00163038
0.000132302
0.00150869
0.00014719
0.00137105
0.000160455
0.00121883
0.000171949
0.0010536
0.00018154
0.000877098
0.000189122
0.000691226
0.000194609
0.000497978
0.00019794
0.00029938
9.76071e-05
0.000199078
1.97037e-05
0.00197535
1.49349e-07
3.98077e-05
0.0019262
5.96733e-05
0.00187165
7.89762e-05
0.00180275
9.74625e-05
0.00171652
0.000114904
0.00161294
0.000131094
0.0014925
0.000145847
0.00135629
0.000158993
0.00120568
0.000170382
0.00104221
0.000179887
0.000867593
0.000187401
0.000683712
0.000192838
0.00049254
0.00019614
0.000296078
9.64795e-05
0.000197268
1.95205e-05
0.00195568
1.5136e-07
3.94413e-05
0.00190628
5.91259e-05
0.00185197
7.82531e-05
0.00178362
9.65713e-05
0.0016982
0.000113854
0.00159565
0.000129898
0.00147645
0.000144517
0.00134167
0.000157544
0.00119265
0.00016883
0.00103092
0.000178249
0.000858174
0.000185695
0.000676266
0.000191084
0.000487151
0.000194356
0.000292806
9.53607e-05
0.000195475
1.9339e-05
0.00193619
1.53449e-07
3.90782e-05
0.00188654
5.85835e-05
0.00183246
7.75366e-05
0.00176467
9.56883e-05
0.00168005
0.000112814
0.00157853
0.000128712
0.00146055
0.000143199
0.00132719
0.000156108
0.00117974
0.000167292
0.00101974
0.000176627
0.000848839
0.000184005
0.000668887
0.000189346
0.00048181
0.000192589
0.000289563
9.42523e-05
0.000193697
1.91591e-05
0.00191688
1.55628e-07
3.87184e-05
0.00186698
5.80461e-05
0.00181314
7.68267e-05
0.00174589
9.48133e-05
0.00166206
0.000111783
0.00156156
0.000127538
0.0014448
0.000141893
0.00131283
0.000154685
0.00116695
0.000165769
0.00100865
0.000175019
0.000839589
0.000182331
0.000661575
0.000187624
0.000476518
0.000190838
0.00028635
9.31532e-05
0.000191937
1.89809e-05
0.00189774
1.57894e-07
3.8362e-05
0.0018476
5.75136e-05
0.00179399
7.61232e-05
0.00172728
9.39463e-05
0.00164424
0.000110762
0.00154474
0.000126374
0.00142919
0.000140599
0.00129861
0.000153275
0.00115428
0.000164259
0.00099767
0.000173425
0.000830422
0.000180672
0.000654328
0.000185917
0.000471272
0.000189103
0.000283164
9.20638e-05
0.000190192
1.88044e-05
0.00187877
1.60238e-07
3.80088e-05
0.00182839
5.69859e-05
0.00177501
7.54262e-05
0.00170884
9.30872e-05
0.00162658
0.000109751
0.00152808
0.00012522
0.00141372
0.000139317
0.00128451
0.000151878
0.00114171
0.000162763
0.000986785
0.000171847
0.000821338
0.000179028
0.000647146
0.000184227
0.000466073
0.000187384
0.000280007
9.09841e-05
0.000188464
1.86294e-05
0.00185998
1.62639e-07
3.76588e-05
0.00180936
5.64631e-05
0.0017562
7.47356e-05
0.00169057
9.2236e-05
0.00160908
0.000108748
0.00151157
0.000124077
0.00139839
0.000138046
0.00127054
0.000150494
0.00112927
0.00016128
0.000975999
0.000170283
0.000812335
0.0001774
0.000640029
0.000182551
0.000460921
0.000185681
0.000276878
8.9913e-05
0.000186751
1.84561e-05
0.00184136
1.65069e-07
3.73121e-05
0.00179051
5.59451e-05
0.00173757
7.40513e-05
0.00167246
9.13926e-05
0.00159174
0.000107755
0.0014952
0.000122945
0.0013832
0.000136787
0.0012567
0.000149123
0.00111693
0.000159812
0.00096531
0.000168733
0.000803414
0.000175786
0.000632976
0.000180892
0.000455815
0.000183993
0.000273777
8.88522e-05
0.000185054
1.82844e-05
0.00182291
1.67499e-07
3.69685e-05
0.00177182
5.54318e-05
0.00171911
7.33732e-05
0.00165452
9.05569e-05
0.00157455
0.00010677
0.00147899
0.000121823
0.00136815
0.00013554
0.00124298
0.000147764
0.00110471
0.000158356
0.000954718
0.000167197
0.000794573
0.000174187
0.000625985
0.000179247
0.000450755
0.000182321
0.000270703
8.77994e-05
0.000183373
1.81142e-05
0.00180462
1.69899e-07
3.66281e-05
0.00175331
5.49232e-05
0.00170081
7.27013e-05
0.00163674
8.97289e-05
0.00155753
0.000105795
0.00146292
0.000120711
0.00135323
0.000134304
0.00122939
0.000146418
0.00109259
0.000156914
0.000944221
0.000165676
0.000785812
0.000172603
0.000619058
0.000177617
0.00044574
0.000180664
0.000267657
8.67571e-05
0.000181707
1.79456e-05
0.00178651
1.72238e-07
3.62908e-05
0.00173497
5.44192e-05
0.00168269
7.20356e-05
0.00161912
8.89084e-05
0.00154065
0.000104829
0.001447
0.00011961
0.00133845
0.00013308
0.00121592
0.000145084
0.00108059
0.000155486
0.000933818
0.000164168
0.000777129
0.000171033
0.000612193
0.000176003
0.000440769
0.000179022
0.000264637
8.5722e-05
0.000180056
1.77786e-05
0.00176855
1.74495e-07
3.59566e-05
0.00171679
5.39199e-05
0.00166472
7.1376e-05
0.00160167
8.80955e-05
0.00152393
0.000103871
0.00143123
0.000118518
0.0013238
0.000131866
0.00120257
0.000143762
0.00106869
0.00015407
0.00092351
0.000162675
0.000768525
0.000169478
0.00060539
0.000174403
0.000435844
0.000177396
0.000261645
8.46978e-05
0.000178421
1.76131e-05
0.00175076
1.7665e-07
3.56254e-05
0.00169877
5.34252e-05
0.00164692
7.07225e-05
0.00158437
8.729e-05
0.00150737
0.000102923
0.00141559
0.000117437
0.00130929
0.000130664
0.00118935
0.000142452
0.0010569
0.000152668
0.000913294
0.000161195
0.000759997
0.000167937
0.000598647
0.000172818
0.000430962
0.000175784
0.000258678
8.36803e-05
0.0001768
1.74491e-05
0.00173314
1.78691e-07
3.52973e-05
0.00168093
5.2935e-05
0.00162928
7.00749e-05
0.00156723
8.64918e-05
0.00149095
0.000101983
0.0014001
0.000116366
0.00129491
0.000129473
0.00117624
0.000141155
0.00104522
0.000151278
0.000903171
0.000159728
0.000751547
0.00016641
0.000591966
0.000171248
0.000426124
0.000174188
0.000255739
8.26739e-05
0.000175195
1.72867e-05
0.00171567
1.80614e-07
3.49723e-05
0.00166324
5.24493e-05
0.00161181
6.94333e-05
0.00155025
8.5701e-05
0.00147468
0.000101051
0.00138475
0.000115304
0.00128065
0.000128293
0.00116325
0.000139869
0.00103364
0.000149901
0.000893139
0.000158275
0.000743173
0.000164897
0.000585343
0.000169692
0.000421328
0.000172606
0.000252825
8.16734e-05
0.000173604
1.71257e-05
0.00169836
1.82422e-07
3.46502e-05
0.00164572
5.19681e-05
0.00159449
6.87975e-05
0.00153342
8.49175e-05
0.00145856
0.000100129
0.00136954
0.000114252
0.00126653
0.000127123
0.00115038
0.000138595
0.00102217
0.000148537
0.000883197
0.000156836
0.000734874
0.000163398
0.000578781
0.00016815
0.000416577
0.000171038
0.000249937
8.06845e-05
0.000172028
1.69662e-05
0.00168121
1.84125e-07
3.4331e-05
0.00162835
5.14912e-05
0.00157733
6.81676e-05
0.00151674
8.41411e-05
0.00144259
9.92143e-05
0.00135447
0.00011321
0.00125253
0.000125965
0.00113762
0.000137333
0.0010108
0.000147185
0.000873344
0.00015541
0.000726649
0.000161913
0.000572276
0.000166623
0.000411866
0.000169485
0.000247074
7.97008e-05
0.000170467
1.68082e-05
0.00166422
1.8574e-07
3.40148e-05
0.00161114
5.10188e-05
0.00156033
6.75435e-05
0.00150021
8.33719e-05
0.00142676
9.83084e-05
0.00133953
0.000112177
0.00123867
0.000124817
0.00112498
0.000136083
0.000999538
0.000145846
0.000863581
0.000153997
0.000718498
0.000160442
0.000565831
0.00016511
0.000407199
0.000167947
0.000244238
7.87289e-05
0.00016892
1.66517e-05
0.00164738
1.87288e-07
3.37015e-05
0.0015941
5.05506e-05
0.00154348
6.69251e-05
0.00148384
8.26097e-05
0.00141107
9.74108e-05
0.00132473
0.000111154
0.00122492
0.00012368
0.00111246
0.000134844
0.000988374
0.000144519
0.000853905
0.000152597
0.00071042
0.000158984
0.000559442
0.00016361
0.000402572
0.000166422
0.000241425
7.77615e-05
0.000167387
1.64966e-05
0.00163069
1.88797e-07
3.33911e-05
0.0015772
5.00868e-05
0.00152678
6.63123e-05
0.00146761
8.18546e-05
0.00139553
9.65214e-05
0.00131006
0.00011014
0.0012113
0.000122553
0.00110004
0.000133616
0.00097731
0.000143205
0.000844317
0.000151209
0.000702416
0.00015754
0.000553112
0.000162125
0.000397987
0.000164912
0.000238639
7.68063e-05
0.000165869
1.63429e-05
0.00161416
1.90293e-07
3.30835e-05
0.00156046
4.96272e-05
0.00151024
6.57052e-05
0.00145154
8.11063e-05
0.00138013
9.56403e-05
0.00129553
0.000109136
0.00119781
0.000121436
0.00108774
0.0001324
0.000966346
0.000141902
0.000834814
0.000149835
0.000694482
0.000156109
0.000546837
0.000160653
0.000393442
0.000163416
0.000235875
7.5855e-05
0.000164364
1.61906e-05
0.00159778
1.91804e-07
3.27787e-05
0.00154387
4.91719e-05
0.00149384
6.51037e-05
0.0014356
8.0365e-05
0.00136487
9.47672e-05
0.00128113
0.000108141
0.00118444
0.00012033
0.00107555
0.000131195
0.000955481
0.000140612
0.000825397
0.000148473
0.00068662
0.000154691
0.00054062
0.000159195
0.000388939
0.000161933
0.000233138
7.49162e-05
0.000162873
1.60398e-05
0.00158154
1.93354e-07
3.24768e-05
0.00152743
4.87207e-05
0.0014776
6.45077e-05
0.00141982
7.96305e-05
0.00134975
9.39021e-05
0.00126685
0.000107155
0.00117118
0.000119234
0.00106347
0.000130001
0.000944714
0.000139333
0.000816064
0.000147124
0.000678828
0.000153287
0.000534457
0.00015775
0.000384475
0.000160464
0.000230422
7.39806e-05
0.000161397
1.58903e-05
0.00156546
1.94962e-07
3.21776e-05
0.00151115
4.82737e-05
0.0014615
6.39172e-05
0.00140417
7.89027e-05
0.00133476
9.30451e-05
0.00125271
0.000106178
0.00115805
0.000118148
0.0010515
0.000128818
0.000934044
0.000138066
0.000806816
0.000145788
0.000671107
0.000151895
0.00052835
0.000156319
0.000380051
0.000159009
0.000227733
7.30577e-05
0.000159933
1.57422e-05
0.00154952
1.96639e-07
3.18811e-05
0.00149501
4.78308e-05
0.00144555
6.33321e-05
0.00138867
7.81816e-05
0.00131991
9.21959e-05
0.0012387
0.00010521
0.00114504
0.000117072
0.00103964
0.000127646
0.000923469
0.000136811
0.00079765
0.000144463
0.000663454
0.000150516
0.000522296
0.0001549
0.000375666
0.000157567
0.000225065
7.21375e-05
0.000158484
1.55954e-05
0.00153373
1.98388e-07
3.15874e-05
0.00147902
4.73919e-05
0.00142975
6.27524e-05
0.00137331
7.74672e-05
0.0013052
9.13545e-05
0.00122481
0.000104251
0.00113214
0.000116006
0.00102789
0.000126485
0.000912991
0.000135568
0.000788568
0.000143151
0.00065587
0.00014915
0.000516298
0.000153495
0.000371321
0.000156138
0.000222423
7.12304e-05
0.000157048
1.545e-05
0.00151808
2.00202e-07
3.12964e-05
0.00146317
4.69571e-05
0.00141409
6.2178e-05
0.00135809
7.67593e-05
0.00129062
9.05209e-05
0.00121105
0.000103301
0.00111936
0.00011495
0.00101624
0.000125334
0.000902606
0.000134336
0.000779566
0.000141851
0.000648354
0.000147796
0.000510352
0.000152103
0.000367012
0.000154723
0.000219802
7.03252e-05
0.000155625
1.53059e-05
0.00150257
2.0207e-07
3.1008e-05
0.00144747
4.65263e-05
0.00139857
6.16089e-05
0.00134301
7.6058e-05
0.00127617
8.9695e-05
0.00119741
0.000102359
0.0011067
0.000113903
0.00100469
0.000124194
0.000892315
0.000133115
0.000770645
0.000140564
0.000640905
0.000146456
0.00050446
0.000150724
0.000362744
0.000153321
0.000217206
6.94333e-05
0.000154215
1.51632e-05
0.0014872
2.03971e-07
3.07223e-05
0.00143191
4.60994e-05
0.00138319
6.1045e-05
0.00132806
7.53631e-05
0.00126185
8.88767e-05
0.0011839
0.000101427
0.00109415
0.000112867
0.000993254
0.000123065
0.000882116
0.000131906
0.000761804
0.000139288
0.000633523
0.000145127
0.000498619
0.000149358
0.000358512
0.000151932
0.00021463
6.85429e-05
0.000152818
1.50217e-05
0.00147197
2.0588e-07
3.04393e-05
0.00141649
4.56765e-05
0.00136796
6.04864e-05
0.00131325
7.46746e-05
0.00124766
8.8066e-05
0.00117051
0.000100503
0.00108171
0.000111839
0.000981917
0.000121946
0.000872009
0.000130708
0.000753043
0.000138023
0.000626207
0.000143811
0.000492832
0.000148004
0.000354319
0.000150556
0.00021208
6.76661e-05
0.000151435
1.48816e-05
0.00145688
2.0777e-07
3.01588e-05
0.00140121
4.52575e-05
0.00135286
5.99329e-05
0.00129858
7.39925e-05
0.0012336
8.72627e-05
0.00115724
9.9587e-05
0.00106939
0.000110822
0.000970682
0.000120838
0.000861992
0.00012952
0.00074436
0.000136771
0.000618956
0.000142507
0.000487095
0.000146663
0.000350162
0.000149192
0.000209549
6.67901e-05
0.000150064
1.47428e-05
0.00144193
2.09619e-07
2.9881e-05
0.00138608
4.48423e-05
0.0013379
5.93845e-05
0.00128404
7.33167e-05
0.00121967
8.64669e-05
0.00114409
9.86799e-05
0.00105717
0.000109814
0.000959548
0.00011974
0.000852067
0.000128344
0.000735755
0.00013553
0.00061177
0.000141215
0.000481411
0.000145334
0.000346043
0.000147841
0.000207044
6.59279e-05
0.000148706
1.46052e-05
0.00142711
2.11403e-07
2.96057e-05
0.00137108
4.4431e-05
0.00132307
5.88411e-05
0.00126963
7.26471e-05
0.00120586
8.56784e-05
0.00113105
9.77812e-05
0.00104507
0.000108815
0.000948514
0.000118652
0.000842229
0.000127179
0.000727227
0.000134301
0.000604648
0.000139935
0.000475776
0.000144018
0.000341959
0.000146503
0.000204557
6.50661e-05
0.00014736
1.44689e-05
0.00141243
2.13107e-07
2.93329e-05
0.00135621
4.40235e-05
0.00130838
5.83028e-05
0.00125535
7.19837e-05
0.00119218
8.48972e-05
0.00111814
9.68909e-05
0.00103308
0.000107825
0.00093758
0.000117574
0.000832481
0.000126025
0.000718776
0.000133083
0.00059759
0.000138667
0.000470192
0.000142714
0.000337913
0.000145177
0.000202095
6.42182e-05
0.000146028
1.43339e-05
0.00139788
2.1472e-07
2.90626e-05
0.00134148
4.36197e-05
0.00129382
5.77695e-05
0.0012412
7.13264e-05
0.00117862
8.41232e-05
0.00110534
9.60087e-05
0.00102119
0.000106844
0.000926744
0.000116506
0.000822819
0.000124881
0.000710399
0.000131876
0.000590594
0.000137411
0.000464656
0.000141422
0.0003339
0.000143864
0.000199651
6.33702e-05
0.000144707
1.42001e-05
0.00138347
2.16242e-07
2.87949e-05
0.00132689
4.32196e-05
0.0012794
5.7241e-05
0.00122717
7.06752e-05
0.00116519
8.33564e-05
0.00109266
9.51348e-05
0.00100941
0.000105873
0.000916006
0.000115448
0.000813245
0.000123748
0.000702099