/*--------------------------------*- C++ -*----------------------------------*\
  =========                 |
  \\      /  F ield         | OpenFOAM: The Open Source CFD Toolbox
   \\    /   O peration     | Website:  https://openfoam.org
    \\  /    A nd           | Version:  6.0
     \\/     M anipulation  |
\*---------------------------------------------------------------------------*/
FoamFile
{
    version     2.0;
    format      ascii;
    class       volVectorField;
    location    "6.4";
    object      U;
}
// * * * * * * * * * * * * * * * * * * * * * * * * * * * * * * * * * * * * * //

dimensions      [0 1 -1 0 0 0 0];

internalField   nonuniform List<vector> 
34500
(
(0.999997 3.37071e-06 -4.63299e-17)
(0.999971 -9.52189e-06 -8.13433e-18)
(0.999924 -3.38038e-05 1.42187e-16)
(0.999862 -7.39758e-05 -1.07625e-16)
(0.999794 -0.000132969 3.35355e-17)
(0.99973 -0.000210628 -1.01425e-16)
(0.999679 -0.000303223 -1.00944e-16)
(0.999647 -0.00040422 8.64809e-17)
(0.999642 -0.000504261 1.07201e-16)
(0.999663 -0.000593919 -6.82624e-16)
(0.999709 -0.00066365 -1.03936e-15)
(0.999773 -0.000714255 1.26631e-16)
(0.999849 -0.000727545 4.33255e-16)
(0.999978 -0.000771625 -2.06677e-16)
(0.999065 -0.00121029 7.57474e-17)
(0.999993 9.70771e-06 3.2446e-17)
(0.999947 -1.98435e-05 9.76214e-17)
(0.999863 -6.98729e-05 7.17357e-17)
(0.999754 -0.000147579 -3.02086e-16)
(0.999636 -0.000258826 -5.05651e-16)
(0.999525 -0.000402871 -5.50094e-17)
(0.999439 -0.000572891 2.55379e-16)
(0.999392 -0.000755306 -6.76873e-16)
(0.999391 -0.000933163 -1.78508e-16)
(0.99944 -0.00108777 6.80865e-16)
(0.999533 -0.00120132 1.26078e-15)
(0.999659 -0.00127444 -6.28214e-16)
(0.999794 -0.00127159 -9.82246e-16)
(1.00009 -0.00128435 -3.93584e-16)
(0.999154 -0.00163472 5.17197e-16)
(0.99999 1.6176e-05 1.04674e-17)
(0.999951 -2.50136e-05 -1.22897e-16)
(0.999882 -8.36802e-05 -1.25131e-16)
(0.999794 -0.000164013 4.5548e-16)
(0.9997 -0.000271174 -2.85977e-17)
(0.999616 -0.000404244 -1.63921e-16)
(0.999554 -0.000557191 9.77546e-17)
(0.999526 -0.000718122 3.84323e-16)
(0.999539 -0.000870803 2.43924e-19)
(0.999596 -0.000998606 -3.9256e-16)
(0.99969 -0.00108372 -7.27107e-16)
(0.999816 -0.00112866 4.12995e-16)
(0.999925 -0.0011023 2.24303e-16)
(1.00024 -0.00106911 1.63937e-16)
(0.999695 -0.00112397 -2.42971e-16)
(0.999987 2.25915e-05 -1.73543e-17)
(0.999955 -3.07895e-05 -9.02233e-18)
(0.999903 -9.84031e-05 4.83069e-17)
(0.999838 -0.000181389 -3.05257e-16)
(0.999771 -0.000283881 3.72026e-16)
(0.999713 -0.000404755 3.29725e-16)
(0.999676 -0.000539092 -3.99189e-16)
(0.999666 -0.000677593 -4.19575e-16)
(0.99969 -0.00080601 4.34575e-16)
(0.99975 -0.000911286 -4.69988e-16)
(0.99984 -0.000977334 -2.44087e-16)
(0.999959 -0.00100924 -3.84658e-16)
(1.00004 -0.000986708 5.41038e-16)
(1.00032 -0.000950069 -4.78696e-17)
(0.999981 -0.00099129 2.13682e-17)
(0.999982 2.93066e-05 -1.70431e-17)
(0.999951 -3.76134e-05 1.53292e-16)
(0.999902 -0.00011871 6.9535e-17)
(0.999843 -0.000213719 1.69683e-16)
(0.999784 -0.000326348 4.67207e-17)
(0.999736 -0.000454909 -1.58145e-16)
(0.999709 -0.0005943 1.02451e-16)
(0.999709 -0.000735736 2.66091e-16)
(0.999742 -0.000865237 -4.17295e-16)
(0.999809 -0.000971256 -2.30725e-16)
(0.999904 -0.00103804 1.00518e-15)
(1.00003 -0.00107145 6.33128e-16)
(1.00011 -0.00105805 -2.89013e-16)
(1.00036 -0.00102024 5.90588e-16)
(1.00013 -0.00106533 -5.85291e-16)
(0.999975 3.65702e-05 1.83516e-17)
(0.999943 -4.41504e-05 -9.47958e-17)
(0.999894 -0.000139969 -1.86288e-16)
(0.999836 -0.000249808 -5.29158e-17)
(0.999779 -0.000377057 1.09377e-16)
(0.999735 -0.000519315 -1.08779e-16)
(0.999715 -0.000670582 1.48074e-16)
(0.999724 -0.000821543 1.31089e-16)
(0.999766 -0.000957668 2.90759e-16)
(0.999845 -0.00106802 -1.00151e-16)
(0.99995 -0.00113665 2.87513e-18)
(1.00009 -0.0011685 -3.88623e-16)
(1.00018 -0.00115384 1.8274e-17)
(1.0004 -0.00110009 -4.67632e-16)
(1.00026 -0.00108223 7.39153e-17)
(0.999968 4.43874e-05 3.25538e-18)
(0.999934 -4.99857e-05 -3.55824e-17)
(0.999888 -0.000159802 -2.90119e-17)
(0.999833 -0.000283065 1.75676e-16)
(0.999782 -0.000422732 -2.20352e-16)
(0.999745 -0.000575854 2.75301e-16)
(0.999734 -0.000735588 -6.18854e-16)
(0.999753 -0.000892069 -3.69586e-16)
(0.999807 -0.00103035 -1.51473e-16)
(0.999896 -0.0011402 6.70701e-16)
(1.00001 -0.00120595 -7.67398e-16)
(1.00016 -0.0012311 2.97625e-16)
(1.00026 -0.00120922 4.55304e-16)
(1.00046 -0.00113581 -9.56323e-17)
(1.00039 -0.00105646 -1.20358e-16)
(0.999959 5.2714e-05 1.51159e-17)
(0.999926 -5.53763e-05 3.22814e-17)
(0.999883 -0.000178742 2.50218e-17)
(0.999834 -0.000314419 -1.50811e-16)
(0.999791 -0.000464893 3.28719e-16)
(0.999763 -0.000626917 -1.39519e-16)
(0.999761 -0.000793 2.0142e-16)
(0.999792 -0.000952824 -1.46177e-16)
(0.999856 -0.00109112 3.97275e-16)
(0.999956 -0.00119827 1.776e-16)
(1.00008 -0.00125921 2.44504e-16)
(1.00024 -0.00127598 -5.64402e-17)
(1.00035 -0.00124534 -5.0373e-16)
(1.00053 -0.00115422 1.13591e-15)
(1.00052 -0.00103318 1.85981e-16)
(0.999948 6.15445e-05 -1.12155e-17)
(0.999916 -6.05106e-05 9.89375e-17)
(0.999877 -0.00019749 1.50756e-16)
(0.999835 -0.000345549 1.11877e-16)
(0.999799 -0.000506683 -4.88452e-16)
(0.99978 -0.000677473 1.40895e-16)
(0.999789 -0.000849891 3.20532e-16)
(0.99983 -0.00101316 7.72013e-16)
(0.999906 -0.00115158 -3.85141e-16)
(1.00002 -0.00125583 8.99743e-17)
(1.00015 -0.00131136 4.48649e-16)
(1.00032 -0.00131879 -3.23358e-16)
(1.00044 -0.0012777 -1.53794e-16)
(1.00062 -0.00116956 -3.80106e-16)
(1.00065 -0.00101521 8.37916e-17)
(0.999936 7.08827e-05 4.06835e-17)
(0.999905 -6.53903e-05 -8.97202e-17)
(0.99987 -0.000216103 8.85005e-18)
(0.999834 -0.000376585 -1.10139e-16)
(0.999807 -0.000548274 4.10458e-16)
(0.999798 -0.000727572 7.95718e-17)
(0.999818 -0.000905995 2.70096e-16)
(0.99987 -0.0010724 -5.7275e-16)
(0.999957 -0.00121061 4.15623e-17)
(1.00008 -0.00131144 -7.86299e-17)
(1.00022 -0.00136079 -1.39555e-16)
(1.0004 -0.00135801 4.40864e-17)
(1.00053 -0.00130542 5.91443e-16)
(1.0007 -0.00118165 -8.02918e-16)
(1.00077 -0.00100158 -2.68649e-16)
(0.999923 8.07081e-05 -2.62204e-17)
(0.999893 -7.00039e-05 3.52432e-17)
(0.999862 -0.000234503 -1.47486e-16)
(0.999833 -0.00040731 2.49862e-16)
(0.999815 -0.000589209 -3.61422e-16)
(0.999817 -0.000776336 -3.0294e-16)
(0.999848 -0.00095984 -3.3869e-16)
(0.999912 -0.00112841 3.90968e-17)
(1.00001 -0.00126564 -8.13645e-17)
(1.00014 -0.00136244 -4.24223e-16)
(1.00029 -0.00140536 -7.20565e-16)
(1.00048 -0.00139276 2.85548e-16)
(1.00063 -0.00132971 -3.2796e-16)
(1.0008 -0.00119398 9.05564e-16)
(1.00089 -0.000997554 5.3587e-17)
(0.999909 9.09822e-05 -2.45521e-17)
(0.999879 -7.43791e-05 -1.04213e-16)
(0.999853 -0.000252762 1.50696e-16)
(0.999831 -0.000437917 -2.34082e-16)
(0.999823 -0.000629902 7.68418e-17)
(0.999836 -0.000824466 4.54001e-16)
(0.999879 -0.00101244 5.53693e-17)
(0.999955 -0.00118258 -6.73146e-17)
(1.00006 -0.00131848 1.81453e-16)
(1.00021 -0.00141139 -1.56816e-16)
(1.00037 -0.00144861 -9.50068e-17)
(1.00056 -0.0014278 -6.67247e-17)
(1.00072 -0.00135642 -2.86809e-16)
(1.00089 -0.00121265 -6.2046e-16)
(1.00099 -0.00100569 1.2387e-17)
(0.999892 0.000101655 -2.1764e-18)
(0.999865 -7.85575e-05 1.40469e-16)
(0.999842 -0.000271016 -2.2146e-16)
(0.999828 -0.000468779 8.33813e-17)
(0.99983 -0.000671154 -9.35296e-17)
(0.999854 -0.00087338 -1.54699e-16)
(0.999909 -0.00106595 -3.88789e-17)
(0.999997 -0.00123778 3.64895e-16)
(1.00012 -0.00137275 -6.29961e-16)
(1.00027 -0.0014625 4.20057e-16)
(1.00044 -0.00149525 2.20379e-16)
(1.00064 -0.00146799 1.83932e-16)
(1.00081 -0.00138985 7.48717e-16)
(1.00098 -0.00123998 7.29018e-16)
(1.00109 -0.00102291 5.47305e-16)
(0.999875 0.000112674 8.30234e-18)
(0.999848 -8.25595e-05 5.28663e-17)
(0.99983 -0.000289324 1.76018e-16)
(0.999822 -0.000500083 5.57533e-17)
(0.999833 -0.000713406 1.70583e-16)
(0.999868 -0.00092393 1.67996e-16)
(0.999935 -0.00112172 -1.18428e-17)
(1.00004 -0.00129587 4.92763e-17)
(1.00017 -0.00143063 9.37322e-16)
(1.00033 -0.00151808 -1.13857e-16)
(1.00051 -0.00154734 5.41874e-16)
(1.00072 -0.00151468 -7.38529e-16)
(1.0009 -0.00142996 1.36846e-16)
(1.00108 -0.00127361 -1.343e-15)
(1.0012 -0.00104387 -6.15073e-16)
(0.999855 0.000123977 9.93863e-18)
(0.99983 -8.63976e-05 -1.17659e-16)
(0.999815 -0.000307665 1.54752e-16)
(0.999814 -0.000531781 -2.24037e-16)
(0.999833 -0.00075661 1.56786e-16)
(0.999879 -0.000976135 2.07123e-17)
(0.999958 -0.00117991 1.94945e-16)
(1.00007 -0.00135708 -2.59906e-16)
(1.00021 -0.0014923 -8.38692e-16)
(1.00039 -0.001578 2.49155e-16)
(1.00058 -0.00160411 -5.59901e-16)
(1.00079 -0.00156613 1.12749e-16)
(1.00098 -0.00147385 -4.89815e-16)
(1.00117 -0.00130925 2.65352e-16)
(1.0013 -0.00106401 -1.08262e-16)
(0.999835 0.000135499 3.32347e-17)
(0.999811 -9.00822e-05 7.18725e-17)
(0.999799 -0.000325978 -3.58865e-16)
(0.999804 -0.000563686 2.88297e-16)
(0.999831 -0.000800395 -2.79864e-16)
(0.999887 -0.00102944 -3.72838e-16)
(0.999977 -0.00123976 -3.82791e-16)
(1.0001 -0.00142049 3.37466e-16)
(1.00026 -0.00155655 7.1857e-16)
(1.00044 -0.00164061 1.62947e-16)
(1.00064 -0.00166328 9.46572e-17)
(1.00087 -0.0016193 7.00422e-17)
(1.00107 -0.00151796 -7.32308e-16)
(1.00126 -0.00134313 6.4318e-17)
(1.00141 -0.00108104 6.31288e-16)
(0.999813 0.000147166 -8.96494e-17)
(0.99979 -9.36392e-05 -9.2378e-17)
(0.999782 -0.000344212 3.42763e-17)
(0.999792 -0.00059559 -2.6426e-16)
(0.999828 -0.000844299 -1.79611e-17)
(0.999893 -0.00108305 4.81477e-16)
(0.999995 -0.00130017 5.50498e-17)
(1.00013 -0.00148463 3.03961e-16)
(1.0003 -0.00162155 -6.02602e-16)
(1.0005 -0.0017037 -3.09519e-16)
(1.00071 -0.00172227 4.44352e-16)
(1.00094 -0.00167134 -1.48965e-16)
(1.00115 -0.00155963 4.83276e-16)
(1.00136 -0.00137336 7.48588e-16)
(1.00153 -0.00109517 -5.97028e-17)
(0.999789 0.000158908 2.80851e-17)
(0.999768 -9.71027e-05 1.14731e-17)
(0.999763 -0.000362339 1.1559e-16)
(0.99978 -0.000627325 2.25804e-18)
(0.999823 -0.00088792 9.88281e-17)
(0.999899 -0.00113626 -2.89524e-16)
(1.00001 -0.00136007 5.98e-16)
(1.00016 -0.00154812 -1.53418e-16)
(1.00034 -0.00168565 6.52181e-16)
(1.00055 -0.00176545 -3.4116e-16)
(1.00078 -0.00177921 -5.43158e-16)
(1.00102 -0.00172061 5.24148e-16)
(1.00124 -0.00159797 -8.83493e-16)
(1.00145 -0.00140022 -1.30075e-15)
(1.00164 -0.00110841 -3.28789e-16)
(0.999764 0.000170649 3.12698e-18)
(0.999745 -0.000100523 1.94945e-17)
(0.999744 -0.000380376 -3.12069e-17)
(0.999766 -0.00065883 1.58617e-16)
(0.999819 -0.000931053 1.08784e-16)
(0.999905 -0.00118865 -4.26554e-17)
(1.00003 -0.00141882 -3.60452e-16)
(1.00019 -0.00161012 -3.47454e-16)
(1.00038 -0.00174793 -2.34842e-16)
(1.00061 -0.00182502 4.32723e-16)
(1.00084 -0.00183358 3.35253e-16)
(1.00109 -0.00176714 -4.9283e-16)
(1.00133 -0.00163386 1.09445e-15)
(1.00155 -0.00142564 1.37058e-15)
(1.00174 -0.00112331 4.62526e-17)
(0.999738 0.000182327 3.57564e-17)
(0.99972 -0.000103953 -4.75879e-17)
(0.999723 -0.000398374 2.29375e-16)
(0.999752 -0.000690151 -4.56804e-17)
(0.999814 -0.000973725 -1.74336e-16)
(0.999911 -0.00124021 7.39054e-17)
(1.00005 -0.00147637 -1.29652e-16)
(1.00022 -0.0016706 2.93357e-16)
(1.00043 -0.00180846 7.71094e-17)
(1.00066 -0.00188274 5.38992e-17)
(1.00091 -0.00188616 -2.57113e-16)
(1.00117 -0.0018123 3.41237e-16)
(1.00142 -0.00166929 1.73876e-16)
(1.00164 -0.00145203 1.55268e-16)
(1.00185 -0.0011417 3.92872e-16)
(0.999711 0.000193885 -1.83819e-17)
(0.999694 -0.000107449 2.72415e-17)
(0.999701 -0.000416416 -3.71816e-16)
(0.999737 -0.000721427 -2.37867e-16)
(0.999808 -0.00101617 3.29194e-16)
(0.999916 -0.0012913 -8.91151e-17)
(1.00007 -0.00153321 5.20533e-16)
(1.00025 -0.00173023 -1.41318e-16)
(1.00047 -0.00186816 -7.50675e-18)
(1.00072 -0.00193984 -1.49879e-16)
(1.00098 -0.00193855 3.84793e-16)
(1.00125 -0.00185805 -2.42489e-16)
(1.00151 -0.00170637 -7.96876e-16)
(1.00174 -0.00148129 -1.89556e-16)
(1.00195 -0.00116411 -4.48753e-16)
(0.999683 0.000205283 2.47448e-17)
(0.999667 -0.000111054 1.12548e-16)
(0.999678 -0.000434581 3.35122e-16)
(0.999721 -0.000752825 2.60072e-16)
(0.999801 -0.00105871 -3.20565e-17)
(0.999921 -0.00134244 -1.30213e-16)
(1.00008 -0.0015901 -5.76251e-16)
(1.00028 -0.00179002 -6.69937e-17)
(1.00051 -0.00192828 -3.42227e-16)
(1.00077 -0.00199781 1.10829e-16)
(1.00105 -0.00199241 -7.05296e-16)
(1.00133 -0.00190605 3.40155e-16)
(1.00159 -0.00174647 1.14801e-15)
(1.00184 -0.00151406 -8.84508e-16)
(1.00205 -0.00118977 5.23158e-16)
(0.999653 0.000216494 -1.99528e-17)
(0.999638 -0.000114804 -1.58359e-16)
(0.999654 -0.000452937 -1.91798e-16)
(0.999703 -0.000784492 -9.56539e-17)
(0.999793 -0.00110162 -6.12565e-17)
(0.999924 -0.00139412 8.40916e-17)
(1.0001 -0.00164777 -3.21999e-17)
(1.00031 -0.0018509 -4.42247e-16)
(1.00056 -0.00198991 -1.30156e-16)
(1.00083 -0.0020578 -3.27682e-17)
(1.00111 -0.0020488 6.41956e-16)
(1.00141 -0.00195706 1.07345e-16)
(1.00168 -0.00178982 -9.54455e-16)
(1.00193 -0.00154981 5.06141e-16)
(1.00215 -0.00121718 -1.0126e-16)
(0.999623 0.000227509 1.80239e-17)
(0.999608 -0.000118715 9.311e-17)
(0.999627 -0.000471514 9.23129e-17)
(0.999684 -0.000816501 1.79515e-16)
(0.999783 -0.00114508 -9.78008e-17)
(0.999924 -0.00144663 -2.75074e-17)
(1.00011 -0.00170662 1.98733e-16)
(1.00034 -0.00191339 2.96941e-16)
(1.00059 -0.00205358 -2.13969e-17)
(1.00088 -0.00212023 -3.5842e-16)
(1.00118 -0.00210788 -2.75465e-16)
(1.00148 -0.00201085 -4.84103e-16)
(1.00177 -0.00183565 2.03017e-17)
(1.00203 -0.00158722 2.62078e-16)
(1.00225 -0.00124486 -1.58306e-16)
(0.999591 0.00023833 -9.63731e-18)
(0.999577 -0.000122793 -5.51001e-17)
(0.9996 -0.000490314 1.40194e-16)
(0.999662 -0.000848859 1.47026e-17)
(0.99977 -0.0011891 -1.24498e-16)
(0.999923 -0.0015 1.00389e-16)
(1.00012 -0.00176671 -4.79513e-17)
(1.00036 -0.0019775 2.73788e-16)
(1.00063 -0.0021192 5.0582e-16)
(1.00093 -0.00218481 7.85418e-17)
(1.00124 -0.00216908 2.37715e-16)
(1.00156 -0.00206645 2.41892e-16)
(1.00185 -0.00188272 5.96843e-17)
(1.00212 -0.00162494 -5.39326e-16)
(1.00236 -0.00127175 1.30506e-16)
(0.999558 0.000248976 1.29093e-17)
(0.999544 -0.00012703 1.1605e-17)
(0.99957 -0.000509313 -2.86413e-16)
(0.999639 -0.000881506 -1.25116e-16)
(0.999756 -0.00123357 1.75891e-16)
(0.999919 -0.00155405 -2.74544e-17)
(1.00013 -0.00182776 1.83605e-16)
(1.00038 -0.00204284 -2.43843e-16)
(1.00067 -0.00218621 1.38989e-16)
(1.00098 -0.00225076 1.15581e-16)
(1.0013 -0.00223142 1.21979e-16)
(1.00163 -0.00212274 1.55169e-16)
(1.00194 -0.00192989 2.15594e-16)
(1.00222 -0.0016621 3.03202e-17)
(1.00246 -0.00129784 7.67703e-17)
(0.999524 0.000259468 -3.97186e-17)
(0.999509 -0.000131419 1.0509e-16)
(0.999539 -0.000528483 1.64453e-16)
(0.999615 -0.000914366 -1.05261e-16)
(0.99974 -0.00127833 -6.8427e-17)
(0.999914 -0.00160852 3.89437e-17)
(1.00014 -0.00188937 -2.00022e-16)
(1.0004 -0.00210885 -1.30869e-16)
(1.0007 -0.0022539 -1.71877e-16)
(1.00103 -0.00231728 2.73136e-16)
(1.00137 -0.00229402 -3.7884e-16)
(1.00171 -0.00217889 2.95806e-16)
(1.00203 -0.00197661 1.44802e-16)
(1.00232 -0.00169858 5.41465e-16)
(1.00257 -0.00132368 -4.94492e-16)
(0.999489 0.000269838 1.67597e-17)
(0.999473 -0.000135947 -7.90991e-17)
(0.999507 -0.000547793 5.79097e-17)
(0.999589 -0.000947368 1.28071e-16)
(0.999723 -0.00132325 -8.8784e-17)
(0.999908 -0.00166317 -1.50036e-16)
(1.00014 -0.00195119 -7.10306e-17)
(1.00042 -0.00217507 9.78776e-17)
(1.00074 -0.00232175 -4.47663e-16)
(1.00108 -0.00238382 6.60417e-17)
(1.00143 -0.00235643 2.51714e-16)
(1.00178 -0.00223467 -7.03275e-16)
(1.00211 -0.00202296 1.41923e-16)
(1.00242 -0.00173488 2.17193e-17)
(1.00267 -0.00134995 3.64652e-16)
(0.999452 0.000280115 -6.37145e-18)
(0.999436 -0.000140606 9.6944e-17)
(0.999473 -0.000567234 -9.3653e-17)
(0.999561 -0.000980485 -5.81234e-17)
(0.999704 -0.00136827 -9.26937e-17)
(0.999901 -0.0017179 -4.90149e-17)
(1.00015 -0.00201308 -1.05676e-16)
(1.00044 -0.00224134 7.5441e-17)
(1.00077 -0.00238959 2.90104e-17)
(1.00113 -0.00245029 -3.09938e-16)
(1.00149 -0.00241873 -3.69654e-16)
(1.00186 -0.0022904 4.09923e-16)
(1.0022 -0.00206955 -3.57614e-16)
(1.00252 -0.0017718 -1.13764e-16)
(1.00278 -0.00137753 -1.1168e-17)
(0.999414 0.000290335 -1.92796e-17)
(0.999397 -0.000145384 -4.47835e-17)
(0.999438 -0.000586805 3.16273e-17)
(0.999533 -0.00101373 2.25352e-16)
(0.999685 -0.00141341 3.76308e-16)
(0.999893 -0.00177276 3.07183e-16)
(1.00016 -0.00207512 3.35588e-16)
(1.00046 -0.00230777 -2.14071e-16)
(1.00081 -0.00245762 6.89494e-20)
(1.00118 -0.00251703 2.3211e-16)
(1.00156 -0.00248143 4.56953e-17)
(1.00194 -0.00234676 2.5188e-16)
(1.00229 -0.00211711 2.0229e-16)
(1.00261 -0.00181006 -5.29536e-16)
(1.00288 -0.0014066 -3.4682e-16)
(0.999375 0.000300526 9.91957e-18)
(0.999358 -0.000150277 -8.09421e-17)
(0.999402 -0.000606521 -1.61894e-16)
(0.999503 -0.00104715 -1.589e-16)
(0.999665 -0.00145879 1.46031e-17)
(0.999885 -0.00182793 -1.73424e-16)
(1.00016 -0.00213755 -3.77561e-16)
(1.00048 -0.00237471 2.88147e-16)
(1.00084 -0.00252629 2.3432e-16)
(1.00123 -0.00258457 -5.16582e-16)
(1.00162 -0.00254515 4.23648e-16)
(1.00201 -0.00240439 -3.08726e-16)
(1.00238 -0.00216623 -1.42226e-16)
(1.00271 -0.00184999 -1.24247e-16)
(1.00299 -0.00143705 1.47758e-16)
(0.999334 0.000310721 3.776e-17)
(0.999316 -0.000155269 1.73679e-17)
(0.999364 -0.000626393 8.75617e-17)
(0.999472 -0.0010808 4.06711e-17)
(0.999643 -0.00150452 4.7846e-17)
(0.999874 -0.00188361 2.99935e-16)
(1.00016 -0.00220067 -1.35508e-16)
(1.0005 -0.00244253 1.48056e-16)
(1.00088 -0.00259605 8.49964e-17)
(1.00128 -0.00265343 5.92242e-17)
(1.00169 -0.00261037 1.97253e-16)
(1.00209 -0.0024637 -4.20396e-17)
(1.00247 -0.00221707 9.33805e-18)
(1.00281 -0.00189146 8.66642e-16)
(1.00309 -0.00146836 2.74905e-18)
(0.999292 0.000320944 -3.66515e-17)
(0.999274 -0.000160352 -1.26574e-17)
(0.999325 -0.000646437 5.72472e-17)
(0.999439 -0.00111473 -1.74529e-16)
(0.99962 -0.00155071 -2.79524e-16)
(0.999863 -0.00193996 -2.678e-16)
(1.00017 -0.00226471 2.26882e-16)
(1.00052 -0.00251152 -8.297e-17)
(1.00091 -0.00266721 9.67354e-18)
(1.00132 -0.00272386 -5.01044e-18)
(1.00175 -0.00267729 -2.72461e-16)
(1.00217 -0.00252468 -2.46151e-16)
(1.00256 -0.00226943 -1.58639e-16)
(1.00291 -0.00193402 2.40536e-17)
(1.0032 -0.00149999 -5.41288e-17)
(0.999247 0.000331222 -1.82976e-17)
(0.999229 -0.000165506 4.84232e-17)
(0.999284 -0.000666651 4.7638e-17)
(0.999405 -0.00114896 7.75165e-17)
(0.999595 -0.00159739 1.06016e-16)
(0.99985 -0.00199706 1.67518e-18)
(1.00017 -0.00232977 2.26781e-16)
(1.00053 -0.00258177 -5.05617e-16)
(1.00094 -0.00273981 2.57795e-16)
(1.00137 -0.00279585 2.62869e-16)
(1.00181 -0.00274574 -3.75969e-16)
(1.00224 -0.00258703 7.01894e-16)
(1.00264 -0.00232286 3.6927e-16)
(1.00301 -0.00197715 -6.87477e-16)
(1.00331 -0.00153156 -2.04115e-16)
(0.999202 0.00034157 3.78382e-17)
(0.999184 -0.000170718 2.93788e-17)
(0.999242 -0.000687035 4.58735e-18)
(0.999369 -0.0011835 -3.47492e-17)
(0.999568 -0.00164457 2.01559e-17)
(0.999835 -0.00205488 2.84359e-16)
(1.00016 -0.00239579 -4.58304e-17)
(1.00055 -0.00265319 3.24468e-16)
(1.00097 -0.00281371 -4.80054e-17)
(1.00142 -0.00286915 -2.9076e-16)
(1.00187 -0.00281539 6.01476e-16)
(1.00232 -0.00265033 -3.60829e-16)
(1.00273 -0.00237692 -4.88204e-16)
(1.00311 -0.00202051 2.06184e-16)
(1.00341 -0.00156303 3.44003e-16)
(0.999154 0.000352007 -3.14657e-17)
(0.999137 -0.000175969 -1.32639e-17)
(0.999198 -0.000707577 -1.72949e-16)
(0.999332 -0.00121833 -8.45152e-17)
(0.99954 -0.00169222 5.20445e-17)
(0.999819 -0.00211335 -2.87069e-16)
(1.00016 -0.00246263 -8.43793e-17)
(1.00056 -0.00272557 2.8279e-16)
(1.001 -0.00288862 -2.39126e-16)
(1.00146 -0.00294341 7.01117e-17)
(1.00193 -0.00288584 -3.34925e-16)
(1.00239 -0.00271419 1.05321e-17)
(1.00282 -0.00243131 2.64248e-16)
(1.00321 -0.00206397 1.38918e-16)
(1.00352 -0.00159458 -5.40243e-17)
(0.999105 0.00036254 3.00173e-17)
(0.999088 -0.00018125 -9.73845e-17)
(0.999153 -0.000728274 8.17415e-17)
(0.999293 -0.00125344 5.34959e-17)
(0.999511 -0.00174029 -4.03319e-17)
(0.999802 -0.00217239 -1.72436e-16)
(1.00016 -0.00253017 5.22779e-17)
(1.00057 -0.00279871 -1.29649e-16)
(1.00103 -0.0029643 -2.18564e-16)
(1.00151 -0.00301839 -2.73103e-17)
(1.00199 -0.00295689 -4.84011e-16)
(1.00247 -0.00277851 4.95151e-16)
(1.00291 -0.00248608 3.84637e-17)
(1.00331 -0.00210777 -7.93061e-17)
(1.00363 -0.00162662 -7.70021e-18)
(0.999054 0.000373179 -3.68174e-17)
(0.999038 -0.000186547 1.00251e-16)
(0.999107 -0.000749124 -2.30275e-17)
(0.999253 -0.00128883 -2.09754e-16)
(0.999481 -0.00178876 -9.9933e-17)
(0.999784 -0.00223194 1.16079e-16)
(1.00016 -0.00259831 -1.70309e-16)
(1.00058 -0.00287251 -1.90746e-16)
(1.00106 -0.00304064 3.24566e-16)
(1.00155 -0.003094 1.12915e-16)
(1.00206 -0.00302854 5.07865e-16)
(1.00255 -0.00284338 -3.81845e-16)
(1.003 -0.00254146 1.37136e-16)
(1.00341 -0.00215225 -1.54273e-16)
(1.00374 -0.00165948 5.13343e-18)
(0.999002 0.000383922 2.27879e-17)
(0.998986 -0.000191861 -5.80134e-17)
(0.999059 -0.000770137 7.20569e-17)
(0.999212 -0.00132453 3.1253e-16)
(0.999449 -0.00183766 1.32615e-16)
(0.999764 -0.00229203 8.22669e-17)
(1.00015 -0.00266707 3.38271e-16)
(1.0006 -0.00294701 1.60734e-16)
(1.00108 -0.00311773 -2.64699e-16)
(1.0016 -0.00317039 4.50927e-16)
(1.00212 -0.003101 2.507e-16)
(1.00262 -0.00290913 -2.12103e-16)
(1.00309 -0.00259783 -4.0548e-16)
(1.00351 -0.00219781 -1.57435e-16)
(1.00384 -0.00169343 6.06615e-17)
(0.998948 0.000394774 4.679e-18)
(0.998933 -0.000197186 -1.23598e-16)
(0.999009 -0.000791327 -9.17174e-17)
(0.999169 -0.00136055 -2.15194e-16)
(0.999416 -0.00188706 3.45641e-17)
(0.999744 -0.00235275 -3.34086e-16)
(1.00014 -0.00273658 -3.59125e-16)
(1.00061 -0.00302235 -1.44438e-16)
(1.00111 -0.00319574 3.07659e-16)
(1.00164 -0.0032478 -3.26735e-16)
(1.00218 -0.00317458 1.15502e-16)
(1.0027 -0.0029761 2.14642e-16)
(1.00318 -0.00265549 3.25677e-16)
(1.00361 -0.00224465 1.98579e-16)
(1.00395 -0.00172841 1.68292e-17)
(0.998893 0.000405729 3.2889e-17)
(0.998878 -0.000202529 2.0201e-16)
(0.998958 -0.000812719 9.40118e-17)
(0.999125 -0.00139697 1.80654e-16)
(0.999382 -0.00193702 1.08232e-16)
(0.999722 -0.00241422 4.56231e-17)
(1.00014 -0.00280701 5.26223e-17)
(1.00062 -0.00309875 -1.20886e-16)
(1.00114 -0.00327496 -1.22565e-16)
(1.00169 -0.00332654 1.43601e-17)
(1.00224 -0.00324959 -7.89242e-16)
(1.00278 -0.00304456 -3.08131e-16)
(1.00327 -0.00271464 3.23834e-16)
(1.00371 -0.00229281 -7.2163e-17)
(1.00406 -0.00176428 -1.99471e-16)
(0.998836 0.000416787 -4.42046e-17)
(0.998822 -0.000207892 -1.29452e-16)
(0.998905 -0.000834329 -1.85901e-16)
(0.999079 -0.00143382 6.10667e-17)
(0.999346 -0.00198764 -2.05337e-16)
(0.999699 -0.00247655 3.82462e-17)
(1.00013 -0.00287851 -4.73347e-17)
(1.00062 -0.00317642 -8.63916e-18)
(1.00116 -0.00335559 -1.46457e-16)
(1.00173 -0.0034068 -7.67771e-17)
(1.0023 -0.0033262 2.71822e-17)
(1.00285 -0.00311459 2.67596e-16)
(1.00336 -0.00277524 -1.34803e-16)
(1.00381 -0.00234212 2.6591e-16)
(1.00416 -0.00180074 9.38023e-17)
(0.998778 0.000427945 2.36258e-17)
(0.998764 -0.000213285 1.24014e-16)
(0.998851 -0.000856182 2.36181e-16)
(0.999031 -0.00147113 -6.82383e-17)
(0.999308 -0.00203897 -1.6554e-17)
(0.999674 -0.00253985 2.50624e-16)
(1.00012 -0.0029512 2.13085e-16)
(1.00063 -0.00325547 -1.45984e-16)
(1.00119 -0.00343776 3.91037e-16)
(1.00177 -0.00348869 3.54685e-16)
(1.00236 -0.00340443 3.77054e-16)
(1.00293 -0.00318614 -1.74047e-17)
(1.00345 -0.00283713 -2.98842e-16)
(1.00392 -0.00239237 -3.13617e-16)
(1.00427 -0.0018376 -3.01652e-17)
(0.998718 0.000439201 -2.02446e-17)
(0.998705 -0.000218714 -6.54889e-17)
(0.998795 -0.000878288 -1.95757e-16)
(0.998982 -0.00150894 1.25973e-16)
(0.999269 -0.00209105 1.20864e-16)
(0.999648 -0.00260413 -1.67809e-16)
(1.00011 -0.00302511 -8.47078e-17)
(1.00064 -0.00333592 8.37357e-18)
(1.00121 -0.00352144 -1.73786e-16)
(1.00181 -0.00357214 -3.03897e-16)
(1.00242 -0.00348416 -5.60575e-16)
(1.003 -0.00325902 6.05198e-17)
(1.00354 -0.00290009 3.64866e-16)
(1.00402 -0.00244331 3.30111e-16)
(1.00438 -0.0018747 -6.93101e-17)
(0.998657 0.000450551 -1.61101e-17)
(0.998643 -0.000224193 -1.3173e-17)
(0.998737 -0.000900661 1.71307e-16)
(0.998931 -0.00154725 -1.61621e-16)
(0.999228 -0.00214387 -3.1935e-16)
(0.99962 -0.0026694 1.54967e-16)
(1.0001 -0.0031002 8.79274e-17)
(1.00064 -0.00341772 4.07099e-16)
(1.00123 -0.00360655 5.81965e-17)
(1.00186 -0.003657 2.8296e-16)
(1.00248 -0.0035652 8.40012e-16)
(1.00308 -0.00333302 -2.30368e-16)
(1.00363 -0.00296392 -9.77234e-17)
(1.00412 -0.00249483 -1.15254e-17)
(1.00449 -0.00191207 -2.76041e-17)
(0.998595 0.000461995 4.50548e-17)
(0.998581 -0.000229734 4.92158e-17)
(0.998678 -0.000923308 -1.47332e-16)
(0.998879 -0.00158605 1.36854e-16)
(0.999186 -0.00219742 -9.2105e-17)
(0.999591 -0.00273561 -2.96504e-16)
(1.00008 -0.00317641 1.30287e-17)
(1.00064 -0.00350075 -3.50162e-17)
(1.00126 -0.00369295 -2.15835e-16)
(1.0019 -0.00374313 1.81898e-16)
(1.00254 -0.00364741 -7.84092e-16)
(1.00315 -0.003408 -1.42654e-17)
(1.00372 -0.00302855 -1.74558e-16)
(1.00422 -0.00254693 3.25781e-17)
(1.0046 -0.00194981 -8.17732e-17)
(0.998531 0.000473525 -1.1497e-17)
(0.998516 -0.000235355 -1.17267e-17)
(0.998617 -0.000946245 2.03869e-17)
(0.998824 -0.00162535 -1.52188e-16)
(0.999142 -0.00225168 -2.73208e-17)
(0.99956 -0.0028027 3.62043e-16)
(1.00007 -0.00325367 -2.63826e-16)
(1.00065 -0.00358493 -3.2673e-16)
(1.00128 -0.00378054 3.49789e-16)
(1.00194 -0.00383042 -3.16412e-16)
(1.00259 -0.0037307 4.00349e-16)
(1.00323 -0.00348395 3.78618e-16)
(1.00381 -0.00309402 2.72551e-16)
(1.00433 -0.00259973 -1.81202e-16)
(1.00472 -0.00198813 -6.16343e-17)
(0.998465 0.000485142 -1.23991e-17)
(0.99845 -0.000241073 -7.19549e-17)
(0.998554 -0.000969483 -9.68833e-17)
(0.998769 -0.00166515 7.11007e-17)
(0.999096 -0.00230662 1.80185e-16)
(0.999528 -0.00287067 6.3194e-17)
(1.00005 -0.00333193 2.45189e-16)
(1.00065 -0.00367021 5.3584e-17)
(1.0013 -0.00386927 -4.59896e-16)
(1.00198 -0.00391885 1.60898e-16)
(1.00265 -0.0038151 -2.27377e-16)
(1.00331 -0.00356094 -1.88789e-16)
(1.0039 -0.00316045 -2.54151e-16)
(1.00443 -0.00265337 4.013e-17)
(1.00483 -0.00202714 1.48857e-16)
(0.998398 0.000496834 -1.90316e-17)
(0.998382 -0.000246911 3.42725e-17)
(0.99849 -0.000993043 4.13742e-17)
(0.998711 -0.00170547 -1.4251e-16)
(0.999049 -0.00236228 6.95408e-17)
(0.999494 -0.00293951 -2.10973e-16)
(1.00003 -0.0034112 -2.58413e-17)
(1.00065 -0.00375661 3.17231e-16)
(1.00132 -0.00395919 -2.02311e-16)
(1.00202 -0.00400851 -2.67381e-16)
(1.00271 -0.00390071 2.296e-16)
(1.00338 -0.00363911 -6.8131e-17)
(1.00399 -0.003228 -7.20156e-16)
(1.00453 -0.00270801 7.34213e-17)
(1.00494 -0.00206695 1.07079e-16)
(0.99833 0.000508598 -9.79592e-18)
(0.998313 -0.00025289 3.34298e-17)
(0.998424 -0.00101695 1.25934e-17)
(0.998652 -0.00174632 1.89971e-17)
(0.999001 -0.00241867 1.20004e-16)
(0.999459 -0.00300925 6.6677e-17)
(1.00002 -0.00349154 -2.19585e-16)
(1.00065 -0.00384419 -2.00491e-17)
(1.00134 -0.00405039 6.05961e-16)
(1.00206 -0.0040995 -1.9432e-16)
(1.00277 -0.0039877 -5.7124e-18)
(1.00346 -0.00371863 2.87235e-17)
(1.00408 -0.00329681 2.77216e-17)
(1.00464 -0.00276374 -5.08366e-17)
(1.00505 -0.00210754 1.69028e-17)
(0.99826 0.000520424 2.58143e-17)
(0.998242 -0.000259033 -6.81905e-17)
(0.998356 -0.00104122 -7.78839e-17)
(0.998592 -0.00178775 1.49432e-19)
(0.998951 -0.00247583 -1.81203e-16)
(0.999423 -0.00307997 -2.89343e-17)
(0.999996 -0.00357302 4.2637e-17)
(1.00065 -0.00393308 -4.82749e-17)
(1.00136 -0.004143 -4.10253e-16)
(1.00209 -0.00419199 5.46149e-16)
(1.00283 -0.00407619 -3.1162e-17)
(1.00353 -0.00379961 -5.70436e-17)
(1.00418 -0.00336697 3.3608e-16)
(1.00474 -0.0028206 -3.76633e-16)
(1.00517 -0.00214892 7.93702e-18)
(0.998188 0.000532303 2.73899e-18)
(0.998169 -0.000265358 8.18051e-17)
(0.998287 -0.00106589 2.19833e-16)
(0.998529 -0.00182978 -5.54338e-17)
(0.998899 -0.00253382 1.17762e-16)
(0.999386 -0.00315172 -1.82975e-16)
(0.999975 -0.00365573 -2.19109e-16)
(1.00065 -0.00402335 5.26149e-18)
(1.00137 -0.00423713 2.38866e-16)
(1.00213 -0.00428606 -4.76681e-16)
(1.00289 -0.00416628 1.18712e-16)
(1.00361 -0.00388211 -2.06273e-17)
(1.00427 -0.00343848 2.59632e-16)
(1.00485 -0.00287853 8.01722e-17)
(1.00528 -0.00219099 -1.24625e-16)
(0.998114 0.000544223 1.05255e-18)
(0.998094 -0.000271886 -8.8786e-17)
(0.998215 -0.00109098 -1.25466e-16)
(0.998465 -0.00187245 2.07636e-17)
(0.998846 -0.00259268 -2.18782e-17)
(0.999347 -0.00322457 1.6609e-16)
(0.999953 -0.00373974 3.59744e-16)
(1.00064 -0.0041151 -3.19073e-16)
(1.00139 -0.00433285 3.62905e-16)
(1.00217 -0.00438179 3.20754e-17)
(1.00294 -0.00425801 7.11697e-17)
(1.00369 -0.00396613 -1.37415e-16)
(1.00436 -0.00351132 2.65187e-16)
(1.00496 -0.0029375 1.50183e-16)
(1.00539 -0.00223374 1.95771e-16)
(0.998038 0.000556176 -8.60829e-18)
(0.998018 -0.000278627 8.46928e-17)
(0.998142 -0.00111651 1.54538e-16)
(0.9984 -0.00191578 5.3389e-17)
(0.998791 -0.00265244 1.56146e-16)
(0.999306 -0.00329855 1.19912e-16)
(0.999929 -0.00382509 -3.23058e-16)
(1.00064 -0.00420837 6.4719e-16)
(1.00141 -0.00443021 -2.03559e-16)
(1.00221 -0.0044792 -6.77085e-17)
(1.003 -0.00435137 -2.45025e-16)
(1.00376 -0.00405165 -1.07578e-16)
(1.00445 -0.00358544 -2.95124e-16)
(1.00506 -0.00299746 -1.08662e-16)
(1.00551 -0.00227714 4.7087e-17)
(0.997961 0.000568148 -3.05704e-17)
(0.997939 -0.000285597 -9.05721e-17)
(0.998068 -0.00114249 -1.08379e-17)
(0.998332 -0.0019598 1.06209e-16)
(0.998734 -0.00271313 -1.42103e-16)
(0.999264 -0.0033737 -1.0434e-16)
(0.999904 -0.00391183 4.04265e-16)
(1.00063 -0.00430318 -1.20734e-16)
(1.00142 -0.00452922 -5.15759e-16)
(1.00224 -0.00457828 7.09739e-17)
(1.00306 -0.00444636 -1.24408e-16)
(1.00384 -0.00413867 2.30112e-16)
(1.00455 -0.00366086 3.68431e-16)
(1.00517 -0.00305847 3.27973e-16)
(1.00563 -0.00232128 -2.74396e-16)
(0.997881 0.000580135 1.83339e-18)
(0.997859 -0.0002928 -1.74707e-17)
(0.997991 -0.00116893 -7.23134e-17)
(0.998262 -0.00200452 4.50719e-17)
(0.998676 -0.00277477 -7.87942e-17)
(0.99922 -0.00345003 1.34378e-16)
(0.999878 -0.00399995 -1.16166e-16)
(1.00063 -0.00439955 3.98621e-17)
(1.00144 -0.00462987 -1.08103e-16)
(1.00228 -0.00467903 2.75001e-16)
(1.00312 -0.00454297 3.3642e-16)
(1.00392 -0.00422717 1.94382e-18)
(1.00464 -0.00373757 -5.8637e-16)
(1.00528 -0.00312051 -3.98783e-16)
(1.00575 -0.00236616 2.71479e-16)