/*--------------------------------*- C++ -*----------------------------------*\
  =========                 |
  \\      /  F ield         | OpenFOAM: The Open Source CFD Toolbox
   \\    /   O peration     | Website:  https://openfoam.org
    \\  /    A nd           | Version:  6.0
     \\/     M anipulation  |
\*---------------------------------------------------------------------------*/
FoamFile
{
    version     2.0;
    format      ascii;
    class       volVectorField;
    location    "132";
    object      U;
}
// * * * * * * * * * * * * * * * * * * * * * * * * * * * * * * * * * * * * * //

dimensions      [0 1 -1 0 0 0 0];

internalField   nonuniform List<vector> 
34500
(
(0.999995 1.82167e-05 -4.63761e-17)
(0.999962 4.14422e-06 -8.1457e-18)
(0.999897 -2.62811e-05 1.42427e-16)
(0.999803 -8.32726e-05 -1.07841e-16)
(0.99969 -0.000175126 3.36382e-17)
(0.999566 -0.000307766 -1.0172e-16)
(0.999443 -0.000486087 -1.01232e-16)
(0.99933 -0.000715543 8.69575e-17)
(0.999237 -0.000999429 1.07553e-16)
(0.99917 -0.00135437 -6.85535e-16)
(0.999141 -0.00177953 -1.0453e-15)
(0.999136 -0.00240457 1.27854e-16)
(0.999181 -0.00307624 4.38516e-16)
(1.00031 -0.0047791 -2.11285e-16)
(0.981911 -0.0152535 8.62889e-17)
(0.999989 5.73509e-05 3.24784e-17)
(0.999927 2.45386e-05 9.77542e-17)
(0.999809 -3.8125e-05 7.18601e-17)
(0.999641 -0.000147645 -3.0272e-16)
(0.99944 -0.000318068 -5.06886e-16)
(0.999223 -0.000559504 -5.51712e-17)
(0.999008 -0.000880457 2.56193e-16)
(0.998813 -0.00129063 -6.79321e-16)
(0.998657 -0.00179241 -1.79267e-16)
(0.998548 -0.00241458 6.84315e-16)
(0.998506 -0.00314083 1.26861e-15)
(0.998534 -0.00419986 -6.33635e-16)
(0.998436 -0.00528754 -9.94383e-16)
(1.00117 -0.0076997 -4.02983e-16)
(0.982881 -0.0181966 5.78507e-16)
(0.999985 9.63725e-05 1.04778e-17)
(0.999927 5.02476e-05 -1.23064e-16)
(0.999823 -2.29685e-05 -1.25347e-16)
(0.999679 -0.000135835 4.56436e-16)
(0.99951 -0.000299107 -2.86556e-17)
(0.99933 -0.000520267 -1.64361e-16)
(0.999154 -0.000806486 9.80408e-17)
(0.998998 -0.0011672 3.85725e-16)
(0.998875 -0.00160216 2.77019e-19)
(0.998795 -0.00213958 -3.94601e-16)
(0.998763 -0.00275268 -7.31688e-16)
(0.998834 -0.00365487 4.16605e-16)
(0.998447 -0.00460234 2.27235e-16)
(1.00149 -0.00647729 1.67707e-16)
(0.989424 -0.0124076 -2.66808e-16)
(0.99998 0.00013477 -1.73718e-17)
(0.999927 7.44245e-05 -9.0346e-18)
(0.999839 -1.00137e-05 4.83904e-17)
(0.99972 -0.000126646 -3.05894e-16)
(0.999582 -0.000283462 3.72931e-16)
(0.999439 -0.00048607 3.30639e-16)
(0.9993 -0.000740788 -4.0044e-16)
(0.999178 -0.00105746 -4.2107e-16)
(0.999083 -0.00143533 4.36363e-16)
(0.999025 -0.00190442 -4.72311e-16)
(0.998989 -0.00243689 -2.45586e-16)
(0.999088 -0.00323221 -3.87957e-16)
(0.998453 -0.00416407 5.48151e-16)
(1.00105 -0.00571614 -4.90328e-17)
(0.992378 -0.0107054 2.33403e-17)
(0.999973 0.000173128 -1.70601e-17)
(0.999917 9.71534e-05 1.53502e-16)
(0.999828 -3.88618e-06 6.96556e-17)
(0.999709 -0.000136529 1.70038e-16)
(0.999574 -0.000308691 4.68353e-17)
(0.999433 -0.000526141 -1.58591e-16)
(0.999298 -0.000795251 1.02774e-16)
(0.99918 -0.00112666 2.67039e-16)
(0.999088 -0.00151919 -4.19034e-16)
(0.999034 -0.00200605 -2.31923e-16)
(0.998989 -0.00255829 1.01147e-15)
(0.999118 -0.00337175 6.38617e-16)
(0.998355 -0.00439872 -2.92917e-16)
(1.00029 -0.00584757 6.04467e-16)
(0.993581 -0.0103609 -6.30408e-16)
(0.999964 0.000211812 1.837e-17)
(0.999903 0.000120364 -9.49258e-17)
(0.99981 2.15386e-06 -1.86611e-16)
(0.999687 -0.000148465 -5.30272e-17)
(0.999547 -0.000339922 1.09646e-16)
(0.999402 -0.000578389 -1.09088e-16)
(0.999265 -0.00087 1.48551e-16)
(0.999148 -0.00122549 1.3157e-16)
(0.999057 -0.00164231 2.91991e-16)
(0.999008 -0.00215493 -1.00696e-16)
(0.998958 -0.00273128 2.93878e-18)
(0.99912 -0.00355405 -3.92027e-16)
(0.998327 -0.00462973 1.8528e-17)
(0.99963 -0.00594782 -4.78803e-16)
(0.994305 -0.00955795 7.90629e-17)
(0.999954 0.000250835 3.25866e-18)
(0.99989 0.000144533 -3.56311e-17)
(0.999797 1.09129e-05 -2.90619e-17)
(0.999675 -0.000154222 1.76045e-16)
(0.999538 -0.000359357 -2.20895e-16)
(0.999398 -0.000610637 2.76081e-16)
(0.999268 -0.00091352 -6.20845e-16)
(0.999158 -0.00127849 -3.7095e-16)
(0.999075 -0.00170156 -1.52122e-16)
(0.999036 -0.00221736 6.74168e-16)
(0.998983 -0.00279231 -7.72361e-16)
(0.999167 -0.00358693 3.00266e-16)
(0.998397 -0.00466402 4.61758e-16)
(0.999165 -0.00582734 -9.79755e-17)
(0.994762 -0.0087218 -1.28291e-16)
(0.999943 0.000290171 1.5131e-17)
(0.999877 0.000169259 3.23257e-17)
(0.999785 2.11126e-05 2.50653e-17)
(0.999668 -0.000156808 -1.51129e-16)
(0.999539 -0.000372889 3.29527e-16)
(0.999408 -0.00063311 -1.39911e-16)
(0.999288 -0.000942141 2.02071e-16)
(0.999189 -0.00131031 -1.46715e-16)
(0.999115 -0.00173263 3.98984e-16)
(0.999086 -0.00224397 1.78524e-16)
(0.999028 -0.00281209 2.46102e-16)
(0.999222 -0.00357347 -5.69341e-17)
(0.998503 -0.00464603 -5.10877e-16)
(0.99886 -0.00569022 1.16342e-15)
(0.995091 -0.00811128 1.97304e-16)
(0.99993 0.000329874 -1.12267e-17)
(0.999862 0.000194334 9.90737e-17)
(0.999771 3.15715e-05 1.51018e-16)
(0.999659 -0.000159506 1.12112e-16)
(0.999536 -0.000387341 -4.89654e-16)
(0.999413 -0.000657793 1.41293e-16)
(0.999301 -0.000974727 3.21567e-16)
(0.999213 -0.00134829 7.74879e-16)
(0.999146 -0.00177267 -3.86806e-16)
(0.999127 -0.00228292 9.04525e-17)
(0.999064 -0.00284964 4.51633e-16)
(0.999257 -0.0035856 -3.26261e-16)
(0.998605 -0.00465242 -1.56007e-16)
(0.99867 -0.0056097 -3.89228e-16)
(0.995402 -0.00763409 8.86087e-17)
(0.999916 0.000370026 4.07243e-17)
(0.999845 0.000219836 -8.98439e-17)
(0.999755 4.22663e-05 8.86547e-18)
(0.999646 -0.000162546 -1.10371e-16)
(0.999527 -0.000403208 4.11471e-16)
(0.999411 -0.000685463 7.97982e-17)
(0.999308 -0.00101233 2.70977e-16)
(0.999227 -0.00139356 -5.74892e-16)
(0.999169 -0.00182243 4.17437e-17)
(0.999158 -0.00233366 -7.90368e-17)
(0.999092 -0.00290121 -1.40462e-16)
(0.999277 -0.00361433 4.44762e-17)
(0.998698 -0.00466575 5.99939e-16)
(0.998566 -0.00554763 -8.22247e-16)
(0.995717 -0.00721841 -2.83304e-16)
(0.999901 0.000410685 -2.62468e-17)
(0.999826 0.00024587 3.52917e-17)
(0.999737 5.34689e-05 -1.47744e-16)
(0.99963 -0.000165229 2.50392e-16)
(0.999517 -0.000418981 -3.62319e-16)
(0.999407 -0.00071334 -3.03809e-16)
(0.999311 -0.00105052 -3.39797e-16)
(0.99924 -0.00143965 3.92384e-17)
(0.999189 -0.00187311 -8.1726e-17)
(0.999187 -0.00238462 -4.265e-16)
(0.999121 -0.00295194 -7.25456e-16)
(0.999294 -0.00364145 2.88166e-16)
(0.998783 -0.00466767 -3.32654e-16)
(0.998519 -0.00548104 9.2727e-16)
(0.99602 -0.0068565 5.63327e-17)
(0.999885 0.000451885 -2.45768e-17)
(0.999806 0.000272459 -1.04358e-16)
(0.999717 6.52211e-05 1.5096e-16)
(0.999614 -0.000167395 -2.34578e-16)
(0.999506 -0.000434194 7.70328e-17)
(0.999403 -0.000740468 4.55308e-16)
(0.999315 -0.00108772 5.55533e-17)
(0.999252 -0.00148441 -6.7578e-17)
(0.99921 -0.00192211 1.82266e-16)
(0.999217 -0.00243303 -1.57678e-16)
(0.999151 -0.0029991 -9.56761e-17)
(0.999308 -0.00366533 -6.73317e-17)
(0.998857 -0.00466062 -2.90943e-16)
(0.998508 -0.00541395 -6.35179e-16)
(0.996302 -0.00654639 1.29766e-17)
(0.999867 0.00049365 -2.17858e-18)
(0.999785 0.000299588 1.40665e-16)
(0.999696 7.74312e-05 -2.21849e-16)
(0.999595 -0.000169244 8.35595e-17)
(0.999493 -0.000449141 -9.37657e-17)
(0.999398 -0.00076721 -1.55148e-16)
(0.999318 -0.00112435 -3.90079e-17)
(0.999264 -0.0015284 3.66301e-16)
(0.999229 -0.00197028 -6.32818e-16)
(0.999245 -0.00248031 4.22356e-16)
(0.999182 -0.00304472 2.21902e-16)
(0.999321 -0.00368911 1.8566e-16)
(0.998921 -0.00465006 7.59511e-16)
(0.998517 -0.00535061 7.4622e-16)
(0.996561 -0.00627914 5.7326e-16)
(0.999848 0.00053599 8.31068e-18)
(0.999762 0.000327241 5.29406e-17)
(0.999672 9.00209e-05 1.76329e-16)
(0.999575 -0.000170953 5.58733e-17)
(0.999479 -0.00046411 1.71013e-16)
(0.999391 -0.000793938 1.68486e-16)
(0.999319 -0.0011608 -1.18825e-17)
(0.999275 -0.00157205 4.947e-17)
(0.999248 -0.00201808 9.41603e-16)
(0.999273 -0.00252704 -1.14488e-16)
(0.999214 -0.00308936 5.45692e-16)
(0.999335 -0.00371337 -7.45477e-16)
(0.998975 -0.00463756 1.38861e-16)
(0.998538 -0.00529042 -1.37433e-15)
(0.996795 -0.00604677 -6.43067e-16)
(0.999827 0.000578909 9.94867e-18)
(0.999738 0.000355407 -1.17824e-16)
(0.999648 0.000102952 1.55027e-16)
(0.999553 -0.000172604 -2.24519e-16)
(0.999462 -0.000479251 1.57183e-16)
(0.999382 -0.000820868 2.07742e-17)
(0.999319 -0.00119731 1.95606e-16)
(0.999285 -0.00161555 -2.60925e-16)
(0.999266 -0.00206562 -8.42559e-16)
(0.999299 -0.00257328 2.50549e-16)
(0.999246 -0.00313301 -5.63874e-16)
(0.999349 -0.0037379 1.13799e-16)
(0.999023 -0.00462385 -4.96823e-16)
(0.998566 -0.00523303 2.71458e-16)
(0.997006 -0.00584427 -1.13044e-16)
(0.999805 0.000622396 3.3268e-17)
(0.999712 0.000384064 7.19738e-17)
(0.999621 0.000116195 -3.59504e-16)
(0.999529 -0.000174252 2.8892e-16)
(0.999444 -0.000494692 -2.80576e-16)
(0.999372 -0.000848243 -3.73937e-16)
(0.999318 -0.00123422 -3.84092e-16)
(0.999293 -0.00165932 3.38799e-16)
(0.999282 -0.00211335 7.21908e-16)
(0.999323 -0.0026196 1.63873e-16)
(0.999277 -0.00317625 9.53307e-17)
(0.999365 -0.00376323 7.06954e-17)
(0.999066 -0.00461032 -7.42829e-16)
(0.998599 -0.00517906 6.57672e-17)
(0.997197 -0.00566731 6.5809e-16)
(0.999782 0.000666437 -8.9739e-17)
(0.999685 0.00041319 -9.2509e-17)
(0.999593 0.000129734 3.43367e-17)
(0.999504 -0.000175912 -2.64834e-16)
(0.999423 -0.000510506 -1.80077e-17)
(0.999359 -0.000876258 4.82905e-16)
(0.999314 -0.00127189 5.52362e-17)
(0.999298 -0.00170382 3.05175e-16)
(0.999297 -0.00216181 -6.05426e-16)
(0.999346 -0.00266656 -3.11273e-16)
(0.999308 -0.00321969 4.47571e-16)
(0.999382 -0.00378979 -1.50415e-16)
(0.999106 -0.00459784 4.90183e-16)
(0.998636 -0.00512852 7.65563e-16)
(0.997371 -0.00551145 -6.21564e-17)
(0.999758 0.000711004 2.81132e-17)
(0.999656 0.000442755 1.14894e-17)
(0.999564 0.000143566 1.15797e-16)
(0.999476 -0.00017755 2.2626e-18)
(0.999401 -0.000526652 9.90808e-17)
(0.999343 -0.000904936 -2.90386e-16)
(0.999308 -0.00131044 6.00062e-16)
(0.999302 -0.00174926 -1.54025e-16)
(0.999309 -0.00221119 6.55264e-16)
(0.999367 -0.00271434 -3.43121e-16)
(0.999338 -0.00326337 -5.47111e-16)
(0.999401 -0.00381732 5.29211e-16)
(0.999145 -0.00458636 -8.96166e-16)
(0.998677 -0.00508074 -1.32993e-15)
(0.997534 -0.00537288 -3.41943e-16)
(0.999732 0.00075607 3.13014e-18)
(0.999626 0.000472733 1.95223e-17)
(0.999533 0.0001577 -3.12633e-17)
(0.999447 -0.000179077 1.58965e-16)
(0.999376 -0.000542972 1.09065e-16)
(0.999326 -0.000934106 -4.27827e-17)
(0.999299 -0.00134975 -3.61699e-16)
(0.999303 -0.00179553 -3.48855e-16)
(0.99932 -0.00226134 -2.35957e-16)
(0.999386 -0.00276271 4.35226e-16)
(0.999367 -0.00330696 3.37718e-16)
(0.999422 -0.00384521 -4.97639e-16)
(0.999183 -0.0045755 1.11006e-15)
(0.998722 -0.00503501 1.40102e-15)
(0.997686 -0.00524872 4.80542e-17)
(0.999704 0.000801599 3.57922e-17)
(0.999595 0.000503088 -4.7656e-17)
(0.9995 0.000172144 2.29791e-16)
(0.999416 -0.000180392 -4.57807e-17)
(0.99935 -0.000559254 -1.7479e-16)
(0.999307 -0.000963482 7.41301e-17)
(0.999288 -0.00138951 -1.30106e-16)
(0.999303 -0.00184235 2.9456e-16)
(0.999329 -0.00231197 7.74862e-17)
(0.999403 -0.00281136 5.42206e-17)
(0.999395 -0.0033501 -2.59018e-16)
(0.999445 -0.00387293 3.44568e-16)
(0.999223 -0.00456498 1.76369e-16)
(0.998771 -0.00499098 1.58702e-16)
(0.997832 -0.00513686 4.07793e-16)
(0.999675 0.000847556 -1.84002e-17)
(0.999562 0.000533783 2.72805e-17)
(0.999467 0.000186894 -3.72492e-16)
(0.999384 -0.000181402 -2.38395e-16)
(0.999322 -0.000575271 3.30058e-16)
(0.999286 -0.00099272 -8.93869e-17)
(0.999276 -0.00142931 5.22383e-16)
(0.999301 -0.0018893 -1.41895e-16)
(0.999337 -0.00236267 -7.53769e-18)
(0.99942 -0.00285989 -1.5076e-16)
(0.999423 -0.00339245 3.87674e-16)
(0.99947 -0.00390008 -2.44887e-16)
(0.999264 -0.00455464 -8.08221e-16)
(0.998824 -0.00494846 -1.93666e-16)
(0.997972 -0.00503568 -4.65423e-16)
(0.999645 0.000893904 2.47695e-17)
(0.999528 0.000564777 1.1271e-16)
(0.999432 0.000201927 3.35734e-16)
(0.999351 -0.000182055 2.60652e-16)
(0.999294 -0.000590843 -3.21389e-17)
(0.999264 -0.0010215 -1.30616e-16)
(0.999263 -0.00146872 -5.78306e-16)
(0.999298 -0.00193589 -6.72694e-17)
(0.999344 -0.00241295 -3.43912e-16)
(0.999436 -0.00290786 1.11492e-16)
(0.999451 -0.00343368 -7.10609e-16)
(0.999497 -0.00392632 3.43517e-16)
(0.999306 -0.0045444 1.16429e-15)
(0.998881 -0.00490742 -9.03545e-16)
(0.998108 -0.0049441 5.42119e-16)
(0.999613 0.000940608 -1.99727e-17)
(0.999492 0.000596026 -1.58588e-16)
(0.999396 0.0002172 -1.9215e-16)
(0.999317 -0.000182351 -9.58682e-17)
(0.999265 -0.000605874 -6.14184e-17)
(0.999242 -0.00104958 8.43516e-17)
(0.99925 -0.00150739 -3.23173e-17)
(0.999295 -0.00198168 -4.44109e-16)
(0.999351 -0.00246235 -1.30809e-16)
(0.999451 -0.00295488 -3.29616e-17)
(0.999478 -0.00347352 6.46819e-16)
(0.999525 -0.00395147 1.08417e-16)
(0.99935 -0.00453432 -9.6795e-16)
(0.998942 -0.00486805 5.16928e-16)
(0.998239 -0.00486147 -1.04859e-16)
(0.99958 0.000987635 1.8042e-17)
(0.999455 0.000627487 9.32452e-17)
(0.999358 0.000232649 9.24828e-17)
(0.999282 -0.000182363 1.7992e-16)
(0.999235 -0.000620406 -9.80616e-17)
(0.99922 -0.00107693 -2.75944e-17)
(0.999236 -0.00154516 1.99454e-16)
(0.999291 -0.00202647 2.98196e-16)
(0.999357 -0.00251063 -2.15107e-17)
(0.999466 -0.00300077 -3.60592e-16)
(0.999506 -0.00351199 -2.77562e-16)
(0.999555 -0.00397567 -4.88933e-16)
(0.999396 -0.00452479 2.05738e-17)
(0.999005 -0.00483088 2.67609e-16)
(0.998367 -0.00478745 -1.63809e-16)
(0.999546 0.00103496 -9.64693e-18)
(0.999417 0.000659123 -5.51806e-17)
(0.99932 0.0002482 1.40454e-16)
(0.999246 -0.000182217 1.47365e-17)
(0.999204 -0.000634606 -1.24832e-16)
(0.999197 -0.00110372 1.00704e-16)
(0.999222 -0.00158217 -4.81259e-17)
(0.999287 -0.00207036 2.74957e-16)
(0.999363 -0.00255793 5.08372e-16)
(0.999482 -0.00304574 7.90165e-17)
(0.999533 -0.00354945 2.3954e-16)
(0.999586 -0.0039994 2.44306e-16)
(0.999442 -0.00451642 6.05114e-17)
(0.999071 -0.00479649 -5.50591e-16)
(0.99849 -0.00472168 1.34968e-16)
(0.99951 0.00108255 1.29222e-17)
(0.999377 0.000690902 1.16219e-17)
(0.999279 0.000263777 -2.86944e-16)
(0.999209 -0.000182075 -1.25399e-16)
(0.999172 -0.000648737 1.76364e-16)
(0.999172 -0.00113029 -2.75406e-17)
(0.999207 -0.00161881 1.8428e-16)
(0.999282 -0.00211375 -2.44888e-16)
(0.999369 -0.00260469 1.39699e-16)
(0.999496 -0.00309028 1.16288e-16)
(0.99956 -0.00358651 1.22926e-16)
(0.999617 -0.00402329 1.56725e-16)
(0.99949 -0.00450985 2.18606e-16)
(0.99914 -0.00476538 3.09418e-17)
(0.998611 -0.00466367 7.93434e-17)
(0.999472 0.00113041 -3.97584e-17)
(0.999335 0.000722806 1.05245e-16)
(0.999237 0.000279324 1.64759e-16)
(0.999169 -0.000182082 -1.05501e-16)
(0.999138 -0.000663071 -6.86114e-17)
(0.999146 -0.00115704 3.90677e-17)
(0.99919 -0.00165556 -2.00758e-16)
(0.999275 -0.0021572 -1.31435e-16)
(0.999373 -0.00265148 -1.72752e-16)
(0.99951 -0.00313502 2.74827e-16)
(0.999585 -0.00362384 -3.81771e-16)
(0.999649 -0.00404795 2.9879e-16)
(0.999537 -0.00450556 1.46825e-16)
(0.999209 -0.00473779 5.52556e-16)
(0.998729 -0.00461279 -5.10813e-16)
(0.999433 0.00117851 1.67765e-17)
(0.999292 0.000754828 -7.92157e-17)
(0.999193 0.000294813 5.80179e-17)
(0.999128 -0.00018234 1.28364e-16)
(0.999103 -0.000677821 -8.90251e-17)
(0.999118 -0.00118429 -1.50514e-16)
(0.999172 -0.00169286 -7.12945e-17)
(0.999267 -0.00220121 9.83018e-17)
(0.999376 -0.00269883 -4.4997e-16)
(0.999522 -0.00318046 6.64594e-17)
(0.99961 -0.00366192 2.53675e-16)
(0.99968 -0.00407377 -7.10364e-16)
(0.999586 -0.00450378 1.43906e-16)
(0.99928 -0.00471373 2.21673e-17)
(0.998844 -0.00456829 3.76467e-16)
(0.999393 0.00122685 -6.37792e-18)
(0.999247 0.000786973 9.70877e-17)
(0.999147 0.000310248 -9.38284e-17)
(0.999084 -0.000182877 -5.8257e-17)
(0.999064 -0.000693086 -9.29483e-17)
(0.999088 -0.00121224 -4.91737e-17)
(0.999151 -0.00173097 -1.06073e-16)
(0.999258 -0.00224609 7.57716e-17)
(0.999378 -0.00274705 2.91545e-17)
(0.999533 -0.00322688 -3.11877e-16)
(0.999633 -0.00370102 -3.72546e-16)
(0.999712 -0.00410089 4.14063e-16)
(0.999634 -0.00450449 -3.62569e-16)
(0.999352 -0.00469301 -1.16043e-16)
(0.998957 -0.00452939 -1.15259e-17)
(0.999351 0.00127542 -1.92991e-17)
(0.9992 0.000819246 -4.48498e-17)
(0.999099 0.000325655 3.16874e-17)
(0.999038 -0.000183664 2.25874e-16)
(0.999024 -0.000708856 3.77342e-16)
(0.999055 -0.00124092 3.08174e-16)
(0.999128 -0.00176996 3.36853e-16)
(0.999246 -0.00229193 -2.15018e-16)
(0.999377 -0.00279626 6.22791e-20)
(0.999542 -0.00327437 2.33578e-16)
(0.999655 -0.00374117 4.60497e-17)
(0.999743 -0.00412929 2.5444e-16)
(0.999682 -0.00450758 2.05086e-16)
(0.999425 -0.00467544 -5.40066e-16)
(0.999068 -0.00449544 -3.57723e-16)
(0.999307 0.00132421 9.92959e-18)
(0.999152 0.000851658 -8.1063e-17)
(0.99905 0.000341073 -1.62201e-16)
(0.998991 -0.000184627 -1.59268e-16)
(0.998981 -0.000725035 1.46452e-17)
(0.999021 -0.00127022 -1.73987e-16)
(0.999103 -0.00180974 -3.78995e-16)
(0.999232 -0.00233865 2.89429e-16)
(0.999375 -0.00284636 2.35552e-16)
(0.999551 -0.00332282 -5.19868e-16)
(0.999677 -0.0037823 4.27001e-16)
(0.999774 -0.00415885 -3.11856e-16)
(0.99973 -0.00451285 -1.44183e-16)
(0.999498 -0.00466074 -1.26706e-16)
(0.999177 -0.00446577 1.52348e-16)
(0.999262 0.00137323 3.77983e-17)
(0.999102 0.000884214 1.73939e-17)
(0.998998 0.000356537 8.77282e-17)
(0.998941 -0.000185686 4.07667e-17)
(0.998937 -0.000741498 4.79814e-17)
(0.998984 -0.0013 3.00918e-16)
(0.999076 -0.00185015 -1.36031e-16)
(0.999216 -0.0023861 1.48724e-16)
(0.999371 -0.0028972 8.54476e-17)
(0.999558 -0.0033721 5.95946e-17)
(0.999697 -0.00382428 1.98833e-16)
(0.999805 -0.00418945 -4.2468e-17)
(0.999779 -0.00452011 9.4656e-18)
(0.999571 -0.00464867 8.83575e-16)
(0.999285 -0.00443983 2.83359e-18)
(0.999216 0.00142246 -3.66886e-17)
(0.999051 0.000916913 -1.26763e-17)
(0.998946 0.00037207 5.73575e-17)
(0.99889 -0.000186774 -1.7494e-16)
(0.998891 -0.000758129 -2.80307e-16)
(0.998946 -0.00133009 -2.68682e-16)
(0.999048 -0.00189101 2.27754e-16)
(0.999199 -0.00243409 -8.334e-17)
(0.999366 -0.00294863 9.72679e-18)
(0.999564 -0.00342204 -5.05021e-18)
(0.999716 -0.00386697 -2.74624e-16)
(0.999836 -0.00422093 -2.48666e-16)
(0.999827 -0.00452915 -1.60814e-16)
(0.999644 -0.00463892 2.45285e-17)
(0.999392 -0.00441701 -5.57674e-17)
(0.999168 0.0014719 -1.83162e-17)
(0.998999 0.000949748 4.84964e-17)
(0.998891 0.000387676 4.77298e-17)
(0.998838 -0.000187858 7.76999e-17)
(0.998843 -0.000774851 1.06316e-16)
(0.998906 -0.00136039 1.68095e-18)
(0.999018 -0.00193218 2.27663e-16)
(0.99918 -0.00248249 -5.07922e-16)
(0.99936 -0.0030005 2.5919e-16)
(0.999569 -0.00347251 2.64569e-16)
(0.999735 -0.00391026 -3.78981e-16)
(0.999866 -0.00425315 7.09061e-16)
(0.999876 -0.00453974 3.74306e-16)
(0.999717 -0.00463118 -7.00681e-16)
(0.999497 -0.00439685 -2.10199e-16)
(0.999119 0.00152154 3.78767e-17)
(0.998944 0.000982711 2.94236e-17)
(0.998836 0.000403347 4.59624e-18)
(0.998784 -0.000188929 -3.48324e-17)
(0.998794 -0.000791632 2.02139e-17)
(0.998864 -0.00139082 2.85314e-16)
(0.998986 -0.00197358 -4.60082e-17)
(0.99916 -0.0025312 3.25954e-16)
(0.999353 -0.0030527 -4.82593e-17)
(0.999574 -0.00352339 -2.92661e-16)
(0.999754 -0.003954 6.06325e-16)
(0.999897 -0.00428593 -3.64511e-16)
(0.999924 -0.00455163 -4.94845e-16)
(0.999791 -0.00462516 2.10117e-16)
(0.999601 -0.00437896 3.54163e-16)
(0.999068 0.00157137 -3.14977e-17)
(0.998889 0.00101579 -1.32838e-17)
(0.998779 0.00041906 -1.73285e-16)
(0.998728 -0.000190008 -8.47186e-17)
(0.998744 -0.000808474 5.21942e-17)
(0.998822 -0.00142138 -2.88034e-16)
(0.998954 -0.00201516 -8.47108e-17)
(0.999139 -0.00258015 2.84101e-16)
(0.999345 -0.00310516 -2.4043e-16)
(0.999578 -0.00357457 7.05653e-17)
(0.999772 -0.00399806 -3.37622e-16)
(0.999928 -0.00431911 1.0643e-17)
(0.999973 -0.0045646 2.67825e-16)
(0.999864 -0.00462063 1.41546e-16)
(0.999704 -0.00436319 -5.55985e-17)
(0.999015 0.00162142 3.0048e-17)
(0.998831 0.00104897 -9.75342e-17)
(0.99872 0.000434797 8.19011e-17)
(0.998672 -0.000191118 5.36243e-17)
(0.998692 -0.000825394 -4.04469e-17)
(0.998778 -0.00145206 -1.73023e-16)
(0.99892 -0.0020569 5.2487e-17)
(0.999117 -0.00262928 -1.30249e-16)
(0.999336 -0.00315778 -2.1977e-16)
(0.999581 -0.00362593 -2.7497e-17)
(0.99979 -0.00404232 -4.87944e-16)
(0.999959 -0.00435256 5.00239e-16)
(1.00002 -0.0045785 3.89837e-17)
(0.999937 -0.00461746 -8.07932e-17)
(0.999806 -0.00434946 -7.92281e-18)
(0.998962 0.00167166 -3.6855e-17)
(0.998772 0.00108225 1.00406e-16)
(0.99866 0.000450535 -2.30727e-17)
(0.998613 -0.000192289 -2.10263e-16)
(0.998638 -0.000842417 -1.00222e-16)
(0.998732 -0.00148286 1.16475e-16)
(0.998885 -0.00209877 -1.70991e-16)
(0.999093 -0.00267855 -1.9164e-16)
(0.999326 -0.00321051 3.26365e-16)
(0.999584 -0.00367739 1.13659e-16)
(0.999807 -0.00408671 5.11997e-16)
(0.999991 -0.00438623 -3.85753e-16)
(1.00007 -0.00459332 1.38985e-16)
(1.00001 -0.00461574 -1.57145e-16)
(0.999906 -0.00433798 5.27987e-18)
(0.998906 0.00172213 2.28112e-17)
(0.998712 0.00111564 -5.81032e-17)
(0.998598 0.000466263 7.21995e-17)
(0.998553 -0.000193541 3.13291e-16)
(0.998584 -0.000859562 1.33002e-16)
(0.998686 -0.0015138 8.255e-17)
(0.998848 -0.00214078 3.39635e-16)
(0.999069 -0.00272793 1.61495e-16)
(0.999315 -0.00326331 -2.66176e-16)
(0.999586 -0.00372893 4.53941e-16)
(0.999825 -0.00413126 2.52758e-16)
(1.00002 -0.00442022 -2.1428e-16)
(1.00012 -0.0046092 -4.10931e-16)
(1.00008 -0.00461566 -1.60352e-16)
(1 -0.00432892 6.23788e-17)
(0.998849 0.00177283 4.68372e-18)
(0.99865 0.00114912 -1.23791e-16)
(0.998534 0.000481972 -9.18998e-17)
(0.998492 -0.000194894 -2.15722e-16)
(0.998527 -0.000876852 3.4666e-17)
(0.998637 -0.00154489 -3.35245e-16)
(0.998811 -0.00218293 -3.60581e-16)
(0.999044 -0.00277746 -1.45124e-16)
(0.999303 -0.00331623 3.09387e-16)
(0.999588 -0.00378064 -3.28924e-16)
(0.999842 -0.00417611 1.16462e-16)
(1.00005 -0.00445475 2.16852e-16)
(1.00017 -0.00462639 3.30035e-16)
(1.00015 -0.00461753 2.02225e-16)
(1.0001 -0.00432258 1.73002e-17)
(0.99879 0.00182377 3.29227e-17)
(0.998586 0.00118272 2.02326e-16)
(0.998469 0.000497662 9.41996e-17)
(0.998428 -0.000196357 1.81099e-16)
(0.998469 -0.000894307 1.08553e-16)
(0.998588 -0.00157617 4.57791e-17)
(0.998772 -0.00222527 5.28357e-17)
(0.999017 -0.0028272 -1.21465e-16)
(0.999291 -0.00336938 -1.23255e-16)
(0.99959 -0.00383268 1.44567e-17)
(0.999858 -0.0042215 -7.95735e-16)
(1.00009 -0.0044901 -3.11303e-16)
(1.00022 -0.00464521 3.28168e-16)
(1.00023 -0.00462161 -7.34819e-17)
(1.00019 -0.004319 -2.05015e-16)
(0.99873 0.00187498 -4.42497e-17)
(0.99852 0.00121644 -1.29656e-16)
(0.998402 0.000513331 -1.86274e-16)
(0.998363 -0.000197946 6.12187e-17)
(0.99841 -0.000911962 -2.05944e-16)
(0.998537 -0.0016077 3.83777e-17)
(0.998732 -0.0022679 -4.75304e-17)
(0.99899 -0.00287729 -8.68247e-18)
(0.999278 -0.00342295 -1.47289e-16)
(0.999591 -0.0038853 -7.72986e-17)
(0.999875 -0.00426773 2.73998e-17)
(1.00012 -0.00452664 2.70352e-16)
(1.00027 -0.00466596 -1.3659e-16)
(1.0003 -0.00462817 2.70731e-16)
(1.00029 -0.00431824 9.63809e-17)
(0.998668 0.00192648 2.365e-17)
(0.998453 0.0012503 1.2421e-16)
(0.998333 0.000528987 2.36658e-16)
(0.998297 -0.000199671 -6.84083e-17)
(0.998349 -0.000929854 -1.6603e-17)
(0.998484 -0.00163955 2.51507e-16)
(0.998691 -0.00231093 2.13966e-16)
(0.998961 -0.00292788 -1.46695e-16)
(0.999264 -0.00347715 3.93274e-16)
(0.999591 -0.00393875 3.57104e-16)
(0.999891 -0.00431508 3.80176e-16)
(1.00015 -0.00456465 -1.75805e-17)
(1.00032 -0.00468885 -3.02812e-16)
(1.00037 -0.00463728 -3.19274e-16)
(1.00038 -0.00432013 -3.09894e-17)
(0.998605 0.00197829 -2.02653e-17)
(0.998383 0.00128432 -6.55927e-17)
(0.998262 0.000544631 -1.96154e-16)
(0.998228 -0.000201549 1.26288e-16)
(0.998286 -0.000948028 1.21228e-16)
(0.99843 -0.0016718 -1.68405e-16)
(0.998648 -0.00235449 -8.50592e-17)
(0.998931 -0.00297916 8.41024e-18)
(0.999248 -0.00353221 -1.7478e-16)
(0.99959 -0.00399329 -3.05974e-16)
(0.999906 -0.00436383 -5.65234e-16)
(1.00018 -0.00460435 6.11485e-17)
(1.00037 -0.004714 3.69703e-16)
(1.00044 -0.00464894 3.36023e-16)
(1.00047 -0.00432445 -7.11858e-17)
(0.99854 0.00203044 -1.61266e-17)
(0.998313 0.00131851 -1.3194e-17)
(0.99819 0.000560275 1.71656e-16)
(0.998158 -0.000203591 -1.62028e-16)
(0.998221 -0.000966527 -3.20315e-16)
(0.998374 -0.00170453 1.55519e-16)
(0.998603 -0.0023987 8.82961e-17)
(0.9989 -0.00303128 4.09094e-16)
(0.999231 -0.0035883 5.85361e-17)
(0.999588 -0.00404909 2.84909e-16)
(0.99992 -0.00441411 8.47012e-16)
(1.00021 -0.00464582 -2.32746e-16)
(1.00042 -0.00474136 -9.90092e-17)
(1.00051 -0.00466299 -1.17279e-17)
(1.00056 -0.00433081 -2.83477e-17)
(0.998473 0.00208296 4.51012e-17)
(0.99824 0.00135289 4.92949e-17)
(0.998115 0.000575926 -1.47634e-16)
(0.998086 -0.000205807 1.37201e-16)
(0.998155 -0.000985392 -9.23872e-17)
(0.998317 -0.00173783 -2.97571e-16)
(0.998557 -0.00244367 1.30854e-17)
(0.998866 -0.00308438 -3.51871e-17)
(0.999213 -0.00364557 -2.17087e-16)
(0.999585 -0.00410627 1.83163e-16)
(0.999934 -0.004466 -7.90641e-16)
(1.00024 -0.00468906 -1.44132e-17)
(1.00046 -0.00477084 -1.76856e-16)
(1.00058 -0.00467921 3.31584e-17)
(1.00064 -0.00433894 -8.39548e-17)
(0.998404 0.00213587 -1.15089e-17)
(0.998165 0.00138749 -1.17454e-17)
(0.998039 0.000591598 2.04287e-17)
(0.998011 -0.000208198 -1.52576e-16)
(0.998086 -0.00100465 -2.74073e-17)
(0.998257 -0.00177174 3.63351e-16)
(0.998508 -0.00248947 -2.64945e-16)
(0.998831 -0.00313853 -3.28355e-16)
(0.999193 -0.00370407 3.51837e-16)
(0.999581 -0.00416486 -3.18602e-16)
(0.999947 -0.00451946 4.03701e-16)
(1.00027 -0.00473398 3.82539e-16)
(1.00051 -0.00480224 2.76146e-16)
(1.00065 -0.00469735 -1.84398e-16)
(1.00073 -0.00434848 -6.3273e-17)
(0.998334 0.0021892 -1.2412e-17)
(0.998089 0.00142233 -7.20716e-17)
(0.997961 0.000607306 -9.70845e-17)
(0.997935 -0.000210763 7.12828e-17)
(0.998016 -0.0010243 1.80737e-16)
(0.998195 -0.00180629 6.34255e-17)
(0.998458 -0.00253615 2.46235e-16)
(0.998795 -0.00319376 5.38473e-17)
(0.999172 -0.00376383 -4.62596e-16)
(0.999576 -0.00422483 1.62026e-16)
(0.999959 -0.00457442 -2.29291e-16)
(1.0003 -0.00478044 -1.90735e-16)
(1.00056 -0.00483536 -2.57485e-16)
(1.00072 -0.00471718 4.08343e-17)
(1.00082 -0.00435925 1.52771e-16)
(0.998262 0.00224299 -1.90514e-17)
(0.998011 0.00145743 3.43281e-17)
(0.997881 0.00062307 4.14596e-17)
(0.997857 -0.000213484 -1.42878e-16)
(0.997943 -0.00104436 6.97552e-17)
(0.998131 -0.00184149 -2.11746e-16)
(0.998406 -0.0025837 -2.59513e-17)
(0.998757 -0.00325006 3.18827e-16)
(0.99915 -0.00382479 -2.03513e-16)
(0.99957 -0.00428609 -2.69251e-16)
(0.99997 -0.00463075 2.31535e-16)
(1.00033 -0.00482826 -6.88348e-17)
(1.00061 -0.00486997 -7.29613e-16)
(1.00079 -0.00473844 7.47062e-17)
(1.00091 -0.00437099 1.09885e-16)
(0.998188 0.00229726 -9.80618e-18)
(0.997931 0.0014928 3.34845e-17)
(0.997799 0.000638907 1.26192e-17)
(0.997777 -0.000216346 1.90453e-17)
(0.997868 -0.00106479 1.20379e-16)
(0.998065 -0.0018773 6.69226e-17)
(0.998352 -0.00263208 -2.20535e-16)
(0.998717 -0.00330738 -2.01476e-17)
(0.999126 -0.00388688 6.09563e-16)
(0.999563 -0.00434854 -1.9569e-16)
(0.999982 -0.0046883 -5.75979e-18)
(1.00036 -0.00487729 2.90234e-17)
(1.00066 -0.00490592 2.80697e-17)
(1.00085 -0.00476099 -5.17169e-17)
(1.00099 -0.00438368 1.73422e-17)
(0.998112 0.00235203 2.58413e-17)
(0.997849 0.00152848 -6.83027e-17)
(0.997715 0.000654842 -7.80486e-17)
(0.997694 -0.000219318 1.49104e-19)
(0.997791 -0.00108556 -1.81771e-16)
(0.997998 -0.00191368 -2.90422e-17)
(0.998296 -0.00268123 4.28202e-17)
(0.998675 -0.00336563 -4.85193e-17)
(0.999101 -0.00394999 -4.12706e-16)
(0.999555 -0.00441205 5.50017e-16)
(0.999993 -0.00474695 -3.14246e-17)
(1.00039 -0.00492739 -5.7633e-17)
(1.00071 -0.00494305 3.40463e-16)
(1.00092 -0.00478471 -3.83156e-16)
(1.00108 -0.00439726 8.14289e-18)
(0.998034 0.00240733 2.74185e-18)
(0.997765 0.00156448 8.19406e-17)
(0.997629 0.000670888 2.20299e-16)
(0.99761 -0.000222378 -5.55806e-17)
(0.997713 -0.00110663 1.18133e-16)
(0.997928 -0.00195057 -1.83661e-16)
(0.998239 -0.00273108 -2.20073e-16)
(0.998633 -0.00342472 5.28999e-18)
(0.999076 -0.00401402 2.40302e-16)
(0.999547 -0.00447652 -4.80064e-16)
(1 -0.00480659 1.19724e-16)
(1.00042 -0.00497849 -2.084e-17)
(1.00075 -0.00498132 2.63014e-16)
(1.00099 -0.00480959 8.15484e-17)
(1.00117 -0.00441187 -1.27827e-16)
(0.997955 0.00246318 1.05362e-18)
(0.997679 0.00160082 -8.89337e-17)
(0.997541 0.000687062 -1.25733e-16)
(0.997524 -0.000225499 2.08173e-17)
(0.997632 -0.00112795 -2.19474e-17)
(0.997857 -0.00198791 1.66713e-16)
(0.998181 -0.00278154 3.61329e-16)
(0.998589 -0.00348455 -3.2072e-16)
(0.999049 -0.00407888 3.65105e-16)
(0.999539 -0.00454185 3.23019e-17)
(1.00001 -0.00486715 7.17811e-17)
(1.00045 -0.00503053 -1.38844e-16)
(1.0008 -0.00502071 2.68645e-16)
(1.00106 -0.00483566 1.52759e-16)
(1.00125 -0.00442755 2.00786e-16)
(0.997873 0.0025196 -8.61736e-18)
(0.997591 0.00163749 8.48345e-17)
(0.997451 0.000703371 1.5487e-16)
(0.997436 -0.000228669 5.35303e-17)
(0.99755 -0.00114951 1.56646e-16)
(0.997784 -0.00202565 1.20366e-16)
(0.998121 -0.00283255 -3.24494e-16)
(0.998544 -0.00354507 6.5055e-16)
(0.999022 -0.0041445 -2.04788e-16)
(0.999529 -0.00460801 -6.81963e-17)
(1.00002 -0.00492864 -2.47119e-16)
(1.00048 -0.00508358 -1.087e-16)
(1.00085 -0.00506132 -2.98958e-16)
(1.00113 -0.00486306 -1.10521e-16)
(1.00134 -0.00444459 4.82837e-17)
(0.997789 0.00257662 -3.06026e-17)
(0.997501 0.00167452 -9.07243e-17)
(0.997359 0.000719817 -1.08607e-17)
(0.997346 -0.000231885 1.06493e-16)
(0.997466 -0.00117129 -1.42559e-16)
(0.99771 -0.00206378 -1.04738e-16)
(0.998059 -0.00288409 4.06069e-16)
(0.998498 -0.00360624 -1.21357e-16)
(0.998993 -0.00421089 -5.18909e-16)
(0.99952 -0.00467505 7.14826e-17)
(1.00003 -0.00499113 -1.25478e-16)
(1.00051 -0.00513776 2.32505e-16)
(1.0009 -0.0051033 3.7322e-16)
(1.0012 -0.00489196 3.33562e-16)
(1.00142 -0.0044631 -2.81357e-16)
(0.997704 0.00263423 1.8353e-18)
(0.99741 0.0017119 -1.75004e-17)
(0.997265 0.000736391 -7.24698e-17)
(0.997254 -0.000235165 4.51937e-17)
(0.997381 -0.0011933 -7.9049e-17)
(0.997634 -0.00210232 1.34894e-16)
(0.997996 -0.0029362 -1.16686e-16)
(0.998451 -0.00366812 4.00769e-17)