/*--------------------------------*- C++ -*----------------------------------*\
  =========                 |
  \\      /  F ield         | OpenFOAM: The Open Source CFD Toolbox
   \\    /   O peration     | Website:  https://openfoam.org
    \\  /    A nd           | Version:  6.0
     \\/     M anipulation  |
\*---------------------------------------------------------------------------*/
FoamFile
{
    version     2.0;
    format      ascii;
    class       volScalarField;
    location    "2";
    object      p;
}
// * * * * * * * * * * * * * * * * * * * * * * * * * * * * * * * * * * * * * //

dimensions      [0 2 -2 0 0 0 0];

internalField   nonuniform List<scalar> 
2000
(
-0.409423
-0.41255
-0.410688
-0.405682
-0.398784
-0.390523
-0.38136
-0.372092
-0.363562
-0.352528
-0.41319
-0.415865
-0.41368
-0.408422
-0.4013
-0.392827
-0.383449
-0.373945
-0.365185
-0.354134
-0.420715
-0.422468
-0.419628
-0.413862
-0.406285
-0.397381
-0.387563
-0.377562
-0.368304
-0.357188
-0.431977
-0.432297
-0.428453
-0.421917
-0.413651
-0.404084
-0.393574
-0.382772
-0.37267
-0.36137
-0.44693
-0.445254
-0.440036
-0.432462
-0.423265
-0.412789
-0.401306
-0.389331
-0.37791
-0.366173
-0.465484
-0.461189
-0.454208
-0.445326
-0.434957
-0.423321
-0.410558
-0.396966
-0.383585
-0.370941
-0.487464
-0.479884
-0.470742
-0.460289
-0.448522
-0.435494
-0.421164
-0.405514
-0.389377
-0.375004
-0.512576
-0.501036
-0.489344
-0.477071
-0.463694
-0.449049
-0.432874
-0.414671
-0.394581
-0.37675
-0.54036
-0.524254
-0.509678
-0.495388
-0.480243
-0.463798
-0.445407
-0.423642
-0.396997
-0.371966
-0.570157
-0.549056
-0.531402
-0.51509
-0.498416
-0.480771
-0.461146
-0.437073
-0.405281
-0.373361
-0.601113
-0.574825
-0.554017
-0.535775
-0.518082
-0.500737
-0.483607
-0.466902
-0.455012
-0.45759
-0.63228
-0.600835
-0.576768
-0.55628
-0.536873
-0.518381
-0.500809
-0.484838
-0.474974
-0.475673
-0.662799
-0.626455
-0.599173
-0.576234
-0.554604
-0.534047
-0.514552
-0.496654
-0.483282
-0.475669
-0.691846
-0.651012
-0.620672
-0.595146
-0.570857
-0.547467
-0.524898
-0.503424
-0.48468
-0.468844
-0.718501
-0.673664
-0.640452
-0.612182
-0.584766
-0.557806
-0.531216
-0.505103
-0.48031
-0.457177
-0.741641
-0.693355
-0.657456
-0.626258
-0.595269
-0.564151
-0.532946
-0.501768
-0.471054
-0.441842
-0.75991
-0.708803
-0.670406
-0.636097
-0.601162
-0.565496
-0.529429
-0.493232
-0.457184
-0.423227
-0.771733
-0.718537
-0.677851
-0.640282
-0.601155
-0.560788
-0.519938
-0.479117
-0.438593
-0.401222
-0.775384
-0.720949
-0.678226
-0.637331
-0.593943
-0.548984
-0.503727
-0.458952
-0.414964
-0.375447
-0.769079
-0.714369
-0.669932
-0.625777
-0.578282
-0.52912
-0.480109
-0.432258
-0.385906
-0.345416
-0.751074
-0.697164
-0.651436
-0.604263
-0.553077
-0.500389
-0.448523
-0.398642
-0.351069
-0.310685
-0.719779
-0.667834
-0.621362
-0.571641
-0.517469
-0.462209
-0.408607
-0.357872
-0.310247
-0.270962
-0.673888
-0.625138
-0.578621
-0.527072
-0.470908
-0.414294
-0.360258
-0.309943
-0.263446
-0.226179
-0.612489
-0.568205
-0.522499
-0.470101
-0.413216
-0.356681
-0.303654
-0.255108
-0.21093
-0.176539
-0.535177
-0.496636
-0.452752
-0.400722
-0.344606
-0.289741
-0.239257
-0.193877
-0.153226
-0.122524
-0.442149
-0.410596
-0.369664
-0.319396
-0.265672
-0.214129
-0.167734
-0.12692
-0.0910176
-0.0648075
-0.334286
-0.310881
-0.274099
-0.22707
-0.177384
-0.130768
-0.0899123
-0.0549838
-0.0250685
-0.00426318
-0.213206
-0.198956
-0.167497
-0.125159
-0.0810633
-0.0408543
-0.0068924
0.0207814
0.0430561
0.0570092
-0.0812726
-0.076943
-0.0518383
-0.0154296
0.0218452
0.0545247
0.0804558
0.0991798
0.110871
0.115243
0.0584336
0.052392
0.0703644
0.100021
0.129982
0.155184
0.173582
0.183564
0.183868
0.178534
0.202248
0.185694
0.195935
0.218245
0.240855
0.259625
0.273281
0.280056
0.279796
0.2934
0.346225
0.319265
0.321216
0.33535
0.349711
0.360866
0.367976
0.370198
0.369721
0.38254
0.486413
0.449419
0.442794
0.448215
0.453743
0.456572
0.456183
0.452192
0.446838
0.451801
0.618988
0.572562
0.557402
0.553978
0.55055
0.544941
0.536951
0.526455
0.515324
0.512256
0.740333
0.685294
0.661989
0.650027
0.637993
0.624315
0.609074
0.592332
0.575631
0.56541
0.847121
0.784498
0.75379
0.734022
0.714173
0.693218
0.67148
0.649168
0.627508
0.611071
0.936398
0.867422
0.830373
0.803904
0.77739
0.750273
0.723073
0.696112
0.670315
0.648694
1.00567
0.931751
0.889695
0.857933
0.826185
0.794254
0.762814
0.732269
0.703278
0.67763
1.05298
0.975676
0.93016
0.894743
0.859393
0.824166
0.789833
0.756856
0.725693
0.697288
1.07697
0.997956
0.950672
0.913389
0.876206
0.839304
0.803506
0.7693
0.737038
0.707231
1.07698
0.997957
0.950673
0.913389
0.876207
0.839304
0.803507
0.769301
0.737039
0.707232
1.05298
0.975679
0.930162
0.894745
0.859395
0.824168
0.789835
0.756858
0.725694
0.697289
1.00567
0.931756
0.889699
0.857937
0.826188
0.794257
0.762816
0.732272
0.70328
0.677633
0.936405
0.867428
0.830379
0.803909
0.777395
0.750277
0.723076
0.696116
0.670318
0.648697
0.84713
0.784506
0.753798
0.734028
0.714179
0.693224
0.671485
0.649173
0.627512
0.611075
0.740343
0.685303
0.661998
0.650035
0.638
0.624321
0.609079
0.592337
0.575636
0.565415
0.618999
0.572573
0.557412
0.553988
0.550558
0.544949
0.536958
0.526461
0.51533
0.512261
0.486426
0.449431
0.442805
0.448226
0.453752
0.45658
0.456191
0.452199
0.446844
0.451807
0.346239
0.319279
0.321229
0.335361
0.349722
0.360875
0.367985
0.370206
0.369729
0.382548
0.202262
0.185708
0.195948
0.218257
0.240866
0.259635
0.273291
0.280065
0.279805
0.293409
0.0584486
0.0524066
0.0703784
0.100034
0.129994
0.155195
0.173592
0.183574
0.183878
0.178544
-0.0812573
-0.076928
-0.0518238
-0.0154158
0.0218581
0.0545367
0.080467
0.0991905
0.110882
0.115253
-0.21319
-0.198941
-0.167482
-0.125145
-0.08105
-0.0408418
-0.00688069
0.0207925
0.0430668
0.0570196
-0.334271
-0.310866
-0.274084
-0.227056
-0.17737
-0.130755
-0.0899002
-0.0549723
-0.0250575
-0.00425258
-0.442134
-0.410581
-0.36965
-0.319382
-0.265659
-0.214117
-0.167721
-0.126908
-0.0910064
-0.0647968
-0.535162
-0.496622
-0.452738
-0.400708
-0.344593
-0.289728
-0.239244
-0.193865
-0.153215
-0.122513
-0.612475
-0.568191
-0.522486
-0.470088
-0.413204
-0.356668
-0.303642
-0.255096
-0.210919
-0.176528
-0.673874
-0.625125
-0.578608
-0.527059
-0.470896
-0.414281
-0.360246
-0.309932
-0.263435
-0.226169
-0.719765
-0.667821
-0.62135
-0.571629
-0.517457
-0.462198
-0.408596
-0.357861
-0.310236
-0.270952
-0.751062
-0.697153
-0.651424
-0.604252
-0.553067
-0.500378
-0.448512
-0.398631
-0.351058
-0.310675
-0.769067
-0.714359
-0.669922
-0.625767
-0.578272
-0.52911
-0.480099
-0.432248
-0.385896
-0.345406
-0.775374
-0.720939
-0.678217
-0.637322
-0.593933
-0.548974
-0.503718
-0.458943
-0.414955
-0.375437
-0.771723
-0.718529
-0.677843
-0.640274
-0.601147
-0.560779
-0.519929
-0.479108
-0.438584
-0.401213
-0.759901
-0.708796
-0.670399
-0.63609
-0.601155
-0.565488
-0.529421
-0.493223
-0.457175
-0.423218
-0.741634
-0.693348
-0.65745
-0.626252
-0.595262
-0.564144
-0.532938
-0.50176
-0.471046
-0.441834
-0.718494
-0.673659
-0.640447
-0.612176
-0.58476
-0.5578
-0.531209
-0.505095
-0.480303
-0.45717
-0.691841
-0.651007
-0.620668
-0.595141
-0.570851
-0.547461
-0.524892
-0.503417
-0.484674
-0.468838
-0.662794
-0.626451
-0.59917
-0.57623
-0.554599
-0.534041
-0.514546
-0.496649
-0.483277
-0.475665
-0.632277
-0.600832
-0.576765
-0.556276
-0.536869
-0.518377
-0.500803
-0.484833
-0.474969
-0.475669
-0.60111
-0.574822
-0.554014
-0.535772
-0.518079
-0.500733
-0.483602
-0.466898
-0.455008
-0.457587
-0.570155
-0.549053
-0.5314
-0.515087
-0.498412
-0.480767
-0.461142
-0.437069
-0.405278
-0.373359
-0.540358
-0.524252
-0.509677
-0.495385
-0.48024
-0.463794
-0.445404
-0.423639
-0.396994
-0.371964
-0.512576
-0.501035
-0.489343
-0.477069
-0.463691
-0.449046
-0.432871
-0.414668
-0.394579
-0.376748
-0.487465
-0.479883
-0.470741
-0.460288
-0.448521
-0.435492
-0.421162
-0.405512
-0.389375
-0.375002
-0.465485
-0.461189
-0.454208
-0.445325
-0.434956
-0.42332
-0.410556
-0.396965
-0.383584
-0.37094
-0.446933
-0.445255
-0.440036
-0.432462
-0.423264
-0.412788
-0.401305
-0.38933
-0.377909
-0.366172
-0.431979
-0.432298
-0.428453
-0.421917
-0.413651
-0.404083
-0.393573
-0.382771
-0.37267
-0.361369
-0.420717
-0.422469
-0.419628
-0.413862
-0.406285
-0.397381
-0.387562
-0.377562
-0.368304
-0.357188
-0.413192
-0.415866
-0.413681
-0.408422
-0.4013
-0.392827
-0.383449
-0.373945
-0.365184
-0.354134
-0.409424
-0.41255
-0.410688
-0.405682
-0.398784
-0.390523
-0.38136
-0.372092
-0.363561
-0.352528
-0.166584
0.0201663
0.00650191
0.010401
0.00340909
0.00233943
0.00109043
0.000620783
0.000275189
0.000141748
-0.170419
0.019399
0.00634879
0.0102815
0.00339262
0.00232684
0.00108772
0.000618982
0.000274613
0.000141249
-0.177958
0.0178218
0.00605101
0.0100444
0.00335929
0.0023018
0.00108234
0.000615424
0.000273481
0.000140264
-0.188915
0.0153525
0.00562228
0.00969386
0.00330802
0.00226455
0.00107424
0.00061013
0.000271786
0.0001388
-0.202763
0.0119057
0.0050823
0.00923712
0.00323734
0.00221547
0.00106337
0.000603132
0.000269516
0.000136869
-0.218659
0.00745327
0.0044576
0.00868667
0.00314593
0.00215512
0.00104966
0.000594473
0.000266659
0.00013449
-0.235979
0.00188047
0.00373499
0.00805434
0.00303268
0.00208436
0.00103307
0.000584247
0.000263215
0.000131704
-0.255353
-0.00557909
0.00275231
0.0073263
0.00289328
0.00200335
0.0010136
0.000572655
0.00025924
0.000128593
-0.275122
-0.0157825
0.00138231
0.00646829
0.00271564
0.00190837
0.000990852
0.000559749
0.000254855
0.000125167
-0.279078
-0.0244681
0.00052821
0.00562449
0.00249923
0.00179537
0.000963283
0.000544256
0.000249776
0.000120896
-0.226875
-0.0352912
0.0030364
0.00420831
0.00199413
0.0014524
0.00087817
0.000485587
0.000229331
0.000101768
-0.162126
-0.0444587
-0.00079926
0.00103478
0.000218819
0.000563037
0.00052161
0.000319235
0.000158514
6.9776e-05
-0.112533
-0.0420902
-0.00367426
-0.000181594
-0.000636951
-2.68453e-05
0.000214379
0.000164251
8.58612e-05
3.9678e-05
-0.0726275
-0.0346778
-0.00561883
-0.0011154
-0.00118635
-0.000495761
-7.39856e-05
1.13169e-05
1.21752e-05
9.72867e-06
-0.0460251
-0.0272371
-0.00690998
-0.00200854
-0.00156656
-0.000845836
-0.000323922
-0.000130223
-5.76754e-05
-1.85077e-05
-0.0283236
-0.0207301
-0.0073742
-0.00270861
-0.00182806
-0.00109046
-0.000525112
-0.000252962
-0.00011984
-4.36606e-05
-0.0168865
-0.0155634
-0.00729479
-0.00320695
-0.00202004
-0.00125767
-0.000678017
-0.000353066
-0.000171859
-6.47566e-05
-0.00966124
-0.0117887
-0.00697657
-0.00353039
-0.00216036
-0.00136816
-0.00078643
-0.000428543
-0.000212028
-8.10552e-05
-0.00544848
-0.00934744
-0.00664912
-0.00371657
-0.00225289
-0.00143513
-0.00085513
-0.000478735
-0.000239298
-9.20352e-05
-0.00349993
-0.00814871
-0.00645693
-0.00380328
-0.00229955
-0.00146673
-0.000888434
-0.000503795
-0.000253239
-9.74616e-05
-0.228599
-0.253463
-0.27598
-0.296547
-0.315671
-0.333954
-0.352055
-0.37061
-0.389995
-0.411064
-0.0724436
-0.0813297
-0.0891011
-0.0959723
-0.102203
-0.108107
-0.114057
-0.1205
-0.127952
-0.138139
-0.0364031
-0.0435525
-0.05019
-0.0563079
-0.0618938
-0.0669327
-0.0714117
-0.0753269
-0.0786871
-0.0818484
-0.00712348
-0.0115176
-0.0156374
-0.0195007
-0.0231285
-0.0265429
-0.029765
-0.0328109
-0.0356687
-0.0384122
0.00227131
-0.00100321
-0.00412372
-0.00709148
-0.00990778
-0.0125736
-0.0150899
-0.0174553
-0.0196482
-0.0217193
0.00877202
0.00636311
0.00403235
0.00177881
-0.000399078
-0.00250319
-0.00453555
-0.0064964
-0.008374
-0.010199
0.0113424
0.00945976
0.00762242
0.00583199
0.0040897
0.00239635
0.000752361
-0.000841305
-0.00237859
-0.00387674
0.0128399
0.0113216
0.0098273
0.0083594
0.00691994
0.00551066
0.00413311
0.00278896
0.00148137
0.000204629
0.0134737
0.0121734
0.0108867
0.00961625
0.00836491
0.00713503
0.00592892
0.00474871
0.00359619
0.00247258
0.013743
0.0125564
0.0113779
0.01021
0.00905524
0.00791572
0.00679371
0.00569122
0.00460933
0.00355207
0.145477
0.103933
0.0595246
0.0171896
-0.0239162
-0.0639047
-0.102059
-0.137799
-0.170849
-0.20111
0.104762
0.0789971
0.0533809
0.0314703
0.0120057
-0.00601291
-0.022565
-0.0374477
-0.0506456
-0.0622655
0.0686303
0.0535884
0.0399322
0.028237
0.0175084
0.00723432
-0.00258395
-0.0118572
-0.020569
-0.0287441
0.0544748
0.0460937
0.0385203
0.031806
0.0254697
0.0193315
0.0134319
0.00782901
0.00253983
-0.00244117
0.0440164
0.0387413
0.033876
0.029429
0.0251585
0.020984
0.0169312
0.0130291
0.00928614
0.0057008
0.0372151
0.0338774
0.0307028
0.027723
0.0248291
0.0219808
0.0191889
0.0164684
0.0138249
0.0112594
0.032156
0.0298993
0.0276832
0.0255446
0.0234396
0.0213494
0.0192797
0.0172397
0.0152349
0.0132682
0.028684
0.0270792
0.0254657
0.0238709
0.0222803
0.0206872
0.0190952
0.0175104
0.0159373
0.0143794
0.0264649
0.0252169
0.0239445
0.0226622
0.0213675
0.0200601
0.0187436
0.0174228
0.0161018
0.0147842
0.0253835
0.0242878
0.0231661
0.022026
0.0208689
0.019697
0.018514
0.0173237
0.0161296
0.0149351
0.321595
0.320842
0.319029
0.315747
0.31023
0.301229
0.286959
0.265008
0.23266
0.186575
0.235592
0.234535
0.231788
0.227038
0.219976
0.210168
0.197038
0.179941
0.158097
0.130998
0.169305
0.16827
0.165578
0.161036
0.154564
0.146047
0.135296
0.12211
0.106086
0.0873561
0.122155
0.121362
0.119289
0.115798
0.110896
0.1046
0.0969013
0.0878195
0.0772868
0.0656504
0.0898486
0.0892893
0.0878171
0.0853333
0.0818625
0.0774515
0.0721345
0.0659584
0.058919
0.051233
0.0680529
0.0676635
0.0666366
0.0649045
0.0624923
0.0594455
0.0558039
0.0516152
0.0469055
0.0418192
0.0535759
0.0533017
0.0525785
0.0513591
0.0496633
0.0475266
0.0449809
0.0420616
0.0387943
0.0352628
0.0442519
0.0440513
0.0435223
0.0426305
0.041391
0.0398304
0.0379729
0.035844
0.0334666
0.0308906
0.0386973
0.0385396
0.0381239
0.0374234
0.0364497
0.0352234
0.033763
0.0320876
0.030216
0.0281788
0.0361049
0.0359667
0.0356029
0.0349901
0.0341381
0.0330646
0.0317853
0.0303161
0.028674
0.0268809
0.468978
0.470636
0.476922
0.487919
0.503559
0.524182
0.550277
0.582412
0.62117
0.666882
0.466771
0.468404
0.474608
0.485445
0.500833
0.521073
0.546597
0.577885
0.615378
0.659293
0.462408
0.463996
0.470044
0.480573
0.495467
0.514956
0.539354
0.568972
0.603959
0.644321
0.45599
0.457525
0.463356
0.473445
0.487627
0.506024
0.52878
0.555946
0.587234
0.62237
0.447656
0.449143
0.454718
0.464259
0.47754
0.494547
0.515196
0.539198
0.565668
0.594016
0.437576
0.439037
0.444335
0.453243
0.465466
0.480824
0.498966
0.519178
0.539832
0.559987
0.425943
0.427445
0.432484
0.440712
0.451761
0.465263
0.480554
0.496423
0.510405
0.521132
0.412963
0.414684
0.419589
0.427201
0.437095
0.448682
0.460917
0.471943
0.478361
0.478191
0.398716
0.400898
0.405852
0.412969
0.421808
0.431561
0.440733
0.446621
0.444631
0.430514
0.38289
0.385259
0.389813
0.395834
0.402894
0.410055
0.415527
0.416065
0.406692
0.378033
0.382895
0.385264
0.389818
0.395839
0.4029
0.41006
0.415533
0.416071
0.406698
0.37804
0.398721
0.400903
0.405857
0.412974
0.421813
0.431566
0.440738
0.446626
0.444637
0.43052
0.412968
0.414689
0.419593
0.427205
0.437099
0.448686
0.460922
0.471948
0.478366
0.478196
0.425947
0.427449
0.432488
0.440716
0.451765
0.465267
0.480558
0.496427
0.51041
0.521137
0.437579
0.43904
0.444338
0.453246
0.465469
0.480827
0.498969
0.519182
0.539836
0.559991
0.447659
0.449145
0.45472
0.464261
0.477543
0.49455
0.515199
0.539201
0.565671
0.59402
0.455992
0.457527
0.463358
0.473447
0.487629
0.506026
0.528782
0.555948
0.587237
0.622372
0.462409
0.463998
0.470045
0.480574
0.495468
0.514957
0.539356
0.568973
0.60396
0.644323
0.466771
0.468404
0.474609
0.485446
0.500834
0.521074
0.546598
0.577886
0.615379
0.659294
0.468979
0.470636
0.476923
0.487919
0.503559
0.524182
0.550278
0.582412
0.62117
0.666883
0.0361149
0.0359767
0.035613
0.0350001
0.0341482
0.0330746
0.0317953
0.0303261
0.0286839
0.0268908
0.0387073
0.0385496
0.038134
0.0374334
0.0364597
0.0352334
0.0337731
0.0320976
0.030226
0.0281887
0.0442619
0.0440613
0.0435323
0.0426405
0.041401
0.0398404
0.0379829
0.035854
0.0334766
0.0309005
0.0535857
0.0533116
0.0525884
0.0513689
0.0496731
0.0475364
0.0449907
0.0420713
0.0388041
0.0352726
0.0680624
0.0676731
0.0666462
0.0649142
0.0625019
0.0594551
0.0558135
0.0516248
0.0469151
0.0418288
0.0898578
0.0892985
0.0878264
0.0853425
0.0818717
0.0774607
0.0721437
0.0659675
0.0589282
0.0512421
0.122164
0.121371
0.119298
0.115807
0.110905
0.104608
0.0969102
0.0878284
0.0772958
0.0656594
0.169313
0.168279
0.165587
0.161044
0.154572
0.146056
0.135304
0.122119
0.106094
0.0873649
0.2356
0.234543
0.231796
0.227045
0.219984
0.210176
0.197046
0.179949
0.158106
0.131006
0.321602
0.320848
0.319036
0.315754
0.310237
0.301237
0.286967
0.265016
0.232668
0.186584
0.0253933
0.0242975
0.0231758
0.0220357
0.0208786
0.0197067
0.0185236
0.0173333
0.0161391
0.0149445
0.0264748
0.0252267
0.0239542
0.0226719
0.0213772
0.0200697
0.0187532
0.0174323
0.0161111
0.0147935
0.0286939
0.0270891
0.0254756
0.0238807
0.0222901
0.0206969
0.0191049
0.0175201
0.0159469
0.014389
0.0321657
0.029909
0.0276929
0.0255542
0.0234491
0.0213589
0.0192892
0.0172492
0.0152443
0.0132776
0.0372247
0.033887
0.0307123
0.0277323
0.0248383
0.0219899
0.0191979
0.0164772
0.0138336
0.011268
0.0440255
0.0387504
0.0338851
0.029438
0.0251673
0.0209927
0.0169397
0.0130375
0.00929427
0.00570872
0.0544839
0.0461027
0.038529
0.0318145
0.0254782
0.0193399
0.0134402
0.00783715
0.00254784
-0.00243327
0.0686393
0.0535973
0.039941
0.0282455
0.0175167
0.00724237
-0.00257611
-0.0118495
-0.0205615
-0.0287367
0.104771
0.079006
0.0533896
0.0314786
0.0120137
-0.00600512
-0.0225574
-0.0374404
-0.0506385
-0.0622587
0.145487
0.103943
0.0595341
0.0171987
-0.0239073
-0.0638961
-0.10205
-0.137791
-0.170841
-0.201102
0.0137524
0.0125656
0.0113869
0.0102189
0.00906382
0.00792408
0.00680183
0.00569909
0.00461691
0.00355937
0.0134828
0.0121824
0.0108955
0.0096248
0.00837318
0.00714308
0.00593675
0.00475632
0.00360355
0.0024797
0.0128494
0.011331
0.00983651
0.00836835
0.00692858
0.00551901
0.00414118
0.00279675
0.00148887
0.000211873
0.0113518
0.00946905
0.00763158
0.00584097
0.00409845
0.00240484
0.000760539
-0.000833467
-0.00237109
-0.00386955
0.0087805
0.00637146
0.00404059
0.00178687
-0.000391227
-0.00249554
-0.00452811
-0.00648919
-0.00836702
-0.0101923
0.00227898
-0.000995834
-0.00411663
-0.00708465
-0.00990113
-0.0125671
-0.0150835
-0.0174489
-0.0196419
-0.0217131
-0.00711569
-0.0115099
-0.0156298
-0.0194934
-0.0231215
-0.0265361
-0.0297584
-0.0328044
-0.0356624
-0.0384061
-0.0363958
-0.0435453
-0.050183
-0.056301
-0.0618871
-0.0669263
-0.0714056
-0.075321
-0.0786814
-0.0818429
-0.0724371
-0.0813236
-0.0890954
-0.095967
-0.102198
-0.108102
-0.114052
-0.120496
-0.127948
-0.138135
-0.228592
-0.253456
-0.275973
-0.29654
-0.315664
-0.333947
-0.352048
-0.370604
-0.389989
-0.411058
-0.00349397
-0.00814364
-0.00645285
-0.00379997
-0.00229675
-0.00146451
-0.000886875
-0.000502775
-0.000252678
-9.72896e-05
-0.0054426
-0.00934248
-0.00664507
-0.00371326
-0.00225013
-0.00143294
-0.000853585
-0.000477734
-0.000238752
-9.18651e-05
-0.00965549
-0.0117838
-0.0069726
-0.00352711
-0.00215766
-0.00136603
-0.000784923
-0.000427578
-0.000211502
-8.08859e-05
-0.0168808
-0.0155586
-0.00729088
-0.00320369
-0.00201741
-0.00125563
-0.000676566
-0.000352141
-0.000171359
-6.45912e-05
-0.0283178
-0.0207254
-0.00737034
-0.00270541
-0.00182552
-0.0010885
-0.000523728
-0.000252087
-0.000119381
-4.35083e-05
-0.0460191
-0.0272325
-0.00690627
-0.00200543
-0.00156413
-0.000843986
-0.000322615
-0.000129414
-5.72827e-05
-1.83772e-05
-0.0726216
-0.0346736
-0.00561534
-0.00111238
-0.00118404
-0.000494029
-7.27475e-05
1.20522e-05
1.24684e-05
9.82859e-06
-0.112527
-0.0420865
-0.00367096
-0.000178717
-0.000634848
-2.52758e-05
0.00021555
0.000164948
8.60533e-05
3.9733e-05
-0.16212
-0.0444558
-0.000796017
0.00103754
0.000220678
0.0005644
0.000522644
0.000319897
0.000158668
6.98018e-05
-0.22687
-0.0352896
0.0030396
0.00421076
0.00199571
0.00145353
0.000879036
0.000486151
0.000229488
0.000101809
-0.279074
-0.0244679
0.000531288
0.00562628
0.00250061
0.00179623
0.000964008
0.000544783
0.000249969
0.000120951
-0.275118
-0.0157826
0.00138528
0.00646987
0.00271693
0.00190914
0.000991517
0.000560239
0.000255042
0.000125219
-0.255349
-0.00557933
0.00275507
0.00732764
0.00289445
0.00200399
0.00101419
0.00057309
0.000259411
0.00012864
-0.235976
0.00188014
0.0037375
0.00805546
0.00303372
0.00208488
0.00103358
0.000584628
0.000263373
0.000131747
-0.218657
0.00745291
0.00445978
0.00868754
0.00314685
0.00215551
0.0010501
0.000594801
0.000266805
0.00013453
-0.202761
0.0119054
0.00508414
0.00923774
0.00323815
0.00221573
0.00106374
0.000603408
0.000269651
0.000136907
-0.188913
0.0153523
0.00562373
0.00969424
0.00330873
0.00226469
0.00107454
0.000610354
0.000271911
0.000138836
-0.177957
0.0178217
0.00605205
0.0100446
0.00335988
0.00230183
0.00108257
0.000615591
0.000273588
0.000140295
-0.170419
0.019399
0.00634939
0.0102815
0.00339302
0.00232683
0.00108787
0.000619086
0.000274687
0.000141272
-0.166584
0.0201663
0.00650212
0.010401
0.00340923
0.00233942
0.00109048
0.000620819
0.000275217
0.000141757
)
;

boundaryField
{
    inlet
    {
        type            zeroGradient;
    }
    outlet
    {
        type            fixedValue;
        value           uniform 0;
    }
    cylinder
    {
        type            zeroGradient;
    }
    top
    {
        type            symmetryPlane;
    }
    bottom
    {
        type            symmetryPlane;
    }
    defaultFaces
    {
        type            empty;
    }
}


// ************************************************************************* //
