1.45 	0 	0 	-0.291387
2.35 	0 	0 	-0.126632
