1.45 	0 	0 	-0.00631744 	-0.00269084 	3.9137e-21
2.35 	0 	0 	0.0666552 	-0.00678675 	2.43808e-21
