/*--------------------------------*- C++ -*----------------------------------*\
  =========                 |
  \\      /  F ield         | OpenFOAM: The Open Source CFD Toolbox
   \\    /   O peration     | Website:  https://openfoam.org
    \\  /    A nd           | Version:  6.0
     \\/     M anipulation  |
\*---------------------------------------------------------------------------*/
FoamFile
{
    version     2.0;
    format      ascii;
    class       volScalarField;
    location    "0.2";
    object      p;
}
// * * * * * * * * * * * * * * * * * * * * * * * * * * * * * * * * * * * * * //

dimensions      [0 2 -2 0 0 0 0];

internalField   nonuniform List<scalar> 
800
(
8.09154e-10
-0.000141785
-0.000365002
-0.000608029
-0.000840832
-0.00105675
-0.00125783
-0.00144759
-0.00162748
-0.00179606
-0.00194929
-0.00208121
-0.00218433
-0.00224978
-0.00226715
-0.00222408
-0.00210569
-0.00189395
-0.00156689
-0.00109783
-0.000454584
0.000401252
0.0015146
0.00293656
0.00472261
0.00692863
0.00960335
0.012776
0.0164386
0.0205241
0.0248847
0.0292804
0.0333894
0.0368549
0.0393676
0.0407665
0.0411132
0.0406982
0.0399654
0.0393933
0.000125623
-2.25968e-05
-0.000208858
-0.000405917
-0.000603595
-0.000797299
-0.000986265
-0.00117037
-0.00134797
-0.00151551
-0.00166767
-0.00179779
-0.00189795
-0.00195899
-0.00197019
-0.00191894
-0.00179022
-0.00156603
-0.00122485
-0.000741004
-8.41691e-05
0.000781022
0.00189503
0.0033029
0.00505268
0.00719221
0.0097631
0.0127908
0.0162699
0.0201437
0.0242838
0.0284746
0.03242
0.0357839
0.0382702
0.0397219
0.0401962
0.039962
0.0393919
0.0388436
0.000337225
0.000136124
-5.24397e-05
-0.000229948
-0.000408063
-0.000587746
-0.0007691
-0.000951214
-0.00113095
-0.00130324
-0.00146168
-0.0015989
-0.00170661
-0.00177551
-0.00179496
-0.00175264
-0.00163409
-0.00142225
-0.00109699
-0.000634599
-7.42395e-06
0.00081652
0.00187372
0.00320511
0.00485546
0.00687168
0.00929903
0.0121733
0.0155069
0.0192678
0.0233528
0.0275634
0.031602
0.0351066
0.0377358
0.0392844
0.0397826
0.0395024
0.0388191
0.0380805
0.000568586
0.000294716
8.28114e-05
-9.2085e-05
-0.000262925
-0.000437201
-0.000617389
-0.000803122
-0.000990655
-0.00117396
-0.00134581
-0.00149827
-0.00162287
-0.0017104
-0.00175069
-0.00173228
-0.00164204
-0.00146478
-0.00118288
-0.000775857
-0.000219942
0.000512388
0.00145307
0.00263927
0.0041144
0.00592866
0.00813803
0.010799
0.0139555
0.0176149
0.0217129
0.026075
0.0303958
0.0342622
0.0372413
0.0390247
0.0395719
0.0391551
0.0382076
0.0371673
0.000756496
0.000408621
0.000168031
-1.12348e-05
-0.000181879
-0.000357401
-0.000542501
-0.000737416
-0.000938003
-0.00113753
-0.00132817
-0.00150167
-0.00164957
-0.00176307
-0.00183287
-0.00184891
-0.00180013
-0.00167418
-0.00145714
-0.00113315
-0.00068403
-8.85372e-05
0.000678806
0.0016497
0.00286497
0.00437805
0.00625761
0.00858608
0.0114492
0.0149107
0.0189685
0.0234994
0.0282109
0.0326378
0.0362221
0.0384852
0.0392428
0.0387241
0.0374393
0.0359988
0.000847009
0.000430489
0.000161027
-2.6156e-05
-0.000201419
-0.000383289
-0.000578086
-0.000786379
-0.00100363
-0.00122258
-0.00143503
-0.00163264
-0.00180726
-0.00195082
-0.00205528
-0.00211257
-0.00211439
-0.00205215
-0.00191678
-0.00169859
-0.00138685
-0.000968992
-0.000428997
0.000255678
0.00111894
0.00221277
0.00361444
0.00543117
0.00779603
0.0108465
0.0146771
0.0192651
0.0243853
0.0295553
0.0340759
0.0372175
0.0385275
0.0380807
0.0364225
0.0344218
0.000795401
0.000316164
1.93921e-05
-0.000176831
-0.000358836
-0.000549379
-0.000755852
-0.000978856
-0.00121344
-0.00145192
-0.00168595
-0.00190738
-0.00210859
-0.00228255
-0.00242291
-0.00252399
-0.00258089
-0.00258958
-0.00254695
-0.00245093
-0.00230033
-0.00209418
-0.00183008
-0.00150051
-0.00108654
-0.000548009
0.000189262
0.00124706
0.002803
0.00508216
0.00831603
0.0126546
0.0180354
0.0240491
0.0298906
0.0345087
0.0370004
0.0370578
0.0350945
0.0323048
0.000563179
2.48859e-05
-0.000296895
-0.000500498
-0.000687669
-0.000885144
-0.00110113
-0.00133612
-0.00158472
-0.00183899
-0.00209056
-0.00233164
-0.0025554
-0.00275606
-0.00292918
-0.00307185
-0.00318297
-0.00326368
-0.00331774
-0.00335204
-0.003377
-0.00340649
-0.00345672
-0.00354284
-0.00367202
-0.00383124
-0.00396836
-0.00396673
-0.00361775
-0.00260479
-0.000523985
0.0030264
0.00827044
0.0150213
0.0224911
0.0293173
0.0339606
0.0353653
0.0334263
0.0295925
0.000114693
-0.000482835
-0.000826638
-0.00103228
-0.00121815
-0.00141554
-0.00163369
-0.00187299
-0.00212771
-0.00238967
-0.00265063
-0.00290324
-0.00314149
-0.00336098
-0.00355925
-0.00373627
-0.00389496
-0.00404194
-0.0041884
-0.0043512
-0.00455409
-0.00482871
-0.00521467
-0.00575742
-0.00650188
-0.0074788
-0.00867979
-0.010018
-0.0112758
-0.012055
-0.0117639
-0.00969453
-0.00522902
0.00183467
0.0109348
0.0205657
0.0285079
0.0325495
0.0314116
0.02639
-0.000587023
-0.00124867
-0.00160976
-0.00180641
-0.0019777
-0.00216123
-0.00236788
-0.00259822
-0.00284613
-0.00310324
-0.00336136
-0.00361349
-0.00385438
-0.00408083
-0.00429226
-0.00449136
-0.00468496
-0.00488511
-0.00511057
-0.00538858
-0.00575712
-0.00626733
-0.00698524
-0.00799167
-0.00937721
-0.011228
-0.0135953
-0.0164417
-0.0195623
-0.0224978
-0.0244836
-0.024506
-0.0215212
-0.0148371
-0.00457517
0.00793633
0.0200432
0.0281758
0.0290937
0.0231371
-0.00158616
-0.00232193
-0.00269098
-0.00285807
-0.00299143
-0.00313828
-0.00331214
-0.00351382
-0.00373674
-0.00397201
-0.0042112
-0.00444741
-0.00467574
-0.00489388
-0.00510269
-0.00530715
-0.00551753
-0.00575087
-0.00603301
-0.00640121
-0.00690743
-0.00762211
-0.00863775
-0.0100706
-0.0120571
-0.0147395
-0.0182299
-0.0225444
-0.0275007
-0.0326004
-0.0369476
-0.0392856
-0.0382144
-0.0325819
-0.0219706
-0.00720461
0.00913287
0.0223703
0.026798
0.0209156
-0.00294345
-0.00376794
-0.00412493
-0.00422509
-0.00428169
-0.0043566
-0.00446673
-0.00461277
-0.00478687
-0.00497894
-0.00517969
-0.00538166
-0.00557979
-0.00577199
-0.00595994
-0.00615021
-0.00635568
-0.00659752
-0.00690766
-0.00733218
-0.00793545
-0.00880506
-0.0100565
-0.011836
-0.0143174
-0.0176864
-0.0221007
-0.0276137
-0.0340587
-0.0409128
-0.0472001
-0.0515192
-0.0522529
-0.0479351
-0.0376844
-0.0216791
-0.00192822
0.0164946
0.0256564
0.0217142
-0.00475246
-0.00568143
-0.00598234
-0.00594807
-0.00586482
-0.00581515
-0.00581846
-0.00587331
-0.00596881
-0.00609217
-0.00623209
-0.00637965
-0.00652878
-0.00667684
-0.0068255
-0.00698201
-0.00716095
-0.00738641
-0.00769505
-0.00813996
-0.00879543
-0.00976239
-0.0111734
-0.0131952
-0.0160245
-0.0198693
-0.0249055
-0.0311951
-0.0385666
-0.046476
-0.0539113
-0.059418
-0.0612982
-0.0579434
-0.0481898
-0.0316755
-0.009617
0.0133135
0.0279994
0.0282841
-0.00717168
-0.00820884
-0.00835636
-0.00806579
-0.00774203
-0.00749137
-0.00732959
-0.00724801
-0.00722896
-0.00725445
-0.00730933
-0.00738192
-0.00746412
-0.00755181
-0.00764579
-0.00775314
-0.00788908
-0.00807951
-0.0083643
-0.00880153
-0.00947245
-0.0104868
-0.0119874
-0.0141505
-0.0171796
-0.0212825
-0.0266245
-0.0332461
-0.0409468
-0.049157
-0.056851
-0.0625756
-0.0646324
-0.0613773
-0.0515254
-0.0344051
-0.0105662
0.0162267
0.0369769
0.0436076
-0.010493
-0.0115871
-0.0113642
-0.0105987
-0.00987841
-0.00931966
-0.00891693
-0.00864358
-0.00846868
-0.00836494
-0.00831082
-0.00829013
-0.00829141
-0.00830811
-0.00833929
-0.00839105
-0.00847848
-0.00862829
-0.0088823
-0.00930167
-0.0099717
-0.0110065
-0.012552
-0.0147843
-0.017899
-0.0220851
-0.0274751
-0.0340642
-0.0416039
-0.0494874
-0.0566763
-0.061726
-0.0629468
-0.0586729
-0.0475555
-0.0288019
-0.00261341
0.028171
0.0556527
0.0705356
-0.0152969
-0.0162088
-0.0151242
-0.0135018
-0.0121571
-0.0111498
-0.010414
-0.00988656
-0.00951342
-0.00925206
-0.00907085
-0.00894658
-0.00886275
-0.0088091
-0.00878208
-0.00878613
-0.00883565
-0.00895758
-0.00919476
-0.0096099
-0.0102898
-0.0113487
-0.0129296
-0.0151993
-0.0183342
-0.0224909
-0.0277536
-0.0340584
-0.0410945
-0.048205
-0.0543213
-0.057979
-0.0574498
-0.0509789
-0.0370943
-0.0149223
0.0153728
0.0514515
0.0868736
0.112236
-0.022866
-0.0227289
-0.0196828
-0.0165903
-0.0143221
-0.0126994
-0.0115303
-0.0106901
-0.0100879
-0.00965725
-0.00935039
-0.00913292
-0.00898057
-0.00887763
-0.00881695
-0.00880079
-0.00884258
-0.00896927
-0.00922428
-0.00967082
-0.0103951
-0.011508
-0.0131441
-0.0154536
-0.0185848
-0.0226518
-0.0276818
-0.0335424
-0.0398529
-0.0458933
-0.0505426
-0.0522742
-0.0492489
-0.0395029
-0.0212683
0.0066051
0.0439705
0.0885067
0.134988
0.174827
-0.0366361
-0.0321895
-0.0249405
-0.0194744
-0.0158712
-0.0134338
-0.0117492
-0.010583
-0.00977785
-0.00922407
-0.00884654
-0.00859376
-0.00843053
-0.00833428
-0.00829379
-0.00830937
-0.00839392
-0.0085748
-0.00889611
-0.00942113
-0.0102341
-0.0114402
-0.0131617
-0.0155276
-0.0186529
-0.0226044
-0.0273492
-0.0326847
-0.0381582
-0.0429828
-0.0459755
-0.0455268
-0.0396439
-0.0260504
-0.00244531
0.0331093
0.081276
0.140428
0.206965
0.27272
-0.0672781
-0.044853
-0.028377
-0.0193818
-0.0143905
-0.0113305
-0.00942414
-0.00826659
-0.00757476
-0.00717027
-0.00695023
-0.00685259
-0.00683758
-0.00688119
-0.00697286
-0.00711489
-0.00732277
-0.00762651
-0.0080723
-0.00872419
-0.00966466
-0.010993
-0.0128192
-0.0152517
-0.0183746
-0.0222131
-0.0266833
-0.0315259
-0.0362318
-0.0399629
-0.0414936
-0.0391605
-0.0308666
-0.0140691
0.0141272
0.0569847
0.117726
0.1991
0.303205
0.42417
-0.147805
-0.0535443
-0.0175496
-0.00858761
-0.00520902
-0.00322123
-0.00233243
-0.00218811
-0.00239433
-0.00273526
-0.00312576
-0.00353107
-0.00393369
-0.00432707
-0.00471498
-0.00511145
-0.00554138
-0.00604205
-0.00666486
-0.0074769
-0.00856124
-0.0100145
-0.0119399
-0.0144334
-0.0175612
-0.0213258
-0.0256182
-0.0301553
-0.0344083
-0.0375264
-0.0382815
-0.0350135
-0.0256249
-0.00749291
0.0225334
0.0687658
0.137326
0.239882
0.391737
0.601671
)
;

boundaryField
{
    movingWall
    {
        type            zeroGradient;
    }
    fixedWalls
    {
        type            zeroGradient;
    }
    frontAndBack
    {
        type            empty;
    }
}


// ************************************************************************* //
