/*--------------------------------*- C++ -*----------------------------------*\
  =========                 |
  \\      /  F ield         | OpenFOAM: The Open Source CFD Toolbox
   \\    /   O peration     | Website:  https://openfoam.org
    \\  /    A nd           | Version:  6.0
     \\/     M anipulation  |
\*---------------------------------------------------------------------------*/
FoamFile
{
    version     2.0;
    format      ascii;
    class       volVectorField;
    location    "0.2";
    object      U;
}
// * * * * * * * * * * * * * * * * * * * * * * * * * * * * * * * * * * * * * //

dimensions      [0 1 -1 0 0 0 0];

internalField   nonuniform List<vector> 
800
(
(0.000149308 -0.000160156 0)
(0.00025198 -5.57723e-05 0)
(-8.20723e-05 0.00011586 0)
(-0.000792266 0.000234993 0)
(-0.00174281 0.000298597 0)
(-0.00281407 0.000325477 0)
(-0.00393551 0.000334515 0)
(-0.00507499 0.000338591 0)
(-0.00622468 0.00034437 0)
(-0.00738872 0.000354305 0)
(-0.00857567 0.000368789 0)
(-0.00979521 0.000387633 0)
(-0.0110575 0.000410825 0)
(-0.0123738 0.00043881 0)
(-0.0137573 0.000472512 0)
(-0.015224 0.000513242 0)
(-0.0167932 0.000562565 0)
(-0.0184878 0.000622122 0)
(-0.0203334 0.000693392 0)
(-0.0223574 0.000777326 0)
(-0.0245857 0.000873806 0)
(-0.0270388 0.000980834 0)
(-0.0297246 0.00109339 0)
(-0.0326285 0.00120189 0)
(-0.0356996 0.00129035 0)
(-0.0388341 0.00133461 0)
(-0.0418567 0.00130149 0)
(-0.0445058 0.00115031 0)
(-0.0464293 0.000839038 0)
(-0.0472036 0.000336691 0)
(-0.0463881 -0.000357911 0)
(-0.0436216 -0.00119513 0)
(-0.0387526 -0.00206081 0)
(-0.0319718 -0.0027829 0)
(-0.0238926 -0.0031691 0)
(-0.015516 -0.00307327 0)
(-0.00804315 -0.0024662 0)
(-0.0025682 -0.00146858 0)
(0.000243153 -0.000339787 0)
(0.000468165 0.000413978 0)
(3.55903e-05 -0.000258206 0)
(-0.00040819 0.000353508 0)
(-0.00184316 0.00111999 0)
(-0.00406988 0.00168435 0)
(-0.00681438 0.00201998 0)
(-0.00985382 0.00218792 0)
(-0.0130363 0.00226042 0)
(-0.0162776 0.00229301 0)
(-0.0195431 0.00231877 0)
(-0.0228269 0.00235351 0)
(-0.0261376 0.00240337 0)
(-0.0294903 0.00247069 0)
(-0.0329043 0.00255746 0)
(-0.0364027 0.00266678 0)
(-0.0400135 0.00280318 0)
(-0.0437702 0.00297231 0)
(-0.0477125 0.00318025 0)
(-0.0518854 0.00343258 0)
(-0.0563372 0.00373285 0)
(-0.061115 0.00408062 0)
(-0.0662574 0.00446845 0)
(-0.0717829 0.00487802 0)
(-0.0776736 0.00527505 0)
(-0.0838541 0.00560356 0)
(-0.0901645 0.00578022 0)
(-0.096332 0.00569114 0)
(-0.101946 0.00519471 0)
(-0.106446 0.0041357 0)
(-0.109135 0.00237615 0)
(-0.10924 -0.00015424 0)
(-0.106017 -0.00339272 0)
(-0.098923 -0.00707984 0)
(-0.0878137 -0.0107278 0)
(-0.0731384 -0.0136591 0)
(-0.0560549 -0.0151459 0)
(-0.0383798 -0.0146458 0)
(-0.0222994 -0.0120612 0)
(-0.00984724 -0.00788649 0)
(-0.00235317 -0.0031702 0)
(2.24919e-05 0.000363945 0)
(-0.000181069 0.000137617 0)
(-0.00141023 0.00186878 0)
(-0.00415729 0.00366266 0)
(-0.00796211 0.00499015 0)
(-0.0124256 0.00580868 0)
(-0.0172663 0.00623964 0)
(-0.0222868 0.00643378 0)
(-0.02737 0.00651342 0)
(-0.0324603 0.00655687 0)
(-0.0375402 0.00660606 0)
(-0.0426131 0.00668091 0)
(-0.0476937 0.00679144 0)
(-0.0528043 0.0069453 0)
(-0.0579738 0.00715132 0)
(-0.0632379 0.00742038 0)
(-0.0686399 0.00776485 0)
(-0.07423 0.00819697 0)
(-0.0800639 0.00872631 0)
(-0.0861996 0.00935609 0)
(-0.0926901 0.0100779 0)
(-0.0995739 0.0108647 0)
(-0.106859 0.0116618 0)
(-0.114503 0.0123763 0)
(-0.122386 0.0128668 0)
(-0.130281 0.0129346 0)
(-0.137826 0.0123241 0)
(-0.144495 0.0107366 0)
(-0.149599 0.00786777 0)
(-0.1523 0.00347467 0)
(-0.151684 -0.00252543 0)
(-0.14687 -0.00993631 0)
(-0.137193 -0.018172 0)
(-0.122423 -0.0262036 0)
(-0.102997 -0.0326292 0)
(-0.0802116 -0.03593 0)
(-0.056253 -0.0349286 0)
(-0.0339322 -0.0293471 0)
(-0.0160468 -0.0201957 0)
(-0.00463712 -0.00972071 0)
(-0.000371876 -0.00117457 0)
(-0.000401818 0.00110965 0)
(-0.00243729 0.0045568 0)
(-0.00651143 0.00769211 0)
(-0.0118467 0.009947 0)
(-0.0178994 0.0113282 0)
(-0.0243371 0.0120502 0)
(-0.0309332 0.0123612 0)
(-0.0375514 0.0124616 0)
(-0.0441244 0.0124828 0)
(-0.0506272 0.0124988 0)
(-0.057059 0.0125477 0)
(-0.0634332 0.0126508 0)
(-0.069773 0.0128241 0)
(-0.0761102 0.0130843 0)
(-0.0824851 0.0134504 0)
(-0.0889463 0.0139424 0)
(-0.0955504 0.014579 0)
(-0.10236 0.0153732 0)
(-0.109439 0.0163261 0)
(-0.116847 0.0174175 0)
(-0.124628 0.0185951 0)
(-0.132792 0.0197599 0)
(-0.141301 0.0207502 0)
(-0.150034 0.0213273 0)
(-0.158764 0.021166 0)
(-0.167125 0.0198584 0)
(-0.174588 0.0169391 0)
(-0.180441 0.0119438 0)
(-0.183803 0.00450836 0)
(-0.183659 -0.00548978 0)
(-0.178957 -0.017758 0)
(-0.168765 -0.0314168 0)
(-0.152518 -0.0448913 0)
(-0.130329 -0.0559638 0)
(-0.103321 -0.0621051 0)
(-0.0738496 -0.0611674 0)
(-0.045386 -0.0523643 0)
(-0.0218278 -0.0371254 0)
(-0.0064037 -0.0191682 0)
(-0.000531978 -0.00368219 0)
(-0.000599156 0.00262091 0)
(-0.00337973 0.00835832 0)
(-0.00868897 0.0130969 0)
(-0.0154216 0.0163706 0)
(-0.0228789 0.0183197 0)
(-0.0306777 0.0192972 0)
(-0.0385685 0.0196702 0)
(-0.0464049 0.0197264 0)
(-0.0541151 0.0196543 0)
(-0.0616721 0.0195618 0)
(-0.0690738 0.0195074 0)
(-0.0763336 0.0195254 0)
(-0.0834758 0.0196418 0)
(-0.0905343 0.0198827 0)
(-0.0975524 0.0202758 0)
(-0.104583 0.0208498 0)
(-0.111687 0.0216307 0)
(-0.118935 0.0226359 0)
(-0.126399 0.0238653 0)
(-0.134154 0.0252894 0)
(-0.14226 0.0268333 0)
(-0.150759 0.0283582 0)
(-0.159647 0.0296402 0)
(-0.168858 0.0303513 0)
(-0.178231 0.0300478 0)
(-0.187474 0.0281737 0)
(-0.196131 0.0240909 0)
(-0.203543 0.0171477 0)
(-0.208819 0.00679907 0)
(-0.210829 -0.00721568 0)
(-0.208257 -0.0246378 0)
(-0.199738 -0.0444269 0)
(-0.184121 -0.0645411 0)
(-0.160884 -0.0818928 0)
(-0.130643 -0.0926705 0)
(-0.0956562 -0.0932309 0)
(-0.060034 -0.0816181 0)
(-0.0292226 -0.0592733 0)
(-0.00850221 -0.0316888 0)
(-0.000641696 -0.00693181 0)
(-0.000769914 0.00461037 0)
(-0.00421204 0.0131664 0)
(-0.0106242 0.0197412 0)
(-0.0185862 0.0240909 0)
(-0.0272447 0.0265741 0)
(-0.0361652 0.0277336 0)
(-0.0450797 0.0280805 0)
(-0.0538375 0.0280008 0)
(-0.0623686 0.0277429 0)
(-0.0706487 0.02745 0)
(-0.0786781 0.027201 0)
(-0.0864721 0.0270437 0)
(-0.0940571 0.027015 0)
(-0.101469 0.0271504 0)
(-0.108754 0.0274877 0)
(-0.115967 0.0280651 0)
(-0.123175 0.0289179 0)
(-0.130456 0.030071 0)
(-0.137897 0.0315289 0)
(-0.145593 0.0332601 0)
(-0.153639 0.0351789 0)
(-0.162127 0.0371212 0)
(-0.171125 0.0388188 0)
(-0.18066 0.0398738 0)
(-0.190686 0.0397401 0)
(-0.201046 0.0377192 0)
(-0.211412 0.0329839 0)
(-0.221219 0.0246439 0)
(-0.229591 0.0118741 0)
(-0.23528 -0.00587367 0)
(-0.236665 -0.0285629 0)
(-0.231859 -0.0551862 0)
(-0.218987 -0.0833786 0)
(-0.196655 -0.109195 0)
(-0.16461 -0.127305 0)
(-0.124528 -0.131943 0)
(-0.0807409 -0.118941 0)
(-0.0403811 -0.0887392 0)
(-0.0119303 -0.0486742 0)
(-0.000912688 -0.0112657 0)
(-0.000920134 0.00701743 0)
(-0.00495132 0.0188645 0)
(-0.0123432 0.027474 0)
(-0.0213757 0.0329259 0)
(-0.0310454 0.0358793 0)
(-0.040869 0.0371192 0)
(-0.0505648 0.0373288 0)
(-0.059984 0.0370032 0)
(-0.0690639 0.0364544 0)
(-0.0777872 0.0358602 0)
(-0.08616 0.0353194 0)
(-0.0942017 0.0348925 0)
(-0.101941 0.0346264 0)
(-0.109417 0.0345665 0)
(-0.116675 0.0347603 0)
(-0.123774 0.0352575 0)
(-0.130784 0.0361053 0)
(-0.137791 0.0373417 0)
(-0.144896 0.0389836 0)
(-0.152219 0.0410105 0)
(-0.159899 0.0433425 0)
(-0.168087 0.0458119 0)
(-0.17694 0.0481313 0)
(-0.186599 0.0498584 0)
(-0.197161 0.0503646 0)
(-0.208628 0.0488144 0)
(-0.220831 0.04417 0)
(-0.233332 0.0352409 0)
(-0.245307 0.0208117 0)
(-0.255438 -0.0001139 0)
(-0.261865 -0.0279208 0)
(-0.262264 -0.061853 0)
(-0.254089 -0.0994354 0)
(-0.235022 -0.136026 0)
(-0.203639 -0.164762 0)
(-0.160372 -0.177291 0)
(-0.108801 -0.165972 0)
(-0.0570478 -0.128312 0)
(-0.0176984 -0.0725215 0)
(-0.0015631 -0.0175449 0)
(-0.00106116 0.00980054 0)
(-0.00564097 0.025363 0)
(-0.0139304 0.0361689 0)
(-0.0239122 0.0427154 0)
(-0.0344363 0.0460453 0)
(-0.0449769 0.0472398 0)
(-0.0552467 0.0471826 0)
(-0.065106 0.0464893 0)
(-0.0745057 0.0455372 0)
(-0.0834403 0.0445379 0)
(-0.0919246 0.0436074 0)
(-0.0999836 0.0428169 0)
(-0.107649 0.0422219 0)
(-0.11496 0.041876 0)
(-0.121964 0.0418368 0)
(-0.128716 0.0421658 0)
(-0.135287 0.0429256 0)
(-0.141768 0.0441726 0)
(-0.148268 0.0459459 0)
(-0.154929 0.0482495 0)
(-0.161923 0.0510281 0)
(-0.169459 0.0541345 0)
(-0.177771 0.057289 0)
(-0.187111 0.0600323 0)
(-0.19771 0.0616747 0)
(-0.209724 0.0612516 0)
(-0.223148 0.0574983 0)
(-0.237694 0.0488763 0)
(-0.252649 0.0336961 0)
(-0.266744 0.0103951 0)
(-0.278076 -0.0219828 0)
(-0.284153 -0.0631252 0)
(-0.282061 -0.110712 0)
(-0.268762 -0.159768 0)
(-0.241578 -0.202268 0)
(-0.199076 -0.227318 0)
(-0.142756 -0.222792 0)
(-0.0799291 -0.180506 0)
(-0.0268297 -0.106393 0)
(-0.00287315 -0.0271275 0)
(-0.0012087 0.0129482 0)
(-0.00634337 0.0326243 0)
(-0.0155089 0.0457504 0)
(-0.0263707 0.0533427 0)
(-0.0376315 0.0569191 0)
(-0.048734 0.0579157 0)
(-0.059398 0.057445 0)
(-0.0695041 0.0562524 0)
(-0.0790242 0.054781 0)
(-0.0879697 0.0532725 0)
(-0.096367 0.0518564 0)
(-0.104248 0.0506113 0)
(-0.111647 0.0495978 0)
(-0.118604 0.0488758 0)
(-0.12516 0.0485111 0)
(-0.131368 0.0485771 0)
(-0.137293 0.0491529 0)
(-0.143017 0.0503177 0)
(-0.14865 0.0521396 0)
(-0.154338 0.0546589 0)
(-0.160268 0.0578611 0)
(-0.166676 0.0616399 0)
(-0.173846 0.0657477 0)
(-0.182101 0.0697331 0)
(-0.191765 0.072868 0)
(-0.203117 0.0740732 0)
(-0.216295 0.0718616 0)
(-0.231177 0.0643389 0)
(-0.247243 0.049324 0)
(-0.263441 0.024664 0)
(-0.278115 -0.0112146 0)
(-0.289011 -0.0585599 0)
(-0.293329 -0.115487 0)
(-0.287779 -0.177229 0)
(-0.268684 -0.235415 0)
(-0.232494 -0.277388 0)
(-0.177463 -0.286415 0)
(-0.107659 -0.24592 0)
(-0.0402026 -0.153637 0)
(-0.005261 -0.041904 0)
(-0.00138434 0.0164887 0)
(-0.00714065 0.0406782 0)
(-0.0172342 0.0562053 0)
(-0.0289613 0.0647373 0)
(-0.0408723 0.0683802 0)
(-0.0523974 0.068991 0)
(-0.063284 0.067939 0)
(-0.0734481 0.0661052 0)
(-0.0828926 0.0639949 0)
(-0.0916518 0.0618739 0)
(-0.099767 0.0598794 0)
(-0.107279 0.058092 0)
(-0.114224 0.0565732 0)
(-0.120641 0.0553854 0)
(-0.126566 0.0545992 0)
(-0.132041 0.0542976 0)
(-0.137116 0.0545747 0)
(-0.141857 0.0555324 0)
(-0.146356 0.0572705 0)
(-0.150736 0.0598706 0)
(-0.15517 0.0633677 0)
(-0.159879 0.0677097 0)
(-0.165147 0.0726977 0)
(-0.171306 0.0779091 0)
(-0.178717 0.0826016 0)
(-0.187723 0.0856111 0)
(-0.198575 0.085266 0)
(-0.211333 0.0793693 0)
(-0.225753 0.0653239 0)
(-0.241182 0.0404788 0)
(-0.2565 0.00272187 0)
(-0.270096 -0.0487672 0)
(-0.279803 -0.112771 0)
(-0.282682 -0.18534 0)
(-0.274659 -0.258858 0)
(-0.250403 -0.320424 0)
(-0.204493 -0.349919 0)
(-0.135803 -0.321192 0)
(-0.0579155 -0.216461 0)
(-0.00930056 -0.0643031 0)
(-0.00162018 0.0205041 0)
(-0.00814454 0.0496369 0)
(-0.0193015 0.0675864 0)
(-0.0319252 0.0768656 0)
(-0.0444086 0.080321 0)
(-0.056202 0.0803084 0)
(-0.0671122 0.0784788 0)
(-0.0771122 0.0758481 0)
(-0.0862489 0.0729744 0)
(-0.0945866 0.0701376 0)
(-0.102186 0.0674748 0)
(-0.109098 0.0650615 0)
(-0.115367 0.0629547 0)
(-0.121026 0.0612137 0)
(-0.126106 0.059909 0)
(-0.130635 0.0591276 0)
(-0.134642 0.0589736 0)
(-0.138167 0.0595661 0)
(-0.141263 0.0610324 0)
(-0.144011 0.0634915 0)
(-0.146529 0.0670272 0)
(-0.148981 0.0716433 0)
(-0.151591 0.0771979 0)
(-0.154641 0.0833132 0)
(-0.158459 0.0892619 0)
(-0.163401 0.0938435 0)
(-0.169798 0.09528 0)
(-0.177905 0.0911883 0)
(-0.18782 0.0787134 0)
(-0.199424 0.0548929 0)
(-0.212327 0.017252 0)
(-0.22582 -0.0355115 0)
(-0.238729 -0.102953 0)
(-0.249004 -0.182412 0)
(-0.252954 -0.268102 0)
(-0.244375 -0.348767 0)
(-0.214762 -0.403453 0)
(-0.157269 -0.397918 0)
(-0.0781386 -0.29356 0)
(-0.0155223 -0.0969891 0)
(-0.00196912 0.0251542 0)
(-0.0095196 0.0597167 0)
(-0.0219681 0.0800095 0)
(-0.0355432 0.0897065 0)
(-0.048485 0.0926108 0)
(-0.0603241 0.0916673 0)
(-0.0709752 0.0888249 0)
(-0.0804973 0.0852223 0)
(-0.0889975 0.0814524 0)
(-0.0965796 0.0777953 0)
(-0.103329 0.0743768 0)
(-0.109315 0.0712597 0)
(-0.114586 0.0684898 0)
(-0.119182 0.0661165 0)
(-0.123127 0.0642037 0)
(-0.126435 0.0628344 0)
(-0.129115 0.0621134 0)
(-0.131172 0.0621671 0)
(-0.132613 0.0631378 0)
(-0.133457 0.0651701 0)
(-0.133741 0.0683846 0)
(-0.133539 0.0728329 0)
(-0.132968 0.0784292 0)
(-0.132208 0.0848531 0)
(-0.131505 0.0914274 0)
(-0.13118 0.0969822 0)
(-0.131623 0.0997424 0)
(-0.13328 0.0972969 0)
(-0.136623 0.0867332 0)
(-0.14211 0.0649987 0)
(-0.150128 0.0294609 0)
(-0.160914 -0.0215127 0)
(-0.174365 -0.0881985 0)
(-0.189591 -0.169375 0)
(-0.203957 -0.261721 0)
(-0.2116 -0.357299 0)
(-0.202425 -0.437555 0)
(-0.16491 -0.464332 0)
(-0.0964472 -0.377956 0)
(-0.0238848 -0.142007 0)
(-0.002527 0.030725 0)
(-0.01153 0.0712714 0)
(-0.0255969 0.0936402 0)
(-0.0401492 0.103204 0)
(-0.0533163 0.105032 0)
(-0.0648183 0.102755 0)
(-0.0747509 0.0986134 0)
(-0.0832969 0.0938377 0)
(-0.090643 0.0890271 0)
(-0.0969446 0.0844416 0)
(-0.102322 0.0801835 0)
(-0.106868 0.0762943 0)
(-0.11065 0.072801 0)
(-0.113714 0.0697366 0)
(-0.116089 0.0671498 0)
(-0.117783 0.0651107 0)
(-0.118786 0.0637135 0)
(-0.119076 0.0630774 0)
(-0.118614 0.0633432 0)
(-0.117354 0.0646618 0)
(-0.115251 0.0671711 0)
(-0.112268 0.0709537 0)
(-0.108403 0.0759715 0)
(-0.103703 0.0819702 0)
(-0.0983016 0.0883582 0)
(-0.0924543 0.0940711 0)
(-0.0865761 0.0974576 0)
(-0.081275 0.0962456 0)
(-0.0773609 0.0876625 0)
(-0.0758166 0.0687638 0)
(-0.0777211 0.0369287 0)
(-0.0841208 -0.00966594 0)
(-0.095825 -0.0718656 0)
(-0.113024 -0.149703 0)
(-0.134465 -0.242288 0)
(-0.155735 -0.345816 0)
(-0.167127 -0.447016 0)
(-0.154567 -0.509557 0)
(-0.107157 -0.458053 0)
(-0.0331204 -0.199521 0)
(-0.00347982 0.0377275 0)
(-0.0146297 0.084844 0)
(-0.0307244 0.10865 0)
(-0.0461313 0.117166 0)
(-0.0590103 0.117163 0)
(-0.0694682 0.113027 0)
(-0.0778866 0.107239 0)
(-0.0846191 0.101058 0)
(-0.0899568 0.0950482 0)
(-0.0941239 0.0894253 0)
(-0.0972902 0.0842538 0)
(-0.0995848 0.0795442 0)
(-0.101104 0.0752973 0)
(-0.101915 0.0715222 0)
(-0.102058 0.0682449 0)
(-0.101548 0.0655127 0)
(-0.10037 0.0633976 0)
(-0.0984851 0.0619973 0)
(-0.0958247 0.0614332 0)
(-0.092295 0.0618413 0)
(-0.0877807 0.0633535 0)
(-0.0821559 0.0660617 0)
(-0.0753035 0.0699602 0)
(-0.0671469 0.0748614 0)
(-0.0576973 0.0802857 0)
(-0.047118 0.0853368 0)
(-0.0357993 0.0885937 0)
(-0.0244314 0.0880684 0)
(-0.0140489 0.0812948 0)
(-0.00601406 0.0655924 0)
(-0.00191927 0.0384701 0)
(-0.0034102 -0.00199759 0)
(-0.0119552 -0.0570816 0)
(-0.0285614 -0.127721 0)
(-0.0532675 -0.214872 0)
(-0.0837461 -0.318538 0)
(-0.112576 -0.432307 0)
(-0.125801 -0.52739 0)
(-0.105916 -0.522116 0)
(-0.0405087 -0.266582 0)
(-0.00520258 0.0471011 0)
(-0.0196296 0.101231 0)
(-0.0381467 0.125089 0)
(-0.0538468 0.131063 0)
(-0.0653083 0.128166 0)
(-0.0733725 0.121502 0)
(-0.078851 0.113655 0)
(-0.0823261 0.105812 0)
(-0.0842285 0.0984446 0)
(-0.0848771 0.0916941 0)
(-0.0845105 0.0855701 0)
(-0.0833095 0.0800408 0)
(-0.0814096 0.0750716 0)
(-0.0789077 0.0706393 0)
(-0.0758652 0.0667393 0)
(-0.0723101 0.0633883 0)
(-0.0682361 0.0606264 0)
(-0.0636019 0.0585183 0)
(-0.058329 0.0571515 0)
(-0.0523013 0.0566295 0)
(-0.0453666 0.0570575 0)
(-0.0373442 0.0585142 0)
(-0.0280422 0.0610067 0)
(-0.0172906 0.0644026 0)
(-0.00499474 0.0683397 0)
(0.00878774 0.072122 0)
(0.0237497 0.0746232 0)
(0.0392331 0.0742368 0)
(0.0541531 0.0689226 0)
(0.066989 0.0563857 0)
(0.0758736 0.0343647 0)
(0.0787862 0.000906333 0)
(0.0737985 -0.0455762 0)
(0.0593124 -0.106621 0)
(0.0342734 -0.184263 0)
(-0.00106377 -0.281146 0)
(-0.0427739 -0.397548 0)
(-0.0798159 -0.516614 0)
(-0.0905868 -0.561788 0)
(-0.042426 -0.337046 0)
(-0.0084593 0.0606868 0)
(-0.0279793 0.12153 0)
(-0.0489011 0.142565 0)
(-0.0631192 0.14361 0)
(-0.0706446 0.136381 0)
(-0.0736558 0.126388 0)
(-0.0735779 0.116041 0)
(-0.0712968 0.106305 0)
(-0.0674302 0.0974858 0)
(-0.062418 0.0896094 0)
(-0.0565773 0.0826036 0)
(-0.0501397 0.0763755 0)
(-0.043273 0.0708414 0)
(-0.0360942 0.0659361 0)
(-0.0286773 0.0616165 0)
(-0.0210571 0.0578621 0)
(-0.0132316 0.054676 0)
(-0.0051612 0.0520839 0)
(0.00323265 0.0501321 0)
(0.0120691 0.0488826 0)
(0.021508 0.0484012 0)
(0.0317455 0.0487375 0)
(0.0430008 0.0498922 0)
(0.0554884 0.0517676 0)
(0.0693693 0.0541025 0)
(0.0846772 0.0563927 0)
(0.10122 0.0578146 0)
(0.118468 0.057174 0)
(0.135456 0.0529155 0)
(0.150735 0.0432169 0)
(0.162418 0.026161 0)
(0.168329 -0.000100072 0)
(0.166208 -0.0373099 0)
(0.153942 -0.0873565 0)
(0.129638 -0.152768 0)
(0.0919293 -0.237477 0)
(0.0411429 -0.346797 0)
(-0.0168689 -0.478058 0)
(-0.0598172 -0.571533 0)
(-0.0349816 -0.403028 0)
(-0.0147831 0.0824532 0)
(-0.0420366 0.146927 0)
(-0.0632707 0.159306 0)
(-0.0706895 0.151679 0)
(-0.0684922 0.138266 0)
(-0.0611458 0.124143 0)
(-0.0508293 0.111041 0)
(-0.038751 0.099462 0)
(-0.025694 0.0894156 0)
(-0.012167 0.0807363 0)
(0.00150202 0.0732248 0)
(0.0151008 0.0667006 0)
(0.0284937 0.0610146 0)
(0.0416004 0.0560507 0)
(0.0543827 0.0517228 0)
(0.0668381 0.0479722 0)
(0.0789956 0.0447652 0)
(0.0909155 0.0420902 0)
(0.10269 0.039955 0)
(0.114444 0.038381 0)
(0.126338 0.0373947 0)
(0.138563 0.0370128 0)
(0.151332 0.0372202 0)
(0.164862 0.0379371 0)
(0.179329 0.0389763 0)
(0.194817 0.0399904 0)
(0.211225 0.0404193 0)
(0.228173 0.0394478 0)
(0.24489 0.0359964 0)
(0.260148 0.0287552 0)
(0.272224 0.0162668 0)
(0.27898 -0.00300625 0)
(0.277938 -0.030675 0)
(0.266487 -0.0686491 0)
(0.241848 -0.11953 0)
(0.201425 -0.1876 0)
(0.142689 -0.280889 0)
(0.0654195 -0.410522 0)
(-0.0111746 -0.543975 0)
(-0.0134859 -0.453293 0)
(-0.0270037 0.121144 0)
(-0.0636238 0.175517 0)
(-0.072598 0.16607 0)
(-0.0575829 0.144826 0)
(-0.0334865 0.124594 0)
(-0.0068413 0.10707 0)
(0.0202356 0.0923694 0)
(0.046765 0.0802338 0)
(0.0722199 0.0702319 0)
(0.0963653 0.0619348 0)
(0.119133 0.0549934 0)
(0.140537 0.0491395 0)
(0.160631 0.0441685 0)
(0.179493 0.0399249 0)
(0.197213 0.0362927 0)
(0.213894 0.0331879 0)
(0.229648 0.0305529 0)
(0.244598 0.0283517 0)
(0.258882 0.0265658 0)
(0.272657 0.0251887 0)
(0.286095 0.0242192 0)
(0.299388 0.0236512 0)
(0.312738 0.0234591 0)
(0.326339 0.0235781 0)
(0.340352 0.0238784 0)
(0.354858 0.0241358 0)
(0.369793 0.024001 0)
(0.384865 0.0229731 0)
(0.399463 0.0203906 0)
(0.412574 0.0154355 0)
(0.422697 0.00717152 0)
(0.427861 -0.00544788 0)
(0.425511 -0.0235691 0)
(0.412701 -0.0486624 0)
(0.385685 -0.082826 0)
(0.340648 -0.129987 0)
(0.27259 -0.198396 0)
(0.175842 -0.309407 0)
(0.0629296 -0.463855 0)
(0.0310241 -0.462336 0)
(-0.0465497 0.194587 0)
(-0.0636304 0.187924 0)
(-0.00559533 0.136624 0)
(0.0591805 0.105936 0)
(0.11696 0.0852413 0)
(0.167595 0.0693012 0)
(0.212306 0.0568572 0)
(0.251867 0.0472407 0)
(0.286903 0.039771 0)
(0.318042 0.0338802 0)
(0.345854 0.0291626 0)
(0.370818 0.025337 0)
(0.393333 0.0222026 0)
(0.413733 0.0196129 0)
(0.432301 0.0174607 0)
(0.449285 0.0156685 0)
(0.464907 0.0141817 0)
(0.479371 0.0129629 0)
(0.49287 0.0119881 0)
(0.505594 0.0112421 0)
(0.517732 0.0107144 0)
(0.529475 0.0103924 0)
(0.541005 0.0102541 0)
(0.552487 0.0102581 0)
(0.564045 0.0103305 0)
(0.575724 0.0103512 0)
(0.587442 0.0101403 0)
(0.598933 0.00944494 0)
(0.609654 0.0079393 0)
(0.618748 0.00522134 0)
(0.624898 0.000840045 0)
(0.626412 -0.00572629 0)
(0.620886 -0.015026 0)
(0.605588 -0.0278283 0)
(0.576275 -0.0451469 0)
(0.528424 -0.0695548 0)
(0.453702 -0.106275 0)
(0.342775 -0.176782 0)
(0.192672 -0.311691 0)
(0.125866 -0.377769 0)
(0.244564 0.127674 0)
(0.296516 0.112491 0)
(0.403377 0.0775368 0)
(0.493651 0.0548728 0)
(0.557995 0.0404251 0)
(0.605663 0.0303117 0)
(0.643093 0.0229781 0)
(0.673317 0.0176502 0)
(0.698071 0.0137645 0)
(0.71862 0.0108984 0)
(0.735917 0.00875554 0)
(0.750664 0.0071331 0)
(0.763379 0.00589049 0)
(0.774454 0.00492875 0)
(0.784191 0.00417779 0)
(0.792834 0.00358811 0)
(0.800583 0.00312495 0)
(0.807606 0.00276432 0)
(0.814053 0.00248989 0)
(0.820061 0.00229053 0)
(0.825759 0.00215807 0)
(0.831265 0.002085 0)
(0.836686 0.00206214 0)
(0.842108 0.00207561 0)
(0.847575 0.00210338 0)
(0.853073 0.00211043 0)
(0.858485 0.00204534 0)
(0.863573 0.00183623 0)
(0.867911 0.00139393 0)
(0.870889 0.000610684 0)
(0.871577 -0.000627717 0)
(0.868892 -0.00245474 0)
(0.861195 -0.0050066 0)
(0.846992 -0.00845927 0)
(0.823162 -0.013085 0)
(0.787629 -0.019364 0)
(0.730654 -0.0293677 0)
(0.647718 -0.0467412 0)
(0.492785 -0.0936037 0)
(0.368504 -0.142915 0)
)
;

boundaryField
{
    movingWall
    {
        type            fixedValue;
        value           uniform (1 0 0);
    }
    fixedWalls
    {
        type            noSlip;
    }
    frontAndBack
    {
        type            empty;
    }
}


// ************************************************************************* //
