1.45 	0 	0 	-0.300777
2.35 	0 	0 	-0.133752
