1.45 	0 	0 	-0.00813355 	-0.00258475 	1.6535e-20
2.35 	0 	0 	0.0621506 	-0.00662654 	9.88787e-21
