1.275 	2.15223e-18 	-2.76991e-20 	-0.0327023 	-0.000483498 	-2.05835e-22
1.825 	2.15223e-18 	-1.39322e-20 	-0.00576021 	-0.00326371 	1.78791e-21
2.375 	2.15223e-18 	-2.66896e-23 	0.14835 	-0.0044131 	-7.26059e-22
