1.275 	2.15223e-18 	-2.76991e-20 	-0.0344814 	-0.000439647 	-1.90223e-22
1.825 	2.15223e-18 	-1.39322e-20 	-0.00950029 	-0.00275581 	1.67716e-21
2.375 	2.15223e-18 	-2.66896e-23 	0.115197 	-0.00323065 	-6.99498e-22
