1.45 	0 	0 	-0.00814036 	-0.00256902 	3.78252e-21
2.35 	0 	0 	0.0613379 	-0.00662957 	2.28475e-21
