/*--------------------------------*- C++ -*----------------------------------*\
  =========                 |
  \\      /  F ield         | OpenFOAM: The Open Source CFD Toolbox
   \\    /   O peration     | Website:  https://openfoam.org
    \\  /    A nd           | Version:  6.0
     \\/     M anipulation  |
\*---------------------------------------------------------------------------*/
FoamFile
{
    version     2.0;
    format      ascii;
    class       volScalarField;
    location    "14";
    object      p;
}
// * * * * * * * * * * * * * * * * * * * * * * * * * * * * * * * * * * * * * //

dimensions      [0 2 -2 0 0 0 0];

internalField   nonuniform List<scalar> 
2000
(
-0.35648
-0.362365
-0.364027
-0.363327
-0.361433
-0.358719
-0.355464
-0.351963
-0.348504
-0.344769
-0.359207
-0.364671
-0.365992
-0.36499
-0.362807
-0.359817
-0.356299
-0.352537
-0.348823
-0.344969
-0.36468
-0.369282
-0.36991
-0.368298
-0.365533
-0.361987
-0.357933
-0.353633
-0.349389
-0.345291
-0.372938
-0.376197
-0.375761
-0.373221
-0.369574
-0.365181
-0.360302
-0.355156
-0.350063
-0.345576
-0.384042
-0.385413
-0.383514
-0.37972
-0.374887
-0.369351
-0.363338
-0.356991
-0.350647
-0.345566
-0.398053
-0.396915
-0.393128
-0.387754
-0.381441
-0.374472
-0.367008
-0.359055
-0.35093
-0.344932
-0.415004
-0.41066
-0.404543
-0.397282
-0.389229
-0.380585
-0.371407
-0.361464
-0.350911
-0.343412
-0.434837
-0.426549
-0.417668
-0.408242
-0.398236
-0.387734
-0.376648
-0.364349
-0.350344
-0.339853
-0.45734
-0.444406
-0.432385
-0.420592
-0.408503
-0.396011
-0.382715
-0.367091
-0.346935
-0.32957
-0.482078
-0.463968
-0.448595
-0.434481
-0.42065
-0.406903
-0.39248
-0.374748
-0.349632
-0.325595
-0.508362
-0.484807
-0.466028
-0.449817
-0.435042
-0.422072
-0.411245
-0.403198
-0.403215
-0.422611
-0.535369
-0.506345
-0.484065
-0.465494
-0.449108
-0.435364
-0.424733
-0.41827
-0.421098
-0.438228
-0.562373
-0.528122
-0.502431
-0.48139
-0.462975
-0.447548
-0.435472
-0.427463
-0.426626
-0.434302
-0.588723
-0.549663
-0.52081
-0.497327
-0.476637
-0.458922
-0.444341
-0.433145
-0.426809
-0.425326
-0.613665
-0.570298
-0.538575
-0.512655
-0.489384
-0.46874
-0.450683
-0.43509
-0.422383
-0.41261
-0.636208
-0.589088
-0.554776
-0.526367
-0.500158
-0.475997
-0.453764
-0.43315
-0.41399
-0.39706
-0.655064
-0.604822
-0.568181
-0.537175
-0.507669
-0.479521
-0.452699
-0.426899
-0.40171
-0.378921
-0.668672
-0.616042
-0.577325
-0.543595
-0.510488
-0.478056
-0.446522
-0.415737
-0.385258
-0.357955
-0.675269
-0.621109
-0.580588
-0.544033
-0.507139
-0.470347
-0.434272
-0.399002
-0.364174
-0.333667
-0.672988
-0.618283
-0.576272
-0.536879
-0.496193
-0.455225
-0.415067
-0.376057
-0.337944
-0.305469
-0.659974
-0.605822
-0.562711
-0.520606
-0.47636
-0.43169
-0.38818
-0.34638
-0.306124
-0.272829
-0.634496
-0.582087
-0.538367
-0.493879
-0.446585
-0.398983
-0.353108
-0.309637
-0.268428
-0.235378
-0.595081
-0.545674
-0.501968
-0.455661
-0.406134
-0.35666
-0.309628
-0.265736
-0.224794
-0.192984
-0.540637
-0.495524
-0.452603
-0.405305
-0.354655
-0.304626
-0.257822
-0.214861
-0.175429
-0.145788
-0.470564
-0.431045
-0.389831
-0.342619
-0.292208
-0.243133
-0.198068
-0.157461
-0.120809
-0.0942192
-0.384863
-0.352206
-0.313746
-0.267896
-0.219256
-0.172746
-0.13097
-0.0941575
-0.0615706
-0.0389017
-0.284226
-0.259613
-0.225034
-0.181939
-0.136659
-0.0943077
-0.0573006
-0.0256503
0.00156421
0.0193372
-0.170096
-0.15456
-0.124984
-0.0860405
-0.0456555
-0.00896148
0.0218832
0.0469419
0.0670537
0.0784669
-0.0446855
-0.0390212
-0.0154471
0.0181259
0.052369
0.0822397
0.105722
0.122405
0.132374
0.13477
0.0890471
0.0843589
0.10116
0.128528
0.156091
0.179119
0.195641
0.204038
0.203029
0.196321
0.227525
0.212313
0.221733
0.242271
0.263053
0.280195
0.292426
0.297928
0.296897
0.310837
0.366852
0.341195
0.34266
0.355501
0.368544
0.378539
0.38461
0.385867
0.384803
0.397746
0.503085
0.467333
0.46053
0.465097
0.469765
0.471857
0.470806
0.466195
0.460511
0.465628
0.632377
0.587119
0.572054
0.568161
0.56427
0.558289
0.549959
0.539131
0.527877
0.525045
0.751067
0.697113
0.674137
0.662031
0.649868
0.636122
0.620812
0.603977
0.587309
0.577368
0.855771
0.79415
0.763962
0.744316
0.724606
0.703827
0.682239
0.660026
0.63851
0.622357
0.943473
0.875423
0.839043
0.812902
0.786734
0.759979
0.733096
0.706382
0.680804
0.659446
1.01162
0.938566
0.897286
0.866003
0.83475
0.803316
0.772313
0.742121
0.713397
0.68798
1.05821
0.981726
0.937056
0.902215
0.867457
0.832813
0.798997
0.76644
0.735571
0.707367
1.08186
1.00363
0.957228
0.920569
0.884024
0.847748
0.812505
0.778753
0.746797
0.717175
1.08186
1.00363
0.957228
0.920569
0.884024
0.847748
0.812505
0.778753
0.746797
0.717175
1.05821
0.981727
0.937057
0.902216
0.867457
0.832813
0.798997
0.766441
0.735571
0.707368
1.01162
0.938567
0.897287
0.866004
0.83475
0.803317
0.772314
0.742122
0.713397
0.687981
0.943475
0.875425
0.839044
0.812904
0.786735
0.75998
0.733097
0.706382
0.680805
0.659447
0.855773
0.794152
0.763964
0.744318
0.724607
0.703828
0.68224
0.660027
0.638511
0.622358
0.75107
0.697116
0.674139
0.662033
0.649869
0.636123
0.620813
0.603978
0.58731
0.577369
0.63238
0.587121
0.572056
0.568162
0.564271
0.55829
0.54996
0.539131
0.527878
0.525045
0.503088
0.467336
0.460532
0.465099
0.469766
0.471858
0.470807
0.466195
0.460511
0.465629
0.366855
0.341198
0.342662
0.355502
0.368545
0.378539
0.38461
0.385868
0.384803
0.397746
0.227528
0.212315
0.221735
0.242272
0.263053
0.280195
0.292425
0.297928
0.296898
0.310838
0.0890494
0.0843605
0.101161
0.128528
0.156091
0.179119
0.19564
0.204037
0.203029
0.196321
-0.0446839
-0.0390203
-0.0154469
0.0181255
0.0523681
0.0822384
0.105721
0.122404
0.132372
0.134769
-0.170095
-0.15456
-0.124984
-0.0860416
-0.0456572
-0.00896351
0.021881
0.0469395
0.0670512
0.0784647
-0.284226
-0.259614
-0.225035
-0.181941
-0.136661
-0.0943106
-0.0573037
-0.0256536
0.00156084
0.0193339
-0.384863
-0.352207
-0.313748
-0.267899
-0.219259
-0.172749
-0.130974
-0.0941616
-0.0615747
-0.0389058
-0.470566
-0.431048
-0.389834
-0.342622
-0.292212
-0.243137
-0.198073
-0.157466
-0.120813
-0.0942239
-0.540641
-0.495528
-0.452608
-0.40531
-0.35466
-0.304631
-0.257827
-0.214866
-0.175434
-0.145794
-0.595086
-0.545678
-0.501973
-0.455666
-0.406139
-0.356666
-0.309634
-0.265742
-0.2248
-0.192989
-0.634501
-0.582093
-0.538373
-0.493884
-0.446591
-0.398989
-0.353114
-0.309643
-0.268434
-0.235384
-0.659981
-0.605828
-0.562717
-0.520613
-0.476366
-0.431696
-0.388186
-0.346386
-0.30613
-0.272834
-0.672995
-0.61829
-0.576279
-0.536886
-0.496199
-0.455232
-0.415073
-0.376063
-0.33795
-0.305474
-0.675276
-0.621117
-0.580595
-0.54404
-0.507146
-0.470353
-0.434278
-0.399008
-0.364179
-0.333672
-0.66868
-0.61605
-0.577333
-0.543602
-0.510494
-0.478062
-0.446528
-0.415743
-0.385264
-0.35796
-0.655072
-0.60483
-0.568189
-0.537182
-0.507676
-0.479528
-0.452705
-0.426905
-0.401715
-0.378926
-0.636216
-0.589096
-0.554784
-0.526374
-0.500165
-0.476004
-0.45377
-0.433156
-0.413995
-0.397065
-0.613673
-0.570305
-0.538582
-0.512663
-0.489391
-0.468747
-0.45069
-0.435096
-0.422388
-0.412615
-0.58873
-0.549671
-0.520818
-0.497334
-0.476644
-0.458929
-0.444347
-0.433151
-0.426814
-0.425331
-0.562379
-0.528129
-0.502438
-0.481397
-0.462982
-0.447555
-0.435478
-0.427469
-0.426631
-0.434306
-0.535374
-0.506351
-0.484071
-0.465501
-0.449115
-0.43537
-0.424738
-0.418275
-0.421103
-0.438232
-0.508367
-0.484812
-0.466033
-0.449823
-0.435048
-0.422078
-0.411251
-0.403202
-0.403218
-0.422614
-0.482081
-0.463972
-0.4486
-0.434486
-0.420656
-0.406908
-0.392485
-0.374751
-0.349634
-0.325594
-0.457342
-0.444409
-0.432389
-0.420596
-0.408508
-0.396015
-0.382718
-0.367093
-0.346936
-0.329569
-0.434837
-0.42655
-0.41767
-0.408245
-0.39824
-0.387737
-0.376651
-0.364351
-0.350344
-0.339852
-0.415002
-0.410661
-0.404545
-0.397284
-0.389231
-0.380587
-0.371409
-0.361465
-0.350911
-0.34341
-0.398051
-0.396915
-0.393129
-0.387756
-0.381442
-0.374473
-0.367009
-0.359055
-0.350929
-0.34493
-0.384039
-0.385412
-0.383514
-0.379721
-0.374888
-0.369351
-0.363338
-0.356991
-0.350646
-0.345564
-0.372936
-0.376196
-0.375761
-0.373221
-0.369574
-0.365181
-0.360302
-0.355156
-0.350062
-0.345574
-0.364677
-0.36928
-0.36991
-0.368298
-0.365533
-0.361987
-0.357933
-0.353633
-0.349388
-0.34529
-0.359205
-0.36467
-0.365991
-0.36499
-0.362807
-0.359817
-0.356299
-0.352537
-0.348823
-0.344969
-0.356479
-0.362364
-0.364027
-0.363327
-0.361433
-0.358719
-0.355464
-0.351963
-0.348504
-0.344769
-0.29815
-0.132615
-0.0867323
-0.0352286
-0.0231739
-0.010784
-0.00619985
-0.00108402
-0.000456556
0.0035442
-0.299396
-0.133179
-0.087017
-0.0354416
-0.0232591
-0.0108631
-0.00625093
-0.00112214
-0.000478724
0.00351734
-0.301814
-0.134289
-0.0875808
-0.0358705
-0.0234305
-0.0110204
-0.00635109
-0.00119624
-0.000521106
0.00346449
-0.305264
-0.13592
-0.0884108
-0.0365159
-0.0236862
-0.0112537
-0.00649857
-0.00130528
-0.000582628
0.00338623
-0.309496
-0.138026
-0.0894782
-0.0373731
-0.0240212
-0.0115592
-0.00669053
-0.00144771
-0.000661651
0.00328329
-0.314154
-0.140528
-0.0907302
-0.0384251
-0.0244264
-0.0119297
-0.00692265
-0.00162121
-0.000756114
0.00315676
-0.319103
-0.143494
-0.0921688
-0.0396632
-0.0248982
-0.0123586
-0.00719091
-0.00182231
-0.000864713
0.00300916
-0.324869
-0.14758
-0.094058
-0.0411874
-0.0254781
-0.012857
-0.00749999
-0.00204943
-0.000988586
0.00284451
-0.329713
-0.153174
-0.0965799
-0.0431666
-0.0262216
-0.0134558
-0.00786212
-0.00231085
-0.00112439
0.00265824
-0.321947
-0.155627
-0.0977492
-0.0449444
-0.0268282
-0.0140582
-0.00822544
-0.00261499
-0.00123867
0.00241691
-0.255405
-0.147655
-0.094201
-0.0483608
-0.0276282
-0.0157419
-0.00930094
-0.00377935
-0.00153119
0.00137905
-0.196852
-0.138472
-0.0880305
-0.0496839
-0.0293438
-0.0181705
-0.011272
-0.00557342
-0.00245818
0.000158165
-0.154923
-0.120308
-0.0783446
-0.0479399
-0.0304643
-0.0201034
-0.0130073
-0.00725001
-0.00346057
-0.000765398
-0.114938
-0.0991245
-0.0687088
-0.0456837
-0.0311794
-0.0215669
-0.0143929
-0.00865617
-0.00437419
-0.0014026
-0.0854382
-0.0816402
-0.0617566
-0.0442282
-0.0317494
-0.0226501
-0.01547
-0.00975599
-0.00514388
-0.00181351
-0.0651674
-0.0686412
-0.0566891
-0.043093
-0.0319862
-0.0233219
-0.0162468
-0.0105688
-0.0057453
-0.00206828
-0.0520171
-0.0592729
-0.0527497
-0.0420282
-0.031961
-0.0236987
-0.0167905
-0.011153
-0.00618964
-0.00222462
-0.0436862
-0.0527395
-0.0497323
-0.0411115
-0.0318496
-0.023912
-0.017161
-0.0115559
-0.00649881
-0.00231873
-0.0388089
-0.0485912
-0.0476895
-0.0404716
-0.03176
-0.02403
-0.017388
-0.0118053
-0.00669301
-0.00237075
-0.0365509
-0.046566
-0.0466618
-0.0401582
-0.0317236
-0.0240828
-0.0174933
-0.0119205
-0.00678822
-0.0023914
-0.226118
-0.254041
-0.279852
-0.303835
-0.326373
-0.347971
-0.369242
-0.390828
-0.413219
-0.437087
-0.0751228
-0.0852651
-0.0944303
-0.102861
-0.110865
-0.118823
-0.127192
-0.136513
-0.147365
-0.161542
-0.0521145
-0.0612849
-0.0700704
-0.0784446
-0.0863701
-0.0938023
-0.100698
-0.10703
-0.112795
-0.118116
-0.0255098
-0.031214
-0.0367122
-0.0420235
-0.04717
-0.0521751
-0.0570622
-0.0618534
-0.0665487
-0.0710308
-0.0196769
-0.0240158
-0.02823
-0.0323161
-0.0362704
-0.0400891
-0.0437687
-0.0473064
-0.0506826
-0.0538688
-0.0145196
-0.0177192
-0.0208591
-0.0239385
-0.0269567
-0.0299135
-0.0328084
-0.0356401
-0.038397
-0.0410843
-0.0133226
-0.0158418
-0.0183242
-0.0207659
-0.0231634
-0.0255136
-0.0278141
-0.0300623
-0.0322524
-0.0343987
-0.0124661
-0.0145065
-0.0165298
-0.018532
-0.0205093
-0.0224585
-0.0243765
-0.0262603
-0.0281065
-0.0299231
-0.0123433
-0.0141006
-0.0158494
-0.0175851
-0.0193036
-0.0210009
-0.0226737
-0.0243187
-0.0259339
-0.0275207
-0.0122696
-0.0138785
-0.0154841
-0.0170826
-0.0186705
-0.0202446
-0.0218017
-0.0233389
-0.0248548
-0.0263477
0.160587
0.119579
0.0742268
0.0311539
-0.0105914
-0.0514778
-0.0908887
-0.128243
-0.163273
-0.195894
0.110307
0.0843911
0.0576131
0.0347861
0.0146733
-0.00399487
-0.0213
-0.0370314
-0.0511628
-0.0638097
0.0663474
0.0506555
0.0357207
0.0228255
0.010988
-0.000465791
-0.0116056
-0.0223437
-0.0326573
-0.042573
0.0462446
0.0371824
0.0285723
0.0208799
0.0136296
0.0065527
-0.000347856
-0.0070135
-0.0134232
-0.0195841
0.0308326
0.0248929
0.0191698
0.0138959
0.00882112
0.00381562
-0.00111343
-0.00593469
-0.0106358
-0.0152164
0.0206765
0.0167995
0.0129698
0.00934747
0.00581999
0.00231996
-0.00115093
-0.00457596
-0.00794689
-0.0112618
0.0130559
0.0103388
0.00759729
0.00493463
0.00230266
-0.000331216
-0.00296503
-0.00558764
-0.0081912
-0.0107709
0.00793711
0.00595301
0.00392021
0.00190005
-0.000124122
-0.00216573
-0.00422232
-0.00628638
-0.00835157
-0.010413
0.00464713
0.00306281
0.00143045
-0.000221149
-0.00189676
-0.00359941
-0.0053252
-0.00706798
-0.00882201
-0.0105821
0.00307155
0.00166152
0.000208796
-0.00127247
-0.00278284
-0.00432122
-0.00588327
-0.00746383
-0.00905804
-0.0106614
0.328191
0.327489
0.325936
0.323054
0.31806
0.309715
0.296249
0.275266
0.244131
0.199475
0.238375
0.237258
0.23462
0.230031
0.223155
0.213563
0.200683
0.183858
0.162339
0.135571
0.167644
0.166515
0.163848
0.159322
0.152831
0.144265
0.133437
0.120131
0.103941
0.0849512
0.116139
0.115254
0.113152
0.109591
0.104553
0.0980638
0.0901174
0.0807231
0.0698034
0.057693
0.0799046
0.0792608
0.0777234
0.0751128
0.0714365
0.0667469
0.0610781
0.0544686
0.0468987
0.038577
0.0548137
0.0543512
0.0532447
0.051366
0.0487283
0.045383
0.0413718
0.0367387
0.0315014
0.0258063
0.0377358
0.0373983
0.0365904
0.0352191
0.033296
0.0308612
0.0279487
0.0245912
0.0208082
0.0166837
0.0265067
0.026251
0.0256389
0.0246001
0.0231439
0.0213016
0.0191001
0.0165646
0.0137155
0.0106049
0.0197091
0.0195017
0.0190056
0.0181636
0.0169831
0.0154892
0.0137031
0.0116438
0.00932907
0.00679031
0.0165079
0.0163225
0.0158799
0.0151293
0.0140769
0.0127446
0.0111512
0.00931297
0.00724678
0.00497544
0.478094
0.479845
0.486176
0.497318
0.513163
0.534017
0.560344
0.59267
0.631533
0.67718
0.475853
0.47758
0.48383
0.494815
0.510412
0.530888
0.556651
0.588139
0.625754
0.669587
0.471425
0.473105
0.479203
0.489885
0.504996
0.524731
0.549383
0.579217
0.614362
0.654609
0.464908
0.466534
0.47242
0.482671
0.497081
0.51574
0.53877
0.566179
0.597679
0.632653
0.456441
0.458016
0.463654
0.473369
0.486894
0.504182
0.525134
0.549414
0.576172
0.604306
0.446192
0.44774
0.453111
0.462207
0.474691
0.490356
0.508834
0.529369
0.55041
0.570304
0.434359
0.435946
0.44107
0.449503
0.460836
0.474673
0.490341
0.506586
0.521071
0.531512
0.421146
0.42296
0.427971
0.435815
0.446022
0.457981
0.47064
0.482107
0.489155
0.488726
0.406623
0.408913
0.414003
0.421382
0.430569
0.440731
0.450369
0.456765
0.455535
0.441437
0.390429
0.392863
0.397525
0.403775
0.411144
0.418683
0.424617
0.425723
0.417234
0.389502
0.390429
0.392862
0.397525
0.403774
0.411144
0.418683
0.424617
0.425723
0.417235
0.389503
0.406623
0.408913
0.414003
0.421382
0.430569
0.440731
0.450369
0.456765
0.455536
0.441438
0.421145
0.422959
0.427971
0.435815
0.446022
0.457981
0.470639
0.482107
0.489155
0.488726
0.434358
0.435946
0.44107
0.449503
0.460836
0.474673
0.490341
0.506586
0.521071
0.531513
0.446192
0.44774
0.453111
0.462207
0.474691
0.490356
0.508834
0.529369
0.55041
0.570304
0.45644
0.458016
0.463654
0.473369
0.486894
0.504182
0.525133
0.549414
0.576172
0.604307
0.464907
0.466533
0.47242
0.482671
0.497081
0.51574
0.53877
0.566179
0.59768
0.632654
0.471424
0.473105
0.479203
0.489885
0.504996
0.524731
0.549383
0.579217
0.614362
0.65461
0.475853
0.477579
0.48383
0.494815
0.510412
0.530888
0.556651
0.588139
0.625754
0.669587
0.478094
0.479845
0.486176
0.497318
0.513163
0.534017
0.560344
0.59267
0.631533
0.67718
0.0165106
0.0163252
0.0158826
0.015132
0.0140795
0.0127473
0.0111539
0.00931571
0.00724955
0.00497823
0.0197119
0.0195045
0.0190084
0.0181664
0.016986
0.0154921
0.013706
0.0116467
0.009332
0.00679324
0.0265094
0.0262537
0.0256416
0.0246028
0.0231466
0.0213044
0.019103
0.0165675
0.0137185
0.0106079
0.0377385
0.0374009
0.0365931
0.0352218
0.0332987
0.030864
0.0279515
0.024594
0.020811
0.0166866
0.0548163
0.0543537
0.0532472
0.0513686
0.048731
0.0453857
0.0413745
0.0367414
0.0315041
0.025809
0.0799069
0.0792631
0.0777257
0.0751151
0.0714388
0.0667492
0.0610805
0.0544709
0.046901
0.0385793
0.116141
0.115256
0.113154
0.109593
0.104555
0.0980659
0.0901194
0.0807252
0.0698054
0.057695
0.167646
0.166517
0.163849
0.159324
0.152832
0.144267
0.133439
0.120133
0.103942
0.084953
0.238376
0.237259
0.234621
0.230032
0.223157
0.213564
0.200684
0.183859
0.16234
0.135573
0.328191
0.327489
0.325936
0.323054
0.318061
0.309716
0.29625
0.275268
0.244133
0.199478
0.00307436
0.00166436
0.00021171
-0.00126948
-0.00277976
-0.00431805
-0.00588002
-0.00746049
-0.00905462
-0.0106579
0.00465009
0.00306581
0.0014335
-0.000218052
-0.00189361
-0.00359622
-0.00532197
-0.00706472
-0.00881872
-0.0105788
0.00794016
0.00595611
0.00392331
0.00190315
-0.000121027
-0.00216264
-0.00421924
-0.0062833
-0.00834849
-0.0104099
0.0130587
0.0103416
0.00760019
0.00493752
0.00230551
-0.000328395
-0.00296224
-0.00558486
-0.00818844
-0.0107682
0.0206792
0.0168022
0.0129724
0.00934997
0.00582242
0.00232232
-0.00114864
-0.00457374
-0.00794474
-0.0112597
0.0308349
0.024895
0.0191718
0.0138978
0.00882292
0.00381733
-0.00111181
-0.00593318
-0.0106344
-0.015215
0.0462465
0.0371842
0.028574
0.0208813
0.0136309
0.00655375
-0.000347015
-0.00701287
-0.0134227
-0.0195838
0.0663494
0.0506574
0.0357223
0.0228268
0.0109889
-0.000465224
-0.0116054
-0.0223439
-0.0326578
-0.0425739
0.110309
0.0843932
0.0576147
0.0347871
0.0146735
-0.00399542
-0.0213013
-0.0370333
-0.0511652
-0.0638125
0.16059
0.119581
0.0742275
0.0311529
-0.0105936
-0.051481
-0.0908926
-0.128247
-0.163277
-0.195899
-0.0122661
-0.013875
-0.0154806
-0.0170791
-0.0186671
-0.0202412
-0.0217983
-0.0233354
-0.0248513
-0.0263442
-0.01234
-0.0140973
-0.0158461
-0.0175819
-0.0193004
-0.0209978
-0.0226705
-0.0243155
-0.0259306
-0.0275174
-0.012463
-0.0145034
-0.0165267
-0.0185289
-0.0205063
-0.0224555
-0.0243734
-0.0262571
-0.0281032
-0.0299198
-0.0133198
-0.015839
-0.0183215
-0.0207632
-0.0231606
-0.0255107
-0.0278111
-0.0300592
-0.0322491
-0.0343953
-0.0145176
-0.0177171
-0.0208569
-0.0239362
-0.0269544
-0.0299111
-0.0328058
-0.0356373
-0.0383939
-0.0410809
-0.0196756
-0.0240144
-0.0282285
-0.0323145
-0.0362686
-0.0400871
-0.0437664
-0.0473037
-0.0506795
-0.0538653
-0.0255096
-0.0312138
-0.0367119
-0.0420231
-0.0471693
-0.052174
-0.0570606
-0.0618512
-0.066546
-0.0710274
-0.0521156
-0.061286
-0.0700713
-0.0784452
-0.0863703
-0.0938019
-0.100697
-0.107028
-0.112792
-0.118112
-0.0751257
-0.0852679
-0.0944328
-0.102863
-0.110867
-0.118823
-0.127191
-0.136511
-0.147362
-0.161537
-0.226123
-0.254045
-0.279855
-0.303837
-0.326374
-0.34797
-0.36924
-0.390824
-0.413213
-0.437079
-0.0365472
-0.0465644
-0.0466627
-0.0401613
-0.0317267
-0.0240832
-0.0174918
-0.0119172
-0.00678686
-0.00238925
-0.0388052
-0.0485895
-0.0476906
-0.0404751
-0.0317633
-0.0240305
-0.0173862
-0.0118017
-0.0066915
-0.00236849
-0.0436824
-0.0527377
-0.0497337
-0.0411159
-0.0318536
-0.0239125
-0.0171588
-0.0115518
-0.00649684
-0.0023163
-0.0520131
-0.0592708
-0.0527518
-0.042034
-0.0319661
-0.0236993
-0.0167874
-0.0111478
-0.00618673
-0.00222182
-0.065163
-0.0686386
-0.0566922
-0.0431012
-0.031993
-0.0233224
-0.0162422
-0.0105617
-0.00574064
-0.00206481
-0.085433
-0.081637
-0.0617614
-0.0442399
-0.0317587
-0.0226504
-0.0154628
-0.00974558
-0.0051362
-0.00180895
-0.114931
-0.0991203
-0.0687171
-0.045701
-0.0311924
-0.0215665
-0.0143819
-0.00864079
-0.00436194
-0.00139655
-0.154912
-0.120302
-0.0783588
-0.0479666
-0.030483
-0.0201023
-0.0129913
-0.0072281
-0.00344238
-0.000757552
-0.196833
-0.138457
-0.0880494
-0.0497227
-0.0293717
-0.0181711
-0.0112519
-0.00554533
-0.00243408
0.000167716
-0.255382
-0.147628
-0.0942171
-0.0484053
-0.0276638
-0.015747
-0.00928187
-0.00375004
-0.00150486
0.00138927
-0.321927
-0.155598
-0.0977604
-0.0449812
-0.0268593
-0.0140645
-0.0082121
-0.00259224
-0.00121732
0.00242536
-0.329694
-0.153145
-0.0965902
-0.0432013
-0.026251
-0.0134619
-0.00784996
-0.00228987
-0.00110463
0.00266604
-0.32485
-0.147552
-0.0940682
-0.0412202
-0.0255053
-0.0128624
-0.00748871
-0.00203019
-0.000970596
0.00285157
-0.319085
-0.143468
-0.0921786
-0.0396935
-0.0249231
-0.0123636
-0.00718085
-0.00180513
-0.00084872
0.00301542
-0.314137
-0.140504
-0.0907388
-0.038452
-0.0244484
-0.011934
-0.00691366
-0.0016061
-0.000742145
0.00316222
-0.309481
-0.138005
-0.0894856
-0.0373961
-0.02404
-0.0115627
-0.00668289
-0.00143499
-0.000649943
0.00328788
-0.305251
-0.135903
-0.0884167
-0.0365344
-0.0237013
-0.0112565
-0.00649239
-0.00129511
-0.000573343
0.00338991
-0.301805
-0.134277
-0.0875851
-0.0358841
-0.0234417
-0.0110224
-0.00634653
-0.00118883
-0.000514403
0.00346719
-0.29939
-0.133171
-0.0870196
-0.0354499
-0.0232659
-0.0108643
-0.00624805
-0.00111758
-0.000474629
0.00351901
-0.298148
-0.132613
-0.0867332
-0.0352315
-0.0231762
-0.0107845
-0.00619893
-0.00108253
-0.000455211
0.00354476
)
;

boundaryField
{
    inlet
    {
        type            zeroGradient;
    }
    outlet
    {
        type            fixedValue;
        value           uniform 0;
    }
    cylinder
    {
        type            zeroGradient;
    }
    top
    {
        type            symmetryPlane;
    }
    bottom
    {
        type            symmetryPlane;
    }
    defaultFaces
    {
        type            empty;
    }
}


// ************************************************************************* //
