/*--------------------------------*- C++ -*----------------------------------*\
  =========                 |
  \\      /  F ield         | OpenFOAM: The Open Source CFD Toolbox
   \\    /   O peration     | Website:  https://openfoam.org
    \\  /    A nd           | Version:  6.0
     \\/     M anipulation  |
\*---------------------------------------------------------------------------*/
FoamFile
{
    version     2.0;
    format      ascii;
    class       surfaceScalarField;
    location    "14";
    object      phi;
}
// * * * * * * * * * * * * * * * * * * * * * * * * * * * * * * * * * * * * * //

dimensions      [0 3 -1 0 0 0 0];

internalField   nonuniform List<scalar> 
3880
(
-1.79618e-05
1.7981e-05
-1.91482e-08
-5.33962e-05
3.54809e-05
-4.659e-08
-9.51135e-05
4.17843e-05
-6.70736e-08
-0.000136036
4.1005e-05
-8.25902e-08
-0.000171796
3.58546e-05
-9.40944e-08
-0.000199982
2.82883e-05
-1.02262e-07
-0.000219665
1.97897e-05
-1.07565e-07
-0.000231089
1.15346e-05
-1.10427e-07
-0.000235475
4.4982e-06
-1.1164e-07
-5.40622e-07
-1.11077e-07
-0.000234824
-1.72789e-05
3.52599e-05
-5.07331e-05
6.89352e-05
-8.93124e-05
8.03636e-05
-0.000126052
7.77445e-05
-0.000156625
6.64282e-05
-0.000178586
5.02493e-05
-0.000190918
3.21209e-05
-0.000193765
1.43817e-05
-0.000188292
-9.74326e-07
-1.22999e-05
-0.000176533
-1.58788e-05
5.11387e-05
-4.52937e-05
9.83501e-05
-7.75136e-05
0.000112583
-0.000105843
0.000106074
-0.000126082
8.66667e-05
-0.000135751
5.99182e-05
-0.000133674
3.00445e-05
-0.00011979
4.97258e-07
-9.51236e-05
-2.56404e-05
-4.56625e-05
-6.17611e-05
-1.3675e-05
6.48137e-05
-3.67986e-05
0.000121474
-5.92134e-05
0.000134998
-7.47325e-05
0.000121593
-7.94554e-05
9.13896e-05
-7.09579e-05
5.14207e-05
-4.789e-05
6.97656e-06
-9.87148e-06
-3.75212e-05
4.23407e-05
-7.78525e-05
-0.00010996
0.000106638
-1.05051e-05
7.53188e-05
-2.47332e-05
0.000135702
-3.34488e-05
0.000143714
-3.13132e-05
0.000119457
-1.50337e-05
7.51101e-05
1.75194e-05
1.88677e-05
6.77553e-05
-4.32593e-05
0.000136432
-0.000106198
0.000223258
-0.000164679
-0.000212922
0.00032622
-6.11903e-06
8.14378e-05
-8.31298e-06
0.000137896
1.30933e-06
0.000134092
2.68221e-05
9.39447e-05
7.04579e-05
3.14743e-05
0.000133583
-4.42569e-05
0.000217278
-0.000126955
0.000322545
-0.000211465
0.000449794
-0.000291928
-0.000360401
0.000597273
-2.06305e-07
8.16441e-05
1.34331e-05
0.000124256
4.70439e-05
0.000100481
0.000103048
3.79409e-05
0.000182097
-4.75745e-05
0.000284077
-0.000146237
0.000408898
-0.000251776
0.000557103
-0.000359671
0.000729757
-0.000464581
-0.000556577
0.000925933
7.51552e-06
7.41286e-05
4.13833e-05
9.03886e-05
0.00010567
3.6194e-05
0.000200975
-5.73638e-05
0.000326007
-0.000172607
0.000478392
-0.000298622
0.000655506
-0.000428889
0.000855625
-0.000559789
0.00107919
-0.000688144
-0.000806911
0.00132952
1.71535e-05
5.69751e-05
7.58474e-05
3.16947e-05
0.00017807
-6.60282e-05
0.000322906
-0.0002022
0.000507407
-0.000357108
0.000726804
-0.000518019
0.000974812
-0.000676897
0.0012446
-0.000829577
0.00153237
-0.000975915
-0.00112651
0.00185197
2.84418e-05
2.85332e-05
0.000115909
-5.57728e-05
0.000262597
-0.000212716
0.000467093
-0.000406696
0.000726596
-0.000616611
0.00103663
-0.00082805
0.00139038
-0.00103065
0.00177703
-0.00121623
0.00218086
-0.00137974
-0.00152506
0.0025794
4.0568e-05
-1.20347e-05
0.000158721
-0.000173926
0.000352825
-0.00040682
0.000621589
-0.00067546
0.00096436
-0.000959383
0.00138179
-0.00124548
0.00187709
-0.00152595
0.00245928
-0.00179842
0.00315121
-0.00207167
-0.00238385
0.00401
5.24548e-05
-6.44896e-05
0.000200298
-0.000321769
0.000438712
-0.000645234
0.000764142
-0.00100089
0.00117385
-0.00136909
0.00166592
-0.00173755
0.00223921
-0.00209924
0.00289282
-0.00245202
0.00362118
-0.00280003
-0.00315217
0.0043895
6.35845e-05
-0.000128074
0.000238595
-0.000496779
0.000515544
-0.000922183
0.000886365
-0.00137171
0.00134323
-0.00182596
0.00187795
-0.00227227
0.00248126
-0.00270254
0.00314132
-0.00311208
0.00383955
-0.00349826
-0.00385486
0.00454224
7.39755e-05
-0.00020205
0.00027333
-0.000696134
0.00058277
-0.00123162
0.000988444
-0.00177738
0.00147641
-0.00231393
0.002032
-0.00282786
0.00263937
-0.00330992
0.00328079
-0.0037535
0.00393499
-0.00415246
-0.00449556
0.00457568
8.37686e-05
-0.000285818
0.000304644
-0.000917009
0.000640645
-0.00156762
0.00107152
-0.00220826
0.00157718
-0.00281959
0.00213738
-0.00338806
0.00273188
-0.00390442
0.00334057
-0.00436219
0.00394333
-0.00475522
-0.00507262
0.0045204
9.29511e-05
-0.000378769
0.00033227
-0.00115633
0.000688586
-0.00192394
0.00113503
-0.0026547
0.0016458
-0.00333035
0.0021963
-0.00393856
0.00276379
-0.00447192
0.003328
-0.00492639
0.00387151
-0.00529873
-0.00558167
0.00438055
0.000101278
-0.000480048
0.000355325
-0.00141037
0.000724883
-0.0022935
0.00117657
-0.00310639
0.00167966
-0.00383344
0.0022066
-0.0044655
0.00273388
-0.0049992
0.00324268
-0.0054352
0.00371923
-0.00577528
-0.00601788
0.00415545
0.000108321
-0.000588369
0.000372465
-0.00167452
0.000747117
-0.00266815
0.00119288
-0.00355216
0.00167522
-0.00431578
0.00216516
-0.00495544
0.00264007
-0.0054741
0.00308391
-0.00587904
0.00348715
-0.00617852
-0.00637772
0.00384699
0.000113555
-0.000701924
0.000382181
-0.00194314
0.000752787
-0.00303876
0.0011809
-0.00398027
0.00162961
-0.0047645
0.00207022
-0.00539605
0.00248241
-0.00588629
0.0028539
-0.00625053
0.00317966
-0.00650429
-0.0066596
0.00346154
0.000116453
-0.000818377
0.000383064
-0.00220976
0.000739818
-0.00339551
0.00113855
-0.004379
0.00154171
-0.00516767
0.00192245
-0.00577679
0.00226399
-0.00622783
0.00255839
-0.00654492
0.00280496
-0.00675087
-0.00686397
0.00300934
0.000116549
-0.000934925
0.000374015
-0.00246722
0.000706906
-0.0037284
0.00106517
-0.00473726
0.00141242
-0.00551492
0.0017251
-0.00608947
0.00199081
-0.00649354
0.00220603
-0.00676014
0.00237397
-0.00691881
-0.00699306
0.00250307
0.000113444
-0.00104837
0.000354272
-0.00270805
0.000653549
-0.00402768
0.000961409
-0.00504512
0.00124441
-0.00579792
0.00148342
-0.00632848
0.00167075
-0.00668087
0.00180709
-0.00689648
0.0018988
-0.00701052
-0.00705038
0.00195612
0.00010688
-0.00115525
0.000323557
-0.00292473
0.000580172
-0.0042843
0.00082926
-0.0052942
0.00104188
-0.00601053
0.00120406
-0.00649066
0.00131283
-0.00678964
0.00137246
-0.00695611
0.00139161
-0.00702967
-0.00704024
0.00138146
9.6712e-05
-0.00125196
0.000281995
-0.00311001
0.000487932
-0.00449023
0.000671622
-0.00547789
0.00080988
-0.00614879
0.000894256
-0.00657504
0.0009261
-0.00682148
0.000912501
-0.00694251
0.000863534
-0.00698071
-0.0069673
0.000790596
8.29217e-05
-0.00133488
0.000230103
-0.00325719
0.000378594
-0.00463872
0.00049202
-0.00559132
0.000553845
-0.00621062
0.000561131
-0.00658232
0.000518963
-0.00677932
0.000436372
-0.00685992
0.000324019
-0.00686835
-0.0068363
0.000193021
6.56277e-05
-0.00140051
0.000168769
-0.00336033
0.000254414
-0.00472437
0.000294337
-0.00563124
0.000279152
-0.00619543
0.000211177
-0.00651435
9.85596e-05
-0.0066667
-4.85615e-05
-0.0067128
-0.000219689
-0.00669723
-0.0066518
-0.000404186
4.51007e-05
-0.00144561
9.92534e-05
-0.00341448
0.000118096
-0.00474321
8.27188e-05
-0.00559587
-9.00019e-06
-0.00610371
-0.000149918
-0.00637343
-0.000329436
-0.00648718
-0.000536975
-0.00650526
-0.000762808
-0.00647139
-0.00641759
-0.000997021
2.17905e-05
-0.0014674
2.32248e-05
-0.00341592
-2.71749e-05
-0.00469281
-0.000138376
-0.00548466
-0.000305508
-0.00593658
-0.000517148
-0.00616179
-0.000760714
-0.00624362
-0.00102556
-0.00624041
-0.00130326
-0.0061937
-0.00613412
-0.00158673
-3.63284e-06
-0.00146377
-5.71607e-05
-0.00336239
-0.000177614
-0.00457236
-0.000364024
-0.00529825
-0.000605276
-0.00569533
-0.000886459
-0.00588061
-0.00119334
-0.00593674
-0.00151507
-0.00591868
-0.00184462
-0.00586414
-0.00579442
-0.00218432
-3.0215e-05
-0.00143355
-0.000139084
-0.00325352
-0.00032838
-0.00438306
-0.000587858
-0.00503878
-0.000901667
-0.00538152
-0.00125318
-0.00552909
-0.00162787
-0.00556205
-0.00201532
-0.00553123
-0.00241159
-0.00546788
-0.0054069
-0.00279912
-5.6723e-05
-0.00137683
-0.000219029
-0.00309122
-0.000473066
-0.00412902
-0.000799968
-0.00471187
-0.00118058
-0.00500091
-0.00159898
-0.00511069
-0.00204385
-0.00511718
-0.00250794
-0.00506714
-0.00299033
-0.00498548
-0.00487025
-0.00352698
-8.2082e-05
-0.00129475
-0.000293953
-0.00287934
-0.000605927
-0.00381705
-0.000990241
-0.00432756
-0.00142333
-0.00456782
-0.00188714
-0.00464688
-0.00236867
-0.00463565
-0.00285893
-0.00457688
-0.00335175
-0.00449266
-0.00439107
-0.00383093
-0.000105655
-0.00118909
-0.000362478
-0.00262252
-0.000725605
-0.00345392
-0.001159
-0.00389417
-0.00163512
-0.00409169
-0.00213425
-0.00414775
-0.00264294
-0.00412696
-0.00315221
-0.00406762
-0.00365486
-0.00399001
-0.00390462
-0.00414131
-0.000127098
-0.001062
-0.000424018
-0.0023256
-0.000831997
-0.00304594
-0.00130782
-0.00341834
-0.00182093
-0.00357859
-0.00235086
-0.00361783
-0.00288454
-0.00359328
-0.0034138
-0.00353835
-0.00393309
-0.00347073
-0.00339988
-0.00443783
-0.000146151
-0.000915845
-0.000478141
-0.00199361
-0.000924924
-0.00259916
-0.00143729
-0.00290598
-0.00198247
-0.0030334
-0.00253986
-0.00306044
-0.00309714
-0.00303599
-0.00364734
-0.00298816
-0.00418647
-0.00293159
-0.00287411
-0.00471224
-0.000162567
-0.000753278
-0.000524391
-0.00163179
-0.00100395
-0.0021196
-0.00154717
-0.00236276
-0.00211972
-0.00246085
-0.0027011
-0.00247906
-0.00327987
-0.00245722
-0.00385011
-0.00241792
-0.00440901
-0.0023727
-0.00232768
-0.00495544
-0.000176094
-0.000577184
-0.000562259
-0.00124562
-0.00106844
-0.00161342
-0.00163674
-0.00179446
-0.00223173
-0.00186585
-0.00283316
-0.00187763
-0.00343033
-0.00186006
-0.00401817
-0.00183008
-0.00459464
-0.00179623
-0.00176301
-0.00515931
-0.000186493
-0.000390692
-0.000591226
-0.00084089
-0.00111764
-0.001087
-0.00170504
-0.00120707
-0.00231724
-0.00125365
-0.00293423
-0.00126064
-0.00354589
-0.0012484
-0.00414776
-0.00122821
-0.00473831
-0.00120569
-0.00118378
-0.00531754
-0.000193555
-0.000197137
-0.000610828
-0.000423617
-0.00115088
-0.000546947
-0.00175116
-0.000606793
-0.00237502
-0.000629785
-0.00300264
-0.00063303
-0.00362428
-0.000626755
-0.00423588
-0.000616603
-0.00483621
-0.000605357
-0.000594476
-0.00542551
-0.000197126
-1.02942e-08
-0.000620721
-2.16517e-08
-0.00116764
-2.72513e-08
-0.0017744
-2.9703e-08
-0.00240416
-3.02926e-08
-0.00303716
-2.9827e-08
-0.00366389
-2.88078e-08
-0.00428046
-2.75201e-08
-0.00488579
-2.62081e-08
-2.50335e-08
-0.00548024
-0.000197126
0.000197116
-0.000620721
0.000423573
-0.00116764
0.000546893
-0.00177441
0.000606734
-0.00240416
0.000629725
-0.00303716
0.000632971
-0.00366389
0.000626698
-0.00428046
0.000616548
-0.00488579
0.000605304
0.000594426
-0.00548024
-0.000193555
0.000390671
-0.000610829
0.000840847
-0.00115088
0.00108695
-0.00175116
0.00120701
-0.00237503
0.00125359
-0.00300264
0.00126058
-0.00362428
0.00124834
-0.00423588
0.00122815
-0.00483621
0.00120563
0.00118373
-0.00542552
-0.000186493
0.000577165
-0.000591227
0.00124558
-0.00111764
0.00161336
-0.00170504
0.0017944
-0.00231724
0.0018658
-0.00293423
0.00187757
-0.00354589
0.00186
-0.00414777
0.00183002
-0.00473831
0.00179618
0.00176296
-0.00531754
-0.000176095
0.000753259
-0.000562261
0.00163175
-0.00106844
0.00211955
-0.00163674
0.0023627
-0.00223174
0.00246079
-0.00283317
0.002479
-0.00343034
0.00245717
-0.00401818
0.00241786
-0.00459464
0.00237265
0.00232763
-0.00515932
-0.000162567
0.000915827
-0.000524393
0.00199357
-0.00100396
0.00259911
-0.00154718
0.00290592
-0.00211973
0.00303334
-0.00270111
0.00306039
-0.00327988
0.00303594
-0.00385012
0.0029881
-0.00440901
0.00293154
0.00287406
-0.00495545
-0.000146152
0.00106198
-0.000478144
0.00232556
-0.000924928
0.00304589
-0.00143729
0.00341829
-0.00198248
0.00357853
-0.00253986
0.00361777
-0.00309715
0.00359323
-0.00364735
0.0035383
-0.00418648
0.00347067
0.00339984
-0.00471225
-0.000127099
0.00118908
-0.000424021
0.00262249
-0.000832002
0.00345388
-0.00130783
0.00389411
-0.00182094
0.00409164
-0.00235087
0.0041477
-0.00288454
0.00412691
-0.00341382
0.00406757
-0.0039331
0.00398996
0.00390458
-0.00443784
-0.000105656
0.00129473
-0.000362481
0.00287931
-0.000725611
0.00381701
-0.00115901
0.00432751
-0.00163513
0.00456776
-0.00213426
0.00464683
-0.00264295
0.0046356
-0.00315222
0.00457683
-0.00365487
0.00449261
0.00439102
-0.00414132
-8.20833e-05
0.00137682
-0.000293956
0.00309118
-0.000605932
0.00412898
-0.000990249
0.00471183
-0.00142334
0.00500086
-0.00188715
0.00511064
-0.00236868
0.00511712
-0.00285894
0.00506709
-0.00335176
0.00498543
0.0048702
-0.00383094
-5.67244e-05
0.00143354
-0.000219033
0.00325349
-0.000473073
0.00438302
-0.000799977
0.00503873
-0.00118059
0.00538147
-0.00159899
0.00552904
-0.00204387
0.005562
-0.00250795
0.00553118
-0.00299035
0.00546783
0.00540685
-0.00352699
-3.02164e-05
0.00146376
-0.000139088
0.00336236
-0.000328387
0.00457232
-0.000587867
0.00529821
-0.000901678
0.00569528
-0.0012532
0.00588056
-0.00162788
0.00593669
-0.00201534
0.00591863
-0.0024116
0.00586409
0.00579438
-0.00279913
-3.63426e-06
0.00146739
-5.71648e-05
0.00341589
-0.000177621
0.00469278
-0.000364034
0.00548462
-0.000605288
0.00593654
-0.000886473
0.00616174
-0.00119335
0.00624357
-0.00151508
0.00624036
-0.00184464
0.00619365
0.00613408
-0.00218434
2.1789e-05
0.0014456
2.32206e-05
0.00341446
-2.71822e-05
0.00474318
-0.000138386
0.00559583
-0.000305521
0.00610367
-0.000517163
0.00637338
-0.00076073
0.00648713
-0.00102558
0.00650522
-0.00130328
0.00647135
0.00641754
-0.00158675
4.50992e-05
0.0014005
9.92492e-05
0.00336031
0.000118088
0.00472434
8.27083e-05
0.00563121
-9.0132e-06
0.00619539
-0.000149933
0.0065143
-0.000329453
0.00666665
-0.000536993
0.00671276
-0.000762827
0.00669718
0.00665176
-0.00099704
6.56263e-05
0.00133488
0.000168765
0.00325717
0.000254406
0.0046387
0.000294326
0.00559129
0.000279139
0.00621058
0.000211162
0.00658228
9.85429e-05
0.00677927
-4.85792e-05
0.00685988
-0.000219707
0.00686831
0.00683626
-0.000404205
8.29204e-05
0.00125196
0.000230099
0.00311
0.000378586
0.00449021
0.000492009
0.00547786
0.000553832
0.00614876
0.000561116
0.006575
0.000518946
0.00682144
0.000436355
0.00694247
0.000324001
0.00698066
0.00696725
0.000193003
9.67107e-05
0.00115525
0.000281991
0.00292472
0.000487925
0.00428428
0.000671612
0.00529418
0.000809867
0.0060105
0.000894241
0.00649062
0.000926083
0.0067896
0.000912484
0.00695607
0.000863517
0.00702963
0.00704019
0.000790578
0.000106879
0.00104837
0.000323553
0.00270804
0.000580165
0.00402767
0.000829249
0.00504509
0.00104186
0.00579789
0.00120404
0.00632844
0.00131281
0.00668083
0.00137244
0.00689644
0.00139159
0.00701048
0.00705034
0.00138145
0.000113443
0.000934925
0.000354268
0.00246722
0.000653541
0.00372839
0.000961398
0.00473724
0.00124439
0.00551489
0.0014834
0.00608944
0.00167073
0.0064935
0.00180707
0.0067601
0.00189878
0.00691877
0.00699302
0.0019561
0.000116548
0.000818377
0.000374011
0.00220975
0.000706898
0.0033955
0.00106515
0.00437898
0.0014124
0.00516764
0.00172509
0.00577675
0.00199079
0.0062278
0.00220601
0.00654488
0.00237395
0.00675082
0.00686392
0.00250305
0.000116451
0.000701926
0.00038306
0.00194314
0.000739811
0.00303875
0.00113854
0.00398025
0.0015417
0.00476448
0.00192243
0.00539602
0.00226397
0.00588626
0.00255837
0.00625049
0.00280494
0.00650424
0.00665955
0.00300932
0.000113554
0.000588371
0.000382177
0.00167452
0.00075278
0.00266815
0.00118088
0.00355215
0.0016296
0.00431576
0.0020702
0.00495542
0.00248238
0.00547407
0.00285387
0.005879
0.00317964
0.00617848
0.00637767
0.00346152
0.00010832
0.000480052
0.000372461
0.00141038
0.00074711
0.0022935
0.00119287
0.00310639
0.0016752
0.00383343
0.00216514
0.00446548
0.00264005
0.00499917
0.00308389
0.00543516
0.00348713
0.00577523
0.00601783
0.00384697
0.000101277
0.000378774
0.000355321
0.00115634
0.000724876
0.00192395
0.00117656
0.0026547
0.00167965
0.00333035
0.00220658
0.00393855
0.00273386
0.00447189
0.00324266
0.00492636
0.0037192
0.00529868
0.00558162
0.00415542
9.29502e-05
0.000285824
0.000332267
0.00091702
0.00068858
0.00156763
0.00113502
0.00220827
0.00164578
0.00281959
0.00219628
0.00338805
0.00276377
0.0039044
0.00332797
0.00436215
0.00387147
0.00475518
0.00507257
0.00438052
8.37678e-05
0.000202056
0.000304641
0.000696147
0.000640638
0.00123164
0.00107151
0.0017774
0.00157716
0.00231393
0.00213736
0.00282785
0.00273185
0.0033099
0.00334053
0.00375347
0.00394329
0.00415242
0.00449551
0.00452035
7.39748e-05
0.000128082
0.000273327
0.000496795
0.000582763
0.000922201
0.000988432
0.00137173
0.00147639
0.00182597
0.00203197
0.00227227
0.00263934
0.00270254
0.00328075
0.00311207
0.00393494
0.00349823
0.00385483
0.00457563
6.35839e-05
6.44977e-05
0.000238591
0.000321787
0.000515536
0.000645256
0.000886352
0.00100091
0.00134321
0.00136911
0.00187792
0.00173756
0.00248122
0.00209924
0.00314127
0.00245201
0.00383949
0.00280001
0.00315214
0.00454218
5.2454e-05
1.20438e-05
0.000200294
0.000173947
0.000438703
0.000406847
0.000764126
0.000675489
0.00117383
0.00095941
0.00166589
0.0012455
0.00223917
0.00152596
0.00289276
0.00179842
0.00362111
0.00207166
0.00238383
0.00438942
4.05667e-05
-2.8523e-05
0.000158716
5.57977e-05
0.000352813
0.000212749
0.000621568
0.000406734
0.000964329
0.000616649
0.00138175
0.000828083
0.00187703
0.00103067
0.00245921
0.00121625
0.00315113
0.00137974
0.00152505
0.0040099
2.844e-05
-5.6963e-05
0.000115902
-3.16645e-05
0.000262581
6.60703e-05
0.000467066
0.000202249
0.000726555
0.000357159
0.00103657
0.000518068
0.0013903
0.00067694
0.00177694
0.000829611
0.00218074
0.00097594
0.00112653
0.00257926
1.7151e-05
-7.41139e-05
7.58381e-05
-9.03516e-05
0.00017805
-3.61414e-05
0.000322873
5.74265e-05
0.000507357
0.000172675
0.000726734
0.000298691
0.000974721
0.000428954
0.00124448
0.000559848
0.00153223
0.000688196
0.000806954
0.0018518
7.51232e-06
-8.16263e-05
4.13719e-05
-0.000124211
0.000105646
-0.000100416
0.000200935
-3.78623e-05
0.000325949
4.76613e-05
0.000478312
0.000146327
0.000655401
0.000251865
0.000855493
0.000359756
0.00107903
0.000464661
0.00055665
0.00132933
-2.10041e-07
-8.14162e-05
1.34203e-05
-0.000137841
4.70176e-05
-0.000134013
0.000103004
-9.3849e-05
0.000182033
-3.13671e-05
0.00028399
4.43705e-05
0.000408785
0.00012707
0.000556962
0.000211579
0.000729586
0.000292037
0.000360504
0.000925732
-6.12304e-06
-7.52931e-05
-8.32656e-06
-0.000135638
1.28183e-06
-0.000143622
2.67771e-05
-0.000119344
7.03923e-05
-7.49823e-05
0.000133494
-1.87308e-05
0.000217163
4.34004e-05
0.000322403
0.000106339
0.000449623
0.000164818
0.000213056
0.000597072
-1.0509e-05
-6.47841e-05
-2.47464e-05
-0.000121401
-3.34753e-05
-0.000134893
-3.13564e-05
-0.000121463
-1.50963e-05
-9.12423e-05
1.74348e-05
-5.1262e-05
6.76468e-05
-6.81155e-06
0.000136297
3.76881e-05
0.000223097
7.80183e-05
0.000110122
0.000326031
-1.36785e-05
-5.11056e-05
-3.68104e-05
-9.82687e-05
-5.92369e-05
-0.000112466
-7.47705e-05
-0.00010593
-7.95103e-05
-8.65025e-05
-7.10318e-05
-5.97405e-05
-4.79845e-05
-2.98589e-05
-9.98818e-06
-3.08165e-07
4.22004e-05
2.58298e-05
4.58488e-05
0.000106473
-1.58816e-05
-3.5224e-05
-4.5303e-05
-6.88474e-05
-7.75319e-05
-8.02371e-05
-0.000105873
-7.75887e-05
-0.000126124
-6.62509e-05
-0.000135808
-5.00571e-05
-0.000133747
-3.19192e-05
-0.00011988
-1.41754e-05
-9.52323e-05
1.182e-06
1.25055e-05
-6.1889e-05
-1.72807e-05
-1.79433e-05
-5.07389e-05
-3.53891e-05
-8.93239e-05
-4.16521e-05
-0.00012607
-4.08422e-05
-0.000156652
-3.56692e-05
-0.000178622
-2.80869e-05
-0.000190964
-1.9578e-05
-0.000193822
-1.13175e-05
-0.000188361
-4.27893e-06
7.58454e-07
-0.000176614
-1.79624e-05
-5.33981e-05
-9.51173e-05
-0.000136042
-0.000171805
-0.000199994
-0.00021968
-0.000231108
-0.000235498
-0.000234851
0.000202105
-0.000435185
-1.74315e-06
0.00135681
-0.00115868
3.97813e-06
0.00254536
-0.00119508
6.53533e-06
0.00332452
-0.000780752
1.58613e-06
0.00399457
-0.000665124
-4.91932e-06
0.00448003
-0.000475868
-9.59329e-06
0.00491808
-0.00043068
-7.36919e-06
0.00523476
-0.000312463
-4.21949e-06
0.00555445
-0.000323792
4.10525e-06
-0.000226406
8.4554e-06
0.000314412
-0.00092613
0.00143969
-0.00228396
0.00260169
-0.00235709
0.00336408
-0.00154314
0.00402216
-0.00132321
0.00450066
-0.000954365
0.00493393
-0.000863954
0.00524849
-0.000627022
0.00556689
-0.000642193
-0.000445022
0.000531661
-0.00151955
0.00159961
-0.0033519
0.00271008
-0.00346756
0.00344017
-0.00227323
0.00407522
-0.00195826
0.00454034
-0.00141949
0.00496446
-0.00128807
0.00527503
-0.000937597
0.00559108
-0.000958243
-0.00066512
0.000839757
-0.00225267
0.00182543
-0.00433758
0.00286222
-0.00450435
0.00354692
-0.00295793
0.00414965
-0.00256099
0.00459627
-0.0018661
0.00500781
-0.00169961
0.00531322
-0.001243
0.00562637
-0.00127139
-0.000887799
0.00121882
-0.00314527
0.00210157
-0.00522032
0.00304654
-0.00544932
0.00367604
-0.00358743
0.00423963
-0.00312458
0.00466429
-0.00229076
0.00506112
-0.00209644
0.00536106
-0.00154295
0.00567145
-0.00158178
-0.00111455
0.00164447
-0.00419247
0.00240913
-0.00598498
0.00324907
-0.00628927
0.00381756
-0.00415592
0.00433814
-0.00364516
0.00473945
-0.00269208
0.00512097
-0.00247796
0.00541624
-0.00183821
0.00572483
-0.00189037
-0.00134734
0.00208838
-0.00535491
0.00272667
-0.00662328
0.00345437
-0.00701696
0.00396049
-0.00466204
0.00443741
-0.00412208
0.00481619
-0.00307086
0.00518351
-0.00284528
0.00547605
-0.00213075
0.00578475
-0.00219907
-0.00158865
0.00252
-0.00654539
0.00303095
-0.00713423
0.00364626
-0.00763227
0.00409345
-0.00510923
0.00452946
-0.00455809
0.00488878
-0.00343018
0.00524468
-0.00320118
0.00553763
-0.00242371
0.00584925
-0.00251068
-0.0018415
0.00292169
-0.00761511
0.00330296
-0.0075155
0.00381065
-0.00813996
0.00420592
-0.0055045
0.00460676
-0.00495893
0.00495166
-0.00377508
0.00530049
-0.00355
0.00559809
-0.00272131
0.00591634
-0.00282893
-0.00210942
0.00329822
-0.00833392
0.00354115
-0.00775843
0.00393678
-0.0085356
0.0042906
-0.00585831
0.00466259
-0.00533093
0.00499996
-0.00411245
0.00534693
-0.00389697
0.00565492
-0.00302931
0.00598348
-0.00315749
-0.00239722
0.0434157
-0.00111805
-0.0506316
0.0393082
-0.00365092
0.0373485
-0.00657591
0.0373051
-0.00581491
0.0373579
-0.00538365
0.0377648
-0.00451939
0.0382744
-0.00440656
0.0388884
-0.00364328
0.0394345
-0.00370359
-0.00298456
0.0523699
0.00310162
-0.0565896
0.0502251
-0.00150612
0.0477069
-0.00405766
0.0462321
-0.00434016
0.0451145
-0.00426603
0.0444132
-0.00381809
0.0439029
-0.0038963
0.0436831
-0.00342344
0.0434197
-0.00344023
-0.00287436
0.0538773
0.00433467
-0.0551104
0.0525811
-0.000209861
0.0509734
-0.00245001
0.0496577
-0.0030244
0.0485346
-0.00314295
0.0476701
-0.00295361
0.0468832
-0.0031094
0.0463493
-0.00288949
0.045767
-0.00285791
-0.00241641
0.0520142
0.00421482
-0.0518943
0.0515614
0.000242959
0.05069
-0.0015787
0.0497992
-0.00213352
0.0489598
-0.00230355
0.0482628
-0.00225664
0.0475588
-0.00240538
0.0470155
-0.00234627
0.0464313
-0.00227369
-0.00189324
0.0499565
0.00356137
-0.049303
0.0497801
0.000419347
0.049297
-0.0010956
0.0487234
-0.00155991
0.0481302
-0.00171038
0.0476102
-0.00173665
0.0470554
-0.0018505
0.046584
-0.00187493
0.0460928
-0.00178249
-0.00142958
0.0482574
0.00278884
-0.0474849
0.0482372
0.000439594
0.0479185
-0.000776907
0.0475109
-0.00115232
0.0470666
-0.00126607
0.0466553
-0.00132537
0.0462109
-0.00140615
0.0457997
-0.00146367
0.0453892
-0.00137198
-0.00104914
0.0470498
0.00202575
-0.0462868
0.0471019
0.000387525
0.0468594
-0.000534389
0.0465315
-0.000824422
0.0461684
-0.000902923
0.0458117
-0.000968761
0.0454299
-0.00102435
0.0450514
-0.00108517
0.0446875
-0.00100804
-0.000736483
0.0462363
0.00131234
-0.0455229
0.046341
0.000282904
0.0461412
-0.000334581
0.0458503
-0.000533559
0.0455295
-0.000582127
0.0451975
-0.000636799
0.0448459
-0.000672678
0.0444811
-0.00072043
0.0441385
-0.000665396
-0.000469333
0.0457404
0.000643836
-0.0450719
0.045878
0.000145266
0.0457058
-0.0001624
0.0454328
-0.000260483
0.0451334
-0.000282801
0.0448122
-0.000315588
0.0444735
-0.000333938
0.0441135
-0.000360475
0.0437789
-0.000330728
-0.000228999
0.0455059
-0.0448621
0.0456512
0.0454888
0.0452283
0.0449455
0.0446299
0.044296
0.0439355
0.0436048
0.0567958
0.00229427
-0.0560807
0.0573534
0.00290391
0.0577052
0.00349525
0.0578014
0.00405927
0.0575951
0.00458678
0.0570465
0.00506898
0.056124
0.00549819
0.054798
0.00586829
0.0530131
0.00617444
0.00639145
0.0514014
0.00168555
-0.0507927
0.0520553
0.00225002
0.0527404
0.00281014
0.0534388
0.00336087
0.0541291
0.00389649
0.0547873
0.00441082
0.055388
0.00489744
0.0559063
0.00535
0.056318
0.00576278
0.00611983
0.0480878
0.00121134
-0.0476136
0.048643
0.00169484
0.0492759
0.00217716
0.0499814
0.00265545
0.0507513
0.00312655
0.0515751
0.00358702
0.0524395
0.00403304
0.053329
0.00446046
0.0542271
0.00486476
0.00523649
0.0454865
0.000885668
-0.0451608
0.0458923
0.00128907
0.0463787
0.00169072
0.0469458
0.00208838
0.0475925
0.00247979
0.0483169
0.00286263
0.0491155
0.0032345
0.049983
0.0035929
0.0509127
0.00393504
0.00425491
0.043896
0.000646821
-0.0436572
0.0442089
0.000976197
0.044596
0.00130368
0.0450569
0.00162741
0.0455912
0.00194552
0.0461977
0.00225615
0.0468747
0.00255744
0.0476201
0.00284751
0.0484309
0.00312426
0.0033828
0.0427992
0.000465637
-0.0426181
0.0430503
0.000725104
0.0433712
0.00098279
0.0437615
0.00123718
0.0442202
0.00148676
0.0447463
0.00173006
0.0453382
0.00196559
0.0459938
0.00219189
0.0467107
0.00240735
0.00260859
0.0421049
0.000321836
-0.0419611
0.0423156
0.000514475
0.0425927
0.000705689
0.0429355
0.000894324
0.0433431
0.00107924
0.0438138
0.00125931
0.044346
0.00143341
0.0449374
0.00160044
0.0455856
0.00175921
0.00190742
0.0416528
0.000202172
-0.0415331
0.0418375
0.000329749
0.0420868
0.000456361
0.0423999
0.000581234
0.0427756
0.000703601
0.0432122
0.000822704
0.0437078
0.000937793
0.0442601
0.00104813
0.0448664
0.00115293
0.00125085
0.041388
9.72584e-05
-0.0412831
0.041557
0.00016084
0.0417894
0.000223958
0.0420844
0.00028622
0.0424407
0.000347243
0.0428568
0.000406642
0.0433305
0.00046404
0.0438596
0.000519066
0.0444412
0.000571328
0.000620188
0.0412626
-0.0411653
0.0414234
0.0416473
0.0419336
0.0422808
0.0426875
0.0431515
0.0436706
0.0442419
0.0481186
-0.00335657
-0.0475611
0.0488324
-0.00289817
0.0496556
-0.00240991
0.0505483
-0.00188975
0.0514828
-0.00133869
0.0524405
-0.00076462
0.0534031
-0.000172037
0.0543492
0.000435379
0.0552524
0.0010529
0.00167475
0.0479894
-0.00340973
-0.0479362
0.0480857
-0.0029945
0.0482247
-0.00254893
0.0484123
-0.00207735
0.0486546
-0.00158092
0.0489557
-0.00106571
0.0493191
-0.000535462
0.049747
7.50532e-06
0.0502391
0.000560707
0.00112118
0.0468978
-0.00315022
-0.0471574
0.0466937
-0.00279036
0.0465501
-0.00240535
0.0464724
-0.00199962
0.0464667
-0.00157525
0.0465367
-0.00113565
0.0466845
-0.00068334
0.0469124
-0.000220317
0.0472217
0.000251331
0.000729349
0.0455801
-0.00277381
-0.0459565
0.0452615
-0.00247176
0.0450042
-0.00214806
0.0448118
-0.00180717
0.0446875
-0.00145096
0.0446337
-0.00108187
0.0446523
-0.000701972
0.0447452
-0.000313223
0.0449142
8.23709e-05
0.000482718
0.0446569
-0.0023517
-0.045079
0.0442885
-0.00210342
0.0439785
-0.001838
0.0437298
-0.00155853
0.0435455
-0.0012666
0.0434277
-0.000964085
0.0433784
-0.000652704
0.0433993
-0.000334157
0.0434919
-1.0186e-05
0.000317417
0.0439857
-0.00190204
-0.0444354
0.043588
-0.00170568
0.043246
-0.00149602
0.0429628
-0.0012753
0.042741
-0.00104478
0.0425827
-0.000805857
0.04249
-0.000559915
0.0424641
-0.000308348
0.0425065
-5.25852e-05
0.000205909
0.0435546
-0.00143727
-0.0440194
0.0431402
-0.00129125
0.0427797
-0.00113553
0.042476
-0.000971599
0.0422316
-0.000800371
0.0420486
-0.000622863
0.0419288
-0.000440111
0.0418736
-0.000253169
0.0418842
-6.31205e-05
0.000128926
0.0432755
-0.000962371
-0.0437504
0.04285
-0.000865741
0.0424772
-0.000762729
0.0421599
-0.000654264
0.0419005
-0.000540952
0.0417011
-0.000423455
0.0415634
-0.000302457
0.0414889
-0.000178662
0.0414786
-5.2794e-05
7.44037e-05
0.0431145
-0.000482003
-0.0435949
0.0426828
-0.000434011
0.0423029
-0.00038285
0.0419776
-0.000328962
0.0417093
-0.000272644
0.0415
-0.000214221
0.0413516
-0.000154029
0.0412654
-9.24195e-05
0.0412423
-2.97526e-05
3.36e-05
0.0430406
-0.0435226
0.0426066
0.0422237
0.0418948
0.0416221
0.0414079
0.0412539
0.0411614
0.0411317
0.0429475
0.000174468
-0.00019307
0.0429916
0.000520788
-0.000564903
0.0430664
0.000871844
-0.000946611
0.0431894
0.00123581
-0.0013588
0.0433907
0.00161803
-0.00181931
0.0437139
0.00202274
-0.00234592
0.0442178
0.00245206
-0.00295598
0.0449744
0.0029084
-0.00366499
0.0460778
0.00336773
-0.00447116
0.00391954
-0.00540286
0.0429657
0.000137683
0.0430731
0.000413438
0.0432544
0.000690536
0.04352
0.000970149
0.043885
0.00125308
0.0443681
0.00153957
0.0449915
0.00182867
0.0457795
0.00212045
0.0467479
0.00239935
0.00273117
0.0429665
0.000100066
0.0430779
0.00030209
0.0432628
0.000505642
0.0435252
0.000707699
0.043871
0.000907361
0.0443072
0.00110333
0.0448424
0.0012935
0.0454866
0.00147618
0.0462446
0.00164137
0.00181844
0.0429586
7.03633e-05
0.0430476
0.000213154
0.0431959
0.000357292
0.0434044
0.000499179
0.0436742
0.000637609
0.0440062
0.000771281
0.0444011
0.000898621
0.0448589
0.00101842
0.0453746
0.00112567
0.0012365
0.0429506
4.87218e-05
0.043016
0.000147747
0.0431256
0.000247688
0.0432791
0.000345647
0.0434762
0.000440562
0.0437161
0.00053138
0.0439977
0.000616958
0.0443198
0.000696361
0.0446787
0.000766801
0.000836197
0.0429445
3.31631e-05
0.0429917
0.000100577
0.0430708
0.000168581
0.0431813
0.000235121
0.0433224
0.000299419
0.0434931
0.000360735
0.0436917
0.000418326
0.0439165
0.000471595
0.0441642
0.000519071
0.000565
0.0429403
2.18061e-05
0.0429747
6.61234e-05
0.0430325
0.000110808
0.0431131
0.000154501
0.0432159
0.000196677
0.0433398
0.000236848
0.0434836
0.000274533
0.0436458
0.000309344
0.0438244
0.000340452
0.000370006
0.0429375
1.32016e-05
0.0429636
4.00191e-05
0.0430074
6.70455e-05
0.0430684
9.3471e-05
0.0431461
0.000118981
0.0432397
0.000143284
0.0433481
0.000166103
0.0434703
0.000187212
0.0436045
0.000206176
0.00022409
0.0429359
6.22338e-06
0.0429571
1.8866e-05
0.0429925
3.15964e-05
0.0430419
4.40442e-05
0.0431049
5.60629e-05