/*--------------------------------*- C++ -*----------------------------------*\
  =========                 |
  \\      /  F ield         | OpenFOAM: The Open Source CFD Toolbox
   \\    /   O peration     | Website:  https://openfoam.org
    \\  /    A nd           | Version:  6.0
     \\/     M anipulation  |
\*---------------------------------------------------------------------------*/
FoamFile
{
    version     2.0;
    format      ascii;
    class       volVectorField;
    location    "14";
    object      U;
}
// * * * * * * * * * * * * * * * * * * * * * * * * * * * * * * * * * * * * * //

dimensions      [0 1 -1 0 0 0 0];

internalField   nonuniform List<vector> 
2000
(
(-0.00199174 0.00174086 5.86729e-20)
(-0.00761343 0.00330411 6.96528e-20)
(-0.0152965 0.0036594 -6.63956e-20)
(-0.0222582 0.0033294 -1.35477e-19)
(-0.0275519 0.00262513 -9.46426e-20)
(-0.031027 0.00175032 1.26094e-19)
(-0.0327831 0.000850838 7.34612e-20)
(-0.0330918 3.38719e-05 -2.97122e-20)
(-0.0323882 -0.000620926 -7.41954e-20)
(-0.0309701 -0.00104935 5.40956e-20)
(-0.00248963 0.00512074 -1.45406e-19)
(-0.00835879 0.00967066 2.00657e-19)
(-0.015683 0.0106624 2.00087e-20)
(-0.0219365 0.00963902 -1.16229e-19)
(-0.0263102 0.00751539 5.56113e-19)
(-0.02873 0.00488976 -2.4477e-19)
(-0.0293435 0.00219174 -2.64855e-19)
(-0.0284489 -0.000259139 3.19476e-19)
(-0.0264976 -0.00221983 -3.15154e-19)
(-0.0238655 -0.00349689 1.58923e-19)
(-0.00343407 0.00822019 2.41533e-20)
(-0.0097079 0.0153765 8.56011e-21)
(-0.0162414 0.0168164 6.01141e-19)
(-0.0210259 0.0150299 2.10857e-19)
(-0.0235271 0.011481 4.17987e-20)
(-0.0238222 0.00712357 3.45962e-19)
(-0.0221521 0.00264533 -6.57189e-19)
(-0.0188638 -0.00142889 1.42535e-20)
(-0.0144382 -0.00468014 -3.88716e-19)
(-0.00941386 -0.00678321 4.2831e-19)
(-0.00471937 0.0108578 -4.54102e-20)
(-0.0113698 0.0200065 2.61047e-19)
(-0.0165299 0.0216121 -7.60758e-19)
(-0.0189743 0.0189848 -9.83924e-20)
(-0.0185798 0.0140442 -5.6006e-19)
(-0.0156473 0.00803084 5.80081e-19)
(-0.010552 0.00184197 -6.15376e-19)
(-0.00370367 -0.00381069 4.32215e-19)
(0.00438185 -0.00831431 1.81709e-19)
(0.0129065 -0.0112075 -2.05444e-19)
(-0.00617761 0.0128574 -5.0492e-19)
(-0.0128871 0.0231802 4.50901e-21)
(-0.0158564 0.0246199 9.36656e-19)
(-0.0149134 0.0211223 2.80939e-19)
(-0.0104807 0.0149298 -8.9322e-19)
(-0.00315468 0.00746715 5.55423e-19)
(0.00651735 -0.000239762 6.29931e-19)
(0.0180582 -0.00733428 -5.6168e-19)
(0.0309284 -0.0129952 4.00587e-19)
(0.0439601 -0.0166221 9.83217e-20)
(-0.00756733 0.0140483 6.90484e-20)
(-0.0136173 0.024562 1.27843e-20)
(-0.0132548 0.0255125 -1.19683e-18)
(-0.00762591 0.0212341 -6.6982e-19)
(0.00217003 0.014125 7.99233e-19)
(0.0151675 0.00566151 -9.36134e-19)
(0.0306032 -0.00312437 1.07318e-18)
(0.0479334 -0.0113198 -9.25648e-20)
(0.0666365 -0.0179108 -3.0197e-19)
(0.0850593 -0.0221715 -8.78196e-19)
(-0.00856188 0.0142682 -1.49885e-19)
(-0.012721 0.0238755 -2.7375e-19)
(-0.00748008 0.0240783 -3.36461e-19)
(0.00446176 0.019293 7.18251e-19)
(0.0212114 0.0118901 1.33298e-18)
(0.0413538 0.0032489 -2.75444e-19)
(0.0638439 -0.0057594 -6.71254e-19)
(0.0880564 -0.0143393 2.04709e-19)
(0.113572 -0.0213849 -1.29059e-18)
(0.138176 -0.0260973 1.41717e-18)
(-0.00874568 0.0133781 9.16515e-19)
(-0.00917836 0.0209287 -4.9999e-19)
(0.00294783 0.0202307 9.77328e-19)
(0.0232174 0.0154299 -1.59719e-18)
(0.0488557 0.00870348 -7.63619e-19)
(0.0779111 0.00121477 -1.05813e-18)
(0.108949 -0.00650562 3.07326e-19)
(0.141184 -0.0140462 -8.57211e-19)
(0.174434 -0.0204367 1.8669e-18)
(0.206022 -0.0249885 5.2302e-19)
(-0.00762952 0.0112915 6.69789e-20)
(-0.00185002 0.0156565 8.14483e-19)
(0.0196334 0.0140136 1.61905e-18)
(0.0506539 0.00986451 4.95376e-19)
(0.0875221 0.00509895 1.4662e-18)
(0.127657 0.000680753 8.04507e-20)
(0.169043 -0.00319493 -1.19413e-21)
(0.210473 -0.00657204 5.9177e-19)
(0.252015 -0.00878559 4.80257e-19)
(0.291094 -0.0102523 -1.55682e-18)
(-0.00470088 0.00802102 -5.42001e-19)
(0.0103914 0.00818081 -9.08278e-19)
(0.0441031 0.00559874 -1.32145e-18)
(0.0886962 0.00273519 3.0865e-20)
(0.139706 0.00114956 -6.74408e-19)
(0.194025 0.00180631 1.06324e-18)
(0.24907 0.00503182 -2.92902e-18)
(0.302897 0.0110511 1.31562e-18)
(0.354851 0.0204691 4.95821e-19)
(0.402188 0.0291499 1.55631e-18)
(0.000477013 0.00373704 2.71208e-19)
(0.0284159 -0.00109294 -1.03771e-18)
(0.0773529 -0.00463116 9.27017e-19)
(0.138371 -0.00595794 -3.59959e-19)
(0.206634 -0.00407694 3.91587e-19)
(0.27917 0.00193616 8.53237e-19)
(0.354132 0.0128196 -1.14559e-18)
(0.431101 0.0295194 1.49216e-19)
(0.511038 0.0513121 -5.49299e-19)
(0.596263 0.0682434 1.1115e-18)
(0.00816904 -0.00118361 3.87855e-19)
(0.0526143 -0.0113183 -9.39996e-19)
(0.119384 -0.0156926 1.28184e-18)
(0.198661 -0.0155163 -7.98955e-19)
(0.28524 -0.0109107 -2.93056e-19)
(0.376058 -0.00173701 1.73545e-19)
(0.46929 0.0119176 8.98022e-20)
(0.564355 0.0297456 1.21853e-18)
(0.660888 0.0490454 3.50965e-19)
(0.756574 0.0611429 1.4974e-18)
(0.0184831 -0.00617912 -3.45879e-19)
(0.0830251 -0.0211418 1.21459e-18)
(0.169719 -0.0256167 -1.01458e-18)
(0.268065 -0.0233079 -1.19107e-18)
(0.372379 -0.0156998 1.66661e-18)
(0.479154 -0.00358644 -1.26806e-18)
(0.58598 0.0121022 3.34896e-19)
(0.691289 0.0302579 -1.98607e-18)
(0.793288 0.0482103 1.48761e-18)
(0.887985 0.060633 7.43229e-20)
(0.0314253 -0.0106218 -4.50366e-19)
(0.119448 -0.0290067 -4.35594e-19)
(0.227662 -0.0321139 -9.28284e-19)
(0.345162 -0.0263301 1.12527e-18)
(0.465819 -0.0145853 -5.69467e-20)
(0.58566 0.00142354 7.28603e-19)
(0.701737 0.0200952 1.32989e-18)
(0.811801 0.0399347 -4.0866e-19)
(0.91348 0.0588571 -1.44554e-18)
(1.00276 0.0738629 2.87003e-18)
(0.0469252 -0.0139036 -2.32595e-19)
(0.16144 -0.0334117 -2.77577e-19)
(0.292206 -0.0330753 5.00492e-19)
(0.428287 -0.0220528 -9.30908e-19)
(0.563315 -0.0047418 1.58903e-19)
(0.693072 0.0163068 1.41674e-19)
(0.814426 0.0389441 6.21503e-20)
(0.925025 0.0614669 -9.87755e-21)
(1.02267 0.0823798 -1.5234e-19)
(1.104 0.100075 -2.42781e-18)
(0.0648234 -0.0154625 9.44311e-19)
(0.208265 -0.0330329 -6.59176e-19)
(0.361912 -0.0267894 8.39844e-21)
(0.515281 -0.00866791 -1.00597e-18)
(0.662117 0.0154979 -3.60497e-19)
(0.79833 0.0423827 3.36873e-19)
(0.921081 0.0694125 2.62078e-19)
(1.02847 0.0947991 -9.33895e-19)
(1.11904 0.117584 7.63894e-19)
(1.19044 0.13696 -1.00224e-18)
(0.0848395 -0.0147871 4.07299e-19)
(0.258857 -0.0267811 -3.62284e-19)
(0.434876 -0.0120379 1.50651e-18)
(0.603483 0.0148344 1.53968e-19)
(0.759016 0.0466821 3.53404e-19)
(0.898005 0.079553 1.57733e-18)
(1.01842 0.110628 -2.40878e-19)
(1.11935 0.138203 2.20508e-19)
(1.20044 0.161881 9.15054e-20)
(1.26063 0.181333 -1.11941e-19)
(0.106542 -0.0114272 2.84408e-19)
(0.311805 -0.0138433 6.84671e-19)
(0.508786 0.0118637 -7.34443e-19)
(0.689874 0.0486873 -2.49113e-19)
(0.850597 0.0883977 -3.0789e-19)
(0.988671 0.126671 4.76903e-19)
(1.1034 0.160712 -2.48481e-19)
(1.19524 0.189145 6.6881e-19)
(1.26525 0.212225 2.25564e-19)
(1.31378 0.229959 -3.67549e-19)
(0.129336 -0.00501939 -3.06552e-19)
(0.365388 0.00626945 2.72739e-19)
(0.58103 0.045045 -5.82433e-19)
(0.771285 0.0924035 2.51477e-19)
(0.933544 0.139451 -2.61117e-19)
(1.06728 0.181871 -3.26282e-19)
(1.17356 0.217249 -2.6254e-19)
(1.25455 0.244825 2.93649e-19)
(1.31275 0.265634 -5.54847e-19)
(1.34998 0.27998 3.35339e-19)
(0.152468 0.00467555 -1.09237e-19)
(0.417641 0.033667 -2.13961e-19)
(0.648857 0.0870655 1.01901e-19)
(0.844637 0.144844 6.23036e-21)
(1.00491 0.198038 8.47107e-20)
(1.13141 0.242835 1.16494e-19)
(1.22731 0.277608 1.08236e-19)
(1.29657 0.302506 -1.43489e-19)
(1.34313 0.319457 1.2259e-19)
(1.37011 0.329066 -1.92045e-19)
(0.175056 0.017732 -6.32699e-20)
(0.466462 0.0680297 -2.37531e-20)
(0.709551 0.136916 9.47238e-20)
(0.907151 0.204299 -4.35438e-20)
(1.06232 0.261909 1.16512e-19)
(1.17943 0.307004 -1.50532e-19)
(1.26391 0.339163 3.48415e-20)
(1.32146 0.35969 3.74025e-20)
(1.35725 0.371472 -1.5838e-20)
(1.37552 0.375424 5.97259e-20)
(0.196135 0.0340241 -6.82888e-20)
(0.509738 0.108579 -3.09383e-19)
(0.760615 0.19305 -2.15752e-20)
(0.956536 0.268594 6.44813e-21)
(1.10411 0.328523 -4.04145e-19)
(1.21054 0.371758 5.32516e-20)
(1.28344 0.399443 -4.54788e-20)
(1.33006 0.414209 -1.10404e-19)
(1.35654 0.419894 2.31458e-19)
(1.36792 0.417718 -4.22682e-19)
(0.214715 0.0532012 -3.30678e-20)
(0.545486 0.154076 6.27184e-19)
(0.799928 0.253441 1.0106e-19)
(0.991115 0.335206 -5.53079e-19)
(1.12938 0.395196 -4.49785e-20)
(1.22471 0.434536 -5.33115e-19)
(1.28667 0.456209 3.91847e-19)
(1.32374 0.464229 -1.43144e-19)
(1.34268 0.463311 2.54337e-19)
(1.3491 0.454957 -1.88407e-19)
(0.229844 0.0746791 -2.08352e-19)
(0.571985 0.202855 2.00141e-19)
(0.825885 0.31568 -1.44492e-19)
(1.00991 0.401396 1.08752e-18)
(1.13799 0.45923 5.383e-19)
(1.2226 0.49294 -1.2539e-19)
(1.27491 0.507487 4.24294e-19)
(1.3042 0.508226 -2.79785e-19)
(1.31756 0.500608 -7.92037e-20)
(1.32088 0.486386 5.19611e-19)
(0.240675 0.0976488 -3.61229e-19)
(0.587896 0.252893 4.61556e-19)
(0.837489 0.377094 -9.08655e-19)
(1.01264 0.464345 1.28342e-19)
(1.13047 0.518019 2.88513e-19)
(1.20546 0.54478 -4.3965e-19)
(1.24986 0.551571 -5.20587e-19)
(1.27337 0.544936 2.30805e-19)
(1.28312 0.530879 -2.80351e-19)
(1.28507 0.511392 3.45816e-19)
(0.246529 0.121103 -9.11949e-20)
(0.592357 0.301903 -4.69792e-19)
(0.83439 0.434887 2.59285e-19)
(0.999729 0.521286 4.40284e-19)
(1.10796 0.569144 -2.63845e-19)
(1.17495 0.588114 -1.98822e-19)
(1.2135 0.586992 -1.18192e-19)
(1.23331 0.573283 -5.82992e-20)
(1.2413 0.553335 8.92795e-21)
(1.24339 0.529405 1.36962e-19)
(0.246952 0.143881 6.86015e-20)
(0.585043 0.347465 -3.99915e-19)
(0.816895 0.486286 6.68945e-19)
(0.97219 0.56963 -3.95424e-19)
(1.07206 0.610445 1.16545e-19)
(1.13306 0.621267 -1.63685e-19)
(1.16796 0.612501 1.7692e-19)
(1.18609 0.592327 4.39336e-20)
(1.19402 0.567207 -4.97045e-20)
(1.19753 0.539752 9.93586e-20)
(0.241761 0.164735 -1.81598e-19)
(0.5662 0.387164 3.56545e-19)
(0.785927 0.528698 -1.47494e-20)
(0.931549 0.60709 -8.0117e-20)
(1.02472 0.640101 -2.04786e-19)
(1.08195 0.642874 2.81079e-20)
(1.11548 0.627105 3.80902e-20)
(1.13394 0.601319 -1.33176e-19)
(1.14343 0.571796 1.53265e-19)
(1.14958 0.541651 1.38452e-19)
(0.231078 0.182409 5.38247e-20)
(0.536637 0.418748 -8.58131e-20)
(0.742937 0.559855 1.41978e-20)
(0.879684 0.63176 4.01382e-20)
(0.968002 0.656627 5.00426e-20)
(1.02378 0.651789 -1.27934e-19)
(1.05829 0.629909 -2.83616e-19)
(1.07929 0.599546 -1.17936e-19)
(1.09249 0.566469 -1.52025e-19)
(1.10287 0.534511 1.25427e-19)
(0.215349 0.195748 9.55941e-20)
(0.497689 0.440308 -1.56483e-19)
(0.689806 0.577982 1.51899e-19)
(0.818637 0.642245 -2.96675e-19)
(0.903801 0.658893 7.09744e-20)
(0.960063 0.646849 4.96143e-19)
(0.997626 0.619323 -1.52618e-19)
(1.02349 0.584616 1.78698e-19)
(1.04301 0.54788 2.64281e-19)
(1.05931 0.514871 9.63701e-19)
(0.195345 0.203814 6.60351e-19)
(0.451178 0.45046 -4.46562e-19)
(0.628793 0.582029 1.09339e-18)
(0.750579 0.638033 -1.86827e-19)
(0.833707 0.646834 9.42281e-19)
(0.891367 0.628075 5.91161e-19)
(0.932606 0.594713 -1.38729e-18)
(0.963848 0.553816 2.11054e-18)
(0.989715 0.507801 -4.46899e-19)
(1.00656 0.460882 8.81609e-19)
(0.172126 0.205955 -3.65285e-19)
(0.399373 0.448404 -2.62827e-19)
(0.562618 0.57168 2.5708e-19)
(0.678183 0.6196 -6.27866e-19)
(0.759925 0.622082 -1.96203e-18)
(0.818959 0.599019 -7.90761e-19)
(0.862943 0.563177 -7.10278e-19)
(0.897351 0.521696 3.45998e-19)
(0.925341 0.478087 2.87247e-18)
(0.942813 0.437299 -5.96961e-19)
(0.146953 0.201792 1.94444e-19)
(0.34486 0.433781 -7.89437e-19)
(0.494422 0.546909 1.73127e-19)
(0.604873 0.587241 -1.26138e-18)
(0.686275 0.585086 2.75898e-18)
(0.747509 0.559961 -3.20786e-19)
(0.794794 0.524078 1.50523e-18)
(0.832624 0.484227 -2.15376e-18)
(0.863533 0.443909 6.76697e-19)
(0.884826 0.407406 1.04917e-19)
(0.121162 0.191218 1.43572e-19)
(0.290265 0.406665 8.69719e-19)
(0.427262 0.508012 -2.55857e-18)
(0.533754 0.541324 1.24382e-18)
(0.615809 0.536047 -3.17495e-21)
(0.680066 0.510649 -4.1989e-19)
(0.73138 0.476435 5.29695e-19)
(0.773405 0.439606 -5.25086e-19)
(0.808327 0.403314 -1.80337e-18)
(0.834399 0.370813 -4.94959e-19)
(0.0960808 0.174386 4.71578e-19)
(0.23811 0.36757 5.29042e-19)
(0.363966 0.455715 2.18341e-18)
(0.467552 0.482596 -1.21496e-18)
(0.550975 0.475557 2.50389e-18)
(0.618713 0.451384 -5.39062e-19)
(0.67436 0.420148 -5.69197e-19)
(0.720842 0.38729 6.73006e-19)
(0.760068 0.355489 4.38646e-19)
(0.790999 0.327087 1.58949e-18)
(0.0729674 0.151712 -4.79518e-19)
(0.190721 0.317456 1.56858e-19)
(0.307075 0.391194 4.26234e-20)
(0.408641 0.41222 1.23988e-18)
(0.49382 0.404638 -3.09448e-18)
(0.565112 0.382983 5.26089e-19)
(0.624987 0.355832 1.15983e-18)
(0.675738 0.327748 -1.40187e-18)
(0.71905 0.300895 4.93692e-19)
(0.754505 0.276872 -2.29093e-18)
(0.0529621 0.123859 1.02272e-19)
(0.150155 0.257687 5.51383e-19)
(0.258789 0.316039 2.14409e-19)
(0.35903 0.331747 2.90702e-19)
(0.446037 0.324676 5.56516e-19)
(0.520607 0.306635 1.65581e-18)
(0.584258 0.2845 -2.0267e-18)
(0.638758 0.261883 -1.14078e-18)
(0.685622 0.240433 1.88974e-19)
(0.724998 0.221179 1.48655e-18)
(0.0370418 0.0917144 -6.18687e-19)
(0.118141 0.189997 -7.3391e-20)
(0.220927 0.232208 -6.15799e-19)
(0.320358 0.243063 8.7771e-20)
(0.40899 0.237364 -5.26844e-19)
(0.486271 0.223821 -6.01451e-19)
(0.55298 0.207454 -8.96044e-19)
(0.610474 0.190871 2.41328e-18)
(0.660154 0.175229 4.15954e-19)
(0.702646 0.16114 -6.34166e-19)
(0.0259795 0.0563572 3.33563e-19)
(0.0960256 0.116421 4.40687e-19)
(0.19489 0.141958 1.73362e-19)
(0.293872 0.148319 -9.36359e-19)
(0.383711 0.144635 -4.35754e-19)
(0.462922 0.136242 -9.38613e-20)
(0.531774 0.126195 1.83242e-19)
(0.591345 0.116071 1.47148e-19)
(0.642972 0.106552 -1.13656e-18)
(0.687625 0.097956 6.52244e-19)
(0.0203111 0.0190115 -1.73724e-19)
(0.084733 0.0392179 -1.97535e-19)
(0.18163 0.0477659 1.57364e-19)
(0.280416 0.0498607 1.39678e-19)
(0.370896 0.048588 1.43132e-19)
(0.451108 0.0457452 2.18786e-19)
(0.521063 0.0423579 -1.15584e-20)
(0.581698 0.0389537 -2.86803e-19)
(0.634317 0.035758 2.72235e-19)
(0.680076 0.0328678 -4.0952e-19)
(0.020311 -0.0190074 -1.74854e-19)
(0.0847327 -0.0392093 -1.88221e-19)
(0.18163 -0.047755 1.73417e-19)
(0.280415 -0.0498488 3.39411e-19)
(0.370896 -0.0485759 2.26047e-19)
(0.451108 -0.0457333 -2.978e-19)
(0.521062 -0.0423464 -1.6169e-19)
(0.581697 -0.0389426 7.05712e-20)
(0.634317 -0.0357475 1.58467e-19)
(0.680075 -0.0328578 -9.43378e-20)
(0.025979 -0.0563531 4.17192e-19)
(0.0960247 -0.116412 -5.29927e-19)
(0.194889 -0.141947 -4.39949e-20)
(0.29387 -0.148307 2.93491e-19)
(0.38371 -0.144623 -1.32631e-18)
(0.462921 -0.13623 5.66529e-19)
(0.531773 -0.126183 5.84486e-19)
(0.591345 -0.11606 -6.89824e-19)
(0.642971 -0.106542 6.58617e-19)
(0.687624 -0.097946 -2.89244e-19)
(0.0370411 -0.0917104 -7.21479e-20)
(0.118139 -0.189989 -9.12202e-21)
(0.220925 -0.232197 -1.43033e-18)
(0.320356 -0.243052 -4.54604e-19)
(0.408988 -0.237352 -4.754e-20)
(0.48627 -0.223809 -7.47705e-19)
(0.552979 -0.207442 1.39279e-18)
(0.610472 -0.190861 -4.91338e-20)
(0.660152 -0.175219 7.94882e-19)
(0.702644 -0.161131 -6.98369e-19)
(0.0529611 -0.123855 1.21775e-19)
(0.150153 -0.257679 -5.62904e-19)
(0.258786 -0.316028 1.7327e-18)
(0.359028 -0.331736 2.4531e-19)
(0.446035 -0.324664 1.20459e-18)
(0.520604 -0.306623 -1.17689e-18)
(0.584256 -0.284489 1.23525e-18)
(0.638756 -0.261872 -8.90753e-19)
(0.68562 -0.240422 -3.91331e-19)
(0.724996 -0.221169 3.31883e-19)
(0.0729661 -0.151708 1.08582e-18)
(0.190718 -0.317448 2.83333e-21)
(0.307072 -0.391184 -1.82385e-18)
(0.408638 -0.412209 -5.28795e-19)
(0.493817 -0.404627 1.75673e-18)
(0.565109 -0.382972 -1.02889e-18)
(0.624984 -0.355821 -1.19092e-18)
(0.675735 -0.327737 1.07157e-18)
(0.719047 -0.300885 -7.29003e-19)
(0.754502 -0.276863 -1.57264e-19)
(0.0960793 -0.174382 -1.62182e-19)
(0.238107 -0.367563 -7.51624e-21)
(0.363962 -0.455706 1.97644e-18)
(0.467549 -0.482585 1.13329e-18)
(0.550972 -0.475547 -1.336e-18)
(0.61871 -0.451373 1.61801e-18)
(0.674356 -0.420138 -1.75401e-18)
(0.720839 -0.387279 1.74995e-19)
(0.760065 -0.35548 5.22731e-19)
(0.790996 -0.327078 1.20783e-18)
(0.121161 -0.191215 1.84832e-19)
(0.290262 -0.406658 2.97049e-19)
(0.427258 -0.508003 3.22267e-19)
(0.53375 -0.541314 -1.04228e-18)
(0.615805 -0.536036 -1.85488e-18)
(0.680062 -0.510638 3.90786e-19)
(0.731376 -0.476424 1.13231e-18)
(0.773401 -0.439596 -3.23886e-19)
(0.808323 -0.403304 1.9472e-18)
(0.834396 -0.370804 -1.89893e-18)
(0.146951 -0.201789 -1.04527e-18)
(0.344856 -0.433775 3.99296e-19)
(0.494418 -0.546901 -1.08334e-18)
(0.604869 -0.587231 1.7506e-18)
(0.68627 -0.585076 8.75554e-19)
(0.747504 -0.559951 1.23613e-18)
(0.794789 -0.524068 -2.84942e-19)
(0.83262 -0.484217 1.12784e-18)
(0.863528 -0.443899 -2.38656e-18)
(0.884822 -0.407397 -6.22407e-19)
(0.172125 -0.205952 6.31984e-20)
(0.39937 -0.448398 -6.99074e-19)
(0.562613 -0.571673 -1.11334e-18)
(0.678178 -0.619591 -4.74459e-19)
(0.75992 -0.622073 -1.33952e-18)
(0.818954 -0.59901 -1.3744e-19)
(0.862938 -0.563167 1.18367e-19)
(0.897346 -0.521687 -5.22414e-19)
(0.925336 -0.478078 -5.85806e-19)
(0.942808 -0.43729 1.54381e-18)
(0.195344 -0.203812 3.26817e-19)
(0.451174 -0.450455 4.53389e-19)
(0.628788 -0.582022 8.16142e-19)
(0.750573 -0.638025 3.74342e-20)
(0.833701 -0.646826 5.47479e-19)
(0.891362 -0.628066 -7.46765e-19)
(0.932601 -0.594704 2.28415e-18)
(0.963843 -0.553807 -1.00745e-18)
(0.989709 -0.507793 -4.96451e-19)
(1.00655 -0.460874 -1.49856e-18)
(0.215348 -0.195746 -1.27705e-19)
(0.497685 -0.440303 2.16788e-19)
(0.689801 -0.577976 -2.23918e-19)
(0.818631 -0.642237 1.22749e-19)
(0.903795 -0.658885 -1.45593e-19)
(0.960057 -0.64684 -3.75302e-19)
(0.99762 -0.619315 4.93242e-19)
(1.02348 -0.584607 -1.65056e-19)
(1.04301 -0.547872 2.50471e-19)
(1.05931 -0.514863 -5.47622e-19)
(0.231077 -0.182407 -1.65189e-21)
(0.536633 -0.418744 -1.20971e-19)
(0.742932 -0.559849 4.18998e-20)
(0.879678 -0.631753 1.31134e-19)
(0.967996 -0.65662 -7.02961e-20)
(1.02377 -0.651782 2.05026e-20)
(1.05828 -0.629901 -1.56434e-20)
(1.07928 -0.599538 -3.61217e-19)
(1.09248 -0.566461 -1.7139e-19)
(1.10287 -0.534503 -5.30664e-19)
(0.24176 -0.164734 -1.01037e-19)
(0.566197 -0.387161 3.57431e-19)
(0.785922 -0.528694 -2.26937e-19)
(0.931543 -0.607084 -9.59082e-20)
(1.02471 -0.640095 6.19483e-20)
(1.08195 -0.642867 4.93898e-20)
(1.11547 -0.627097 -1.22944e-21)
(1.13393 -0.601312 2.56989e-19)
(1.14342 -0.571789 -2.26181e-19)
(1.14957 -0.541644 -2.03322e-21)
(0.246951 -0.14388 -2.42834e-19)
(0.58504 -0.347463 -1.54728e-19)
(0.816891 -0.486282 -3.82637e-19)
(0.972184 -0.569625 4.36405e-19)
(1.07205 -0.610439 -3.17126e-20)
(1.13305 -0.62126 1.48491e-19)
(1.16795 -0.612494 1.76965e-19)
(1.18609 -0.59232 -6.30396e-20)
(1.19402 -0.567201 2.45943e-20)
(1.19753 -0.539745 -1.02595e-19)
(0.246528 -0.121102 -1.64057e-19)
(0.592354 -0.301901 -2.10634e-19)
(0.834386 -0.434884 3.1934e-19)
(0.999724 -0.521281 -4.82968e-19)
(1.10795 -0.569139 8.46305e-20)
(1.17494 -0.588108 4.39104e-20)
(1.21349 -0.586986 9.31676e-20)
(1.2333 -0.573277 -6.04464e-20)
(1.24129 -0.553329 -7.50356e-20)
(1.24338 -0.529399 -2.85729e-19)
(0.240674 -0.0976483 6.83827e-19)
(0.587894 -0.252891 -5.34396e-19)
(0.837485 -0.377092 2.46571e-20)
(1.01264 -0.464341 -6.88725e-19)
(1.13046 -0.518015 -2.01502e-19)
(1.20545 -0.544775 1.61755e-19)
(1.24985 -0.551566 1.19289e-19)
(1.27337 -0.54493 -3.98895e-19)
(1.28311 -0.530873 1.82047e-19)
(1.28506 -0.511387 -3.23656e-19)
(0.229843 -0.0746788 3.38395e-19)
(0.571983 -0.202854 -3.3479e-19)
(0.825882 -0.315677 1.20545e-18)
(1.0099 -0.401392 9.69301e-20)
(1.13798 -0.459226 2.73932e-19)
(1.22259 -0.492935 9.83937e-19)
(1.2749 -0.507482 -2.02818e-19)
(1.30419 -0.508222 5.27873e-20)
(1.31755 -0.500603 -2.63848e-20)
(1.32088 -0.486381 -5.14492e-20)
(0.214715 -0.053201 2.60409e-19)
(0.545485 -0.154075 5.92974e-19)
(0.799925 -0.253439 -6.05795e-19)
(0.991111 -0.335203 -1.84824e-19)
(1.12938 -0.395193 -1.96492e-19)
(1.2247 -0.434533 3.84722e-19)
(1.28666 -0.456205 -1.82347e-19)
(1.32373 -0.464225 4.31683e-19)
(1.34267 -0.463307 1.05593e-19)
(1.34909 -0.454953 -1.85253e-19)
(0.196135 -0.0340239 -2.81358e-19)
(0.509737 -0.108579 2.61258e-19)
(0.760612 -0.193049 -5.37051e-19)
(0.956532 -0.268592 2.25182e-19)
(1.10411 -0.32852 -2.25983e-19)
(1.21053 -0.371754 -2.69342e-19)
(1.28343 -0.39944 -2.09674e-19)
(1.33005 -0.414205 2.31658e-19)
(1.35653 -0.41989 -4.04726e-19)
(1.36791 -0.417714 2.56103e-19)
(0.175056 -0.0177319 -1.05326e-19)
(0.466461 -0.0680292 -2.06965e-19)
(0.709549 -0.136915 9.73856e-20)
(0.907148 -0.204297 7.12471e-21)
(1.06231 -0.261906 7.77062e-20)
(1.17942 -0.307001 1.11555e-19)
(1.2639 -0.33916 9.54022e-20)
(1.32145 -0.359687 -1.2899e-19)
(1.35725 -0.371469 1.0569e-19)
(1.37551 -0.375421 -1.67155e-19)
(0.152468 -0.00467542 -6.63647e-20)
(0.417641 -0.0336665 -2.67531e-20)
(0.648855 -0.0870644 9.99388e-20)
(0.844634 -0.144842 -4.50336e-20)
(1.0049 -0.198036 1.26413e-19)
(1.1314 -0.242832 -1.59925e-19)
(1.2273 -0.277605 4.09764e-20)
(1.29656 -0.302503 3.52984e-20)
(1.34312 -0.319454 -1.28076e-20)
(1.3701 -0.329064 5.82403e-20)
(0.129337 0.00501956 -7.95811e-20)
(0.365388 -0.00626892 -3.37918e-19)
(0.581029 -0.0450439 -2.73208e-20)
(0.771283 -0.092402 1.09012e-20)
(0.93354 -0.139449 -4.70119e-19)
(1.06727 -0.181869 4.96444e-20)
(1.17355 -0.217247 -5.25951e-20)
(1.25454 -0.244823 -1.43499e-19)
(1.31274 -0.265632 3.18419e-19)
(1.34997 -0.279978 -5.7962e-19)
(0.106543 0.0114274 -4.51448e-20)
(0.311806 0.013844 7.24945e-19)
(0.508786 -0.0118626 9.69114e-20)
(0.689872 -0.0486858 -6.55604e-19)
(0.850594 -0.0883959 -7.83352e-20)
(0.988666 -0.126669 -7.40929e-19)
(1.10339 -0.16071 5.7663e-19)
(1.19523 -0.189143 -2.34551e-19)
(1.26524 -0.212223 4.44444e-19)
(1.31377 -0.229958 -3.92909e-19)
(0.0848403 0.0147874 -2.55407e-19)
(0.258858 0.0267819 2.9796e-19)
(0.434877 0.0120392 -2.08251e-19)
(0.603483 -0.0148328 1.43955e-18)
(0.759013 -0.0466802 7.62836e-19)
(0.898001 -0.079551 -1.99977e-19)
(1.01842 -0.110626 7.77765e-19)
(1.11934 -0.138202 -5.09095e-19)
(1.20043 -0.161879 -1.64469e-19)
(1.26062 -0.181332 1.18475e-18)
(0.0648244 0.015463 -4.72431e-19)
(0.208267 0.0330339 7.06008e-19)
(0.361913 0.0267909 -1.34006e-18)
(0.515281 0.00866977 2.32106e-19)
(0.662115 -0.0154958 5.7953e-19)
(0.798327 -0.0423806 -7.28004e-19)
(0.921075 -0.0694105 -1.29104e-18)
(1.02847 -0.0947974 6.92226e-19)
(1.11903 -0.117583 -9.01247e-19)
(1.19043 -0.136959 1.44242e-18)
(0.0469264 0.0139042 -1.16747e-19)
(0.161442 0.033413 -7.10842e-19)
(0.292208 0.0330772 3.5084e-19)
(0.428288 0.022055 8.79348e-19)
(0.563315 0.00474426 -4.72273e-19)
(0.693069 -0.0163043 -4.66589e-19)
(0.814421 -0.0389418 -7.91932e-19)
(0.925017 -0.061465 -3.63103e-19)
(1.02266 -0.0823783 -8.73306e-20)
(1.10398 -0.100074 1.44088e-18)
(0.0314265 0.0106225 1.96383e-19)
(0.11945 0.0290083 -9.66403e-19)
(0.227665 0.0321162 1.65439e-18)
(0.345164 0.0263329 -9.21202e-19)
(0.465819 0.0145883 5.97795e-19)
(0.585658 -0.00142047 -7.43904e-19)
(0.701733 -0.0200924 8.28757e-19)
(0.811795 -0.0399323 7.24101e-19)
(0.913471 -0.0588551 1.58192e-18)
(1.00275 -0.0738613 -2.61534e-18)
(0.0184844 0.00618001 -6.10167e-19)
(0.0830277 0.0211439 1.22649e-18)
(0.169722 0.0256197 1.66138e-20)
(0.268067 0.0233116 -4.42038e-19)
(0.372379 0.0157039 -2.34444e-19)
(0.479153 0.00359054 1.88004e-19)
(0.585977 -0.0120984 -1.33494e-18)
(0.691283 -0.0302545 1.03139e-18)
(0.79328 -0.0482074 -1.32934e-18)
(0.887975 -0.0606305 -6.0631e-19)
(0.00817034 0.0011847 1.05088e-18)
(0.052617 0.011321 -3.27827e-19)
(0.119387 0.0156965 -6.16029e-19)
(0.198663 0.0155212 1.67347e-18)
(0.285242 0.0109163 -1.64471e-18)
(0.376057 0.00174271 9.19494e-19)
(0.469288 -0.0119121 9.79828e-19)
(0.56435 -0.0297406 2.68193e-19)
(0.66088 -0.0490408 2.7881e-19)
(0.756564 -0.0611387 -3.94956e-19)
(0.000478356 -0.00373568 -1.00562e-18)
(0.0284188 0.00109645 9.5665e-19)
(0.0773561 0.00463645 -8.46969e-19)
(0.138374 0.00596463 1.06352e-18)
(0.206636 0.00408457 -3.17719e-19)
(0.27917 -0.0019281 -1.10481e-18)
(0.354129 -0.0128116 3.16781e-19)
(0.431096 -0.0295118 -5.22518e-19)
(0.51103 -0.0513049 -6.18695e-19)
(0.596252 -0.0682366 -1.9285e-18)
(-0.00469948 -0.0080193 -1.25772e-18)
(0.0103944 -0.00817623 1.00029e-18)
(0.0441066 -0.00559173 -1.96116e-18)
(0.0886992 -0.00272621 3.5087e-19)
(0.139708 -0.00113915 -1.3601e-18)
(0.194025 -0.00179502 -8.16419e-19)
(0.249068 -0.00502014 1.9546e-18)
(0.302891 -0.0110394 -2.67366e-18)
(0.354842 -0.0204574 5.14719e-19)
(0.402176 -0.0291379 -8.50845e-19)
(-0.00762805 -0.0112893 6.19722e-19)
(-0.00184678 -0.0156506 2.62754e-19)
(0.019637 -0.0140044 -7.85545e-20)
(0.0506569 -0.00985273 7.45804e-19)
(0.0875237 -0.00508517 2.19157e-18)
(0.127657 -0.000665575 7.57012e-19)
(0.16904 0.00321098 7.82689e-19)
(0.210467 0.00658859 -2.70541e-19)
(0.252006 0.00880252 -2.5293e-18)
(0.291082 0.0102696 6.40994e-19)
(-0.00874411 -0.0133753 -1.75245e-19)
(-0.00917499 -0.0209211 5.58005e-19)
(0.00295148 -0.020219 -1.46241e-19)
(0.0232203 -0.0154149 1.03254e-18)
(0.0488572 -0.00868593 -2.3876e-18)
(0.0779105 -0.00119532 2.03023e-19)
(0.108945 0.00652634 -1.13751e-18)
(0.141178 0.0140677 1.67528e-18)
(0.174424 0.0204588 -4.89415e-19)
(0.20601 0.0250109 -6.99879e-20)
(-0.00856026 -0.0142646 -1.19258e-19)
(-0.0127176 -0.0238661 -6.70997e-19)
(-0.00747646 -0.0240639 1.68875e-18)
(0.00446459 -0.0192747 -8.9027e-19)
(0.0212127 -0.0118686 6.23852e-20)
(0.041353 -0.00322507 2.85811e-19)
(0.0638405 0.00578483 -2.61759e-19)
(0.08805 0.0143657 3.39853e-19)
(0.113563 0.0214119 1.17887e-18)
(0.138163 0.0261245 3.0881e-19)
(-0.00756569 -0.0140438 -2.67853e-19)
(-0.013614 -0.0245505 -2.98022e-19)
(-0.0132513 -0.0254952 -1.32274e-18)
(-0.00762328 -0.0212122 7.04574e-19)
(0.00217113 -0.0140995 -1.45361e-18)
(0.0151665 -0.00563341 3.30174e-19)
(0.0305997 0.00315428 3.71402e-19)
(0.0479271 0.0113508 -3.92966e-19)
(0.0666273 0.0179424 -2.54399e-19)
(0.0850471 0.0222032 -1.14292e-18)
(-0.00617604 -0.0128521 2.09484e-19)
(-0.012884 -0.0231667 -4.93328e-20)
(-0.0158533 -0.0245999 9.07866e-22)
(-0.014911 -0.0210972 -6.36199e-19)
(-0.0104798 -0.0149006 1.61051e-18)
(-0.00315572 -0.00743514 -2.51243e-19)
(0.00651404 0.00027374 -6.27255e-19)
(0.0180523 0.00736941 7.67816e-19)
(0.0309199 0.0130309 -2.69972e-19)
(0.0439488 0.0166579 1.49205e-18)
(-0.00471798 -0.0108516 -3.93407e-20)
(-0.011367 -0.0199912 -2.30594e-19)
(-0.0165272 -0.0215896 -9.1013e-20)
(-0.0189724 -0.0189567 -1.16293e-19)
(-0.0185791 -0.0140119 -2.49963e-19)
(-0.0156483 -0.00799544 -7.85156e-19)
(-0.0105549 -0.00180452 9.82262e-19)
(-0.00370874 0.0038493 5.73996e-19)
(0.00437451 0.00835349 -1.02763e-19)
(0.0128968 0.0112466 -9.15175e-19)
(-0.00343297 -0.00821332 2.23469e-19)
(-0.00970576 -0.0153596 3.89956e-20)
(-0.0162393 -0.0167918 2.64159e-19)
(-0.0210244 -0.0149994 -3.02927e-20)
(-0.0235266 -0.0114461 2.40535e-19)
(-0.023823 -0.00708547 2.71451e-19)
(-0.0221544 -0.00260515 4.07109e-19)
(-0.0188677 0.00147022 -1.15334e-18)
(-0.0144438 0.004722 -2.12938e-19)
(-0.00942136 0.0068249 3.8156e-19)
(-0.00248892 -0.00511335 -1.12876e-19)
(-0.00835741 -0.00965261 -1.60382e-19)
(-0.0156817 -0.0106363 -7.71075e-20)
(-0.0219355 -0.00960684 3.7725e-19)
(-0.0263099 -0.00747866 1.83113e-19)
(-0.0287304 -0.00484981 3.75604e-20)
(-0.0293449 -0.00214968 -8.14256e-20)
(-0.0284513 0.00030235 -6.31855e-20)
(-0.0265011 0.00226353 5.42442e-19)
(-0.0238702 0.00354038 -3.69382e-19)
(-0.00199149 -0.00173321 5.75501e-20)
(-0.00761295 -0.00328548 7.15772e-20)
(-0.0152961 -0.00363258 -6.10189e-20)
(-0.0222578 -0.00329637 -5.58081e-20)
(-0.0275518 -0.0025875 -5.78661e-20)
(-0.0310272 -0.00170942 -9.23506e-20)
(-0.0327835 -0.000807822 2.95714e-21)
(-0.0330926 1.0296e-05 1.28155e-19)
(-0.0323894 0.000665576 -1.28706e-19)
(-0.0309717 0.00109377 2.34163e-19)
(-0.00675856 -0.002647 1.7005e-20)
(0.0655522 -0.00676819 1.0494e-20)
(0.283241 -0.00692549 1.47725e-21)
(0.386991 -0.00459097 -9.95574e-22)
(0.494088 -0.00391483 -7.36275e-23)
(0.577303 -0.00286091 1.85883e-22)
(0.636368 -0.00263957 2.35829e-22)
(0.710475 -0.00202742 -4.61624e-23)
(0.738145 -0.00214652 -4.8496e-24)
(0.816136 -0.00166119 3.97836e-22)
(0.0101546 -0.00828529 2.67331e-20)
(0.0809377 -0.0200523 9.73209e-22)
(0.294843 -0.0204738 -1.88523e-20)
(0.395848 -0.0136336 1.59714e-20)
(0.500884 -0.0117737 1.05811e-21)
(0.582562 -0.008742 -8.48925e-22)
(0.64067 -0.00803881 9.83475e-22)
(0.713696 -0.00614516 9.09815e-23)
(0.740961 -0.00632069 1.49515e-22)
(0.817992 -0.00477638 -3.64103e-22)
(0.0436683 -0.0148083 2.77348e-20)
(0.111204 -0.0328522 -3.75867e-20)
(0.3176 -0.0335581 1.91298e-20)
(0.413244 -0.0223702 -1.33971e-20)
(0.514237 -0.0193954 1.02131e-21)
(0.592904 -0.0144617 -8.05348e-22)
(0.64912 -0.0133063 -3.72731e-22)
(0.720021 -0.0101692 -1.48161e-24)
(0.746481 -0.0104113 -1.14299e-22)
(0.821625 -0.00783411 -5.30145e-22)
(0.0931575 -0.0226953 -4.24e-20)
(0.155402 -0.0448669 -5.16559e-20)
(0.350653 -0.0458907 -2.45685e-20)
(0.438543 -0.0306138 1.35646e-20)
(0.533672 -0.0266339 -1.75662e-20)
(0.607989 -0.0199201 5.13694e-21)
(0.661466 -0.01836 -3.04251e-22)
(0.729287 -0.0140412 1.61186e-22)
(0.754585 -0.0143658 -1.54711e-22)
(0.826984 -0.0107982 1.97617e-22)
(0.157658 -0.0322178 1.18253e-19)
(0.212167 -0.0558067 7.61289e-20)
(0.392774 -0.0572055 2.7694e-20)
(0.470836 -0.0381993 -2.68105e-20)
(0.558498 -0.0333596 1.44076e-20)
(0.627316 -0.0250285 4.19832e-21)
(0.677317 -0.0231259 3.19123e-21)
(0.741224 -0.0177083 3.30777e-22)
(0.765056 -0.0181358 3.3555e-22)
(0.83394 -0.0136348 -1.04083e-21)
(0.23585 -0.0432988 -5.26959e-20)
(0.279782 -0.0653539 3.92939e-20)
(0.442441 -0.0672459 4.95302e-21)
(0.508998 -0.0449801 3.03418e-20)
(0.58787 -0.0394604 -7.04353e-21)
(0.650269 -0.029711 -5.11243e-21)
(0.696198 -0.02754 -3.27874e-21)
(0.755509 -0.0211251 -1.81171e-22)
(0.777635 -0.0216783 -1.9535e-22)
(0.84235 -0.0163139 1.12355e-21)
(0.326062 -0.0556513 -3.94433e-20)
(0.356234 -0.0732408 -1.04976e-19)
(0.497916 -0.0758058 -1.82186e-20)
(0.551749 -0.0508368 -1.64279e-20)
(0.620827 -0.0448488 8.498e-21)
(0.676146 -0.0339069 -2.41527e-21)
(0.717563 -0.0315507 3.48276e-21)
(0.771763 -0.0242543 6.4106e-22)
(0.792017 -0.0249577 -5.77165e-23)