/*--------------------------------*- C++ -*----------------------------------*\
  =========                 |
  \\      /  F ield         | OpenFOAM: The Open Source CFD Toolbox
   \\    /   O peration     | Website:  https://openfoam.org
    \\  /    A nd           | Version:  6.0
     \\/     M anipulation  |
\*---------------------------------------------------------------------------*/
FoamFile
{
    version     2.0;
    format      ascii;
    class       surfaceScalarField;
    location    "138";
    object      phi;
}
// * * * * * * * * * * * * * * * * * * * * * * * * * * * * * * * * * * * * * //

dimensions      [0 3 -1 0 0 0 0];

internalField   nonuniform List<scalar> 
68636
(
3.02266e-05
0.00310561
3.23179e-09
6.08409e-05
0.00307073
9.10888e-05
0.00300249
0.000120477
0.00290137
0.000148619
0.00276839
0.000175167
0.00260498
0.00019981
0.00241291
0.000222261
0.00219429
0.000242263
0.0019515
0.000259591
0.00168711
0.000274041
0.00140404
0.000285466
0.00110484
0.00029383
0.000793342
0.000298781
0.00047055
0.000120037
0.000291982
2.99423e-05
0.00307565
1.23986e-08
6.02781e-05
0.0030404
9.02507e-05
0.00297252
0.000119371
0.00287225
0.000147256
0.0027405
0.000173563
0.00257867
0.00019798
0.0023885
0.000220226
0.00217205
0.000240045
0.00193168
0.000257214
0.00166995
0.000271534
0.00138972
0.000282832
0.00109354
0.000291272
0.000784905
0.000295431
0.000466394
0.00012538
0.000290092
2.96601e-05
0.00304597
2.19441e-08
5.97199e-05
0.00301034
8.94199e-05
0.00294282
0.000118276
0.00284339
0.000145908
0.00271287
0.000171975
0.0025526
0.000196171
0.0023643
0.000218215
0.00215
0.000237854
0.00191204
0.000254864
0.00165294
0.000269057
0.00137552
0.000280223
0.00108238
0.000288585
0.000776542
0.000293161
0.000461817
0.000128579
0.000289961
2.93803e-05
0.00301656
3.15662e-08
5.91668e-05
0.00298055
8.85971e-05
0.00291339
0.000117191
0.0028148
0.000144572
0.00268549
0.000170403
0.00252677
0.000194379
0.00234033
0.000216222
0.00212816
0.000235682
0.00189258
0.000252537
0.00163608
0.000266602
0.00136146
0.000277643
0.00107134
0.000285846
0.000768342
0.000290589
0.000457077
0.000130584
0.000288588
2.91031e-05
0.00298742
4.1528e-08
5.86189e-05
0.00295104
8.77818e-05
0.00288422
0.000116116
0.00278647
0.000143249
0.00265836
0.000168845
0.00250118
0.000192603
0.00231657
0.000214247
0.00210652
0.000233529
0.0018733
0.000250228
0.00161938
0.000264166
0.00134752
0.000275095
0.00106041
0.000283118
0.000760318
0.000287817
0.000452377
0.000131793
0.000286608
2.88281e-05
0.00295854
5.17096e-08
5.80757e-05
0.00292179
8.69736e-05
0.00285533
0.000115051
0.00275839
0.000141937
0.00263147
0.0001673
0.00247582
0.000190842
0.00229303
0.000212289
0.00208507
0.000231395
0.0018542
0.00024794
0.00160284
0.00026175
0.00133372
0.000272577
0.00104958
0.000280434
0.000752463
0.000285047
0.000447766
0.000132443
0.0002844
2.85555e-05
0.00292992
6.19897e-08
5.75372e-05
0.00289281
8.61727e-05
0.00282669
0.000113995
0.00273057
0.000140637
0.00260483
0.00016577
0.00245068
0.000189097
0.0022697
0.000210348
0.00206382
0.00022928
0.00183526
0.000245673
0.00158645
0.000259355
0.00132003
0.000270086
0.00103885
0.000277803
0.000744745
0.000282325
0.000443244
0.000132712
0.000282055
2.82853e-05
0.00290156
7.24088e-08
5.70036e-05
0.00286409
8.53788e-05
0.00279832
0.000112948
0.002703
0.000139348
0.00257843
0.000164253
0.00242578
0.000187368
0.00224659
0.000208425
0.00204276
0.000227185
0.0018165
0.000243426
0.00157021
0.000256981
0.00130648
0.000267619
0.00102822
0.00027522
0.000737146
0.000279656
0.000438811
0.000132717
0.000279656
2.80173e-05
0.00287346
8.28389e-08
5.64746e-05
0.00283563
8.45921e-05
0.0027702
0.000111911
0.00267568
0.000138071
0.00255227
0.000162749
0.0024011
0.000185654
0.00222368
0.00020652
0.0020219
0.000225108
0.00179792
0.000241199
0.00155411
0.000254627
0.00129305
0.000265174
0.00101767
0.000272677
0.000729641
0.000277041
0.000434446
0.000132504
0.000277253
2.77518e-05
0.00284562
9.32106e-08
5.59504e-05
0.00280743
8.38125e-05
0.00274234
0.000110883
0.00264861
0.000136806
0.00252635
0.000161259
0.00237665
0.000183956
0.00220098
0.000204631
0.00200122
0.000223049
0.0017795
0.000238993
0.00153817
0.000252294
0.00127975
0.000262749
0.00100722
0.000270168
0.000722224
0.000274474
0.000430142
0.000132124
0.000274858
2.74885e-05
0.00281802
1.03506e-07
5.54309e-05
0.00277949
8.30398e-05
0.00271473
0.000109864
0.00262179
0.000135551
0.00250066
0.000159783
0.00235242
0.000182272
0.00217849
0.000202759
0.00198073
0.000221009
0.00176125
0.000236806
0.00152237
0.000249982
0.00126657
0.000260344
0.000996852
0.000267687
0.00071488
0.000271946
0.000425883
0.000131599
0.000272469
2.72276e-05
0.00279068
1.13672e-07
5.4916e-05
0.0027518
8.2274e-05
0.00268737
0.000108855
0.00259521
0.000134308
0.00247521
0.000158319
0.00232841
0.000180604
0.00215621
0.000200904
0.00196043
0.000218987
0.00174317
0.000234639
0.00150672
0.00024769
0.00125352
0.000257959
0.000986584
0.000265232
0.000707608
0.000269449
0.000421669
0.000130967
0.000270086
2.69691e-05
0.00276359
1.23697e-07
5.44058e-05
0.00272437
8.15151e-05
0.00266026
0.000107854
0.00256887
0.000133076
0.00244999
0.000156869
0.00230461
0.000178951
0.00213413
0.000199066
0.00194032
0.000216984
0.00172525
0.000232492
0.00149121
0.000245419
0.0012406
0.000255595
0.000976408
0.0002628
0.000700402
0.000266979
0.000417489
0.000130236
0.000267709
2.67128e-05
0.00273674
1.33593e-07
5.39001e-05
0.00269718
8.0763e-05
0.0026334
0.000106863
0.00254277
0.000131855
0.002425
0.000155431
0.00228104
0.000177312
0.00211225
0.000197244
0.00192039
0.000214998
0.00170749
0.000230364
0.00147585
0.00024317
0.00122779
0.000253251
0.000966329
0.000260391
0.000693263
0.000264535
0.000413347
0.000129434
0.000265341
2.64588e-05
0.00271014
1.43362e-07
5.33989e-05
0.00267024
8.00176e-05
0.00260678
0.00010588
0.0025169
0.000130645
0.00240023
0.000154007
0.00225768
0.000175689
0.00209057
0.000195438
0.00190064
0.00021303
0.0016899
0.000228256
0.00146062
0.000240941
0.00121511
0.000250928
0.000956341
0.000258004
0.000686185
0.000262115
0.000409235
0.000128565
0.000262983
2.62072e-05
0.00268378
1.53024e-07
5.29022e-05
0.00264354
7.92789e-05
0.0025804
0.000104906
0.00249128
0.000129446
0.00237569
0.000152595
0.00223453
0.000174079
0.00206908
0.000193649
0.00188107
0.00021108
0.00167247
0.000226166
0.00144554
0.000238732
0.00120254
0.000248626
0.000946449
0.000255639
0.000679174
0.000259718
0.000405159
0.000127651
0.000260636
2.59578e-05
0.00265766
1.62594e-07
5.24099e-05
0.00261709
7.85467e-05
0.00255427
0.000103941
0.00246588
0.000128258
0.00235137
0.000151196
0.00221159
0.000172485
0.00204779
0.000191876
0.00186168
0.000209148
0.0016552
0.000224096
0.00143059
0.000236544
0.00119009
0.000246345
0.000936648
0.000253296
0.000672222
0.000257343
0.000401111
0.000126688
0.000258303
2.57106e-05
0.00263178
1.72087e-07
5.19221e-05
0.00259088
7.78212e-05
0.00252837
0.000102984
0.00244072
0.00012708
0.00232728
0.000149809
0.00218886
0.000170904
0.0020267
0.000190119
0.00184246
0.000207233
0.00163809
0.000222044
0.00141578
0.000234377
0.00117776
0.000244085
0.000926941
0.000250974
0.000665334
0.00025499
0.000397098
0.000125698
0.000255985
2.54656e-05
0.00260613
1.81517e-07
5.14386e-05
0.00256491
7.71021e-05
0.0025027
0.000102036
0.00241578
0.000125913
0.0023034
0.000148435
0.00216634
0.000169338
0.00200579
0.000188378
0.00182342
0.000205336
0.00162113
0.000220012
0.0014011
0.000232229
0.00116554
0.000241846
0.000917323
0.000248675
0.000658505
0.00025266
0.000393112
0.000124674
0.000253682
2.52229e-05
0.00258072
1.90893e-07
5.09595e-05
0.00253917
7.63894e-05
0.00247727
0.000101097
0.00239108
0.000124756
0.00227974
0.000147074
0.00214402
0.000167786
0.00198508
0.000186653
0.00180456
0.000203456
0.00160433
0.000217997
0.00138656
0.000230102
0.00115344
0.000239629
0.000907797
0.000246397
0.000651739
0.000250351
0.00038916
0.000123635
0.000251395
2.49823e-05
0.00255554
2.00222e-07
5.04846e-05
0.00251367
7.56831e-05
0.00245207
0.000100166
0.00236659
0.00012361
0.0022563
0.000145724
0.00212191
0.000166248
0.00196456
0.000184943
0.00178586
0.000201592
0.00158768
0.000216001
0.00137215
0.000227994
0.00114144
0.000237432
0.000898358
0.00024414
0.00064503
0.000248064
0.000385235
0.00012257
0.000249127
2.47439e-05
0.00253058
2.09512e-07
5.00141e-05
0.0024884
7.49832e-05
0.00242711
9.92431e-05
0.00234234
0.000122473
0.00223307
0.000144387
0.00209999
0.000164724
0.00194422
0.000183249
0.00176734
0.000199746
0.00157118
0.000214023
0.00135788
0.000225905
0.00112956
0.000235256
0.000889009
0.000241905
0.000638382
0.0002458
0.000381343
0.000121499
0.000246876
2.45076e-05
0.00250586
2.18764e-07
4.95477e-05
0.00246336
7.42896e-05
0.00240236
9.83286e-05
0.0023183
0.000121348
0.00221005
0.000143062
0.00207828
0.000163214
0.00192407
0.00018157
0.00174898
0.000197916
0.00155483
0.000212063
0.00134373
0.000223836
0.00111779
0.0002331
0.000879745
0.000239691
0.000631789
0.000243556
0.000377477
0.000120409
0.000244643
2.42734e-05
0.00248136
2.27979e-07
4.90855e-05
0.00243855
7.36022e-05
0.00237785
9.74224e-05
0.00229448
0.000120232
0.00218724
0.000141748
0.00205676
0.000161717
0.0019041
0.000179906
0.00173079
0.000196103
0.00153863
0.000210121
0.00132971
0.000221786
0.00110612
0.000230964
0.000870568
0.000237498
0.000625257
0.000241334
0.000373644
0.000119318
0.00024243
2.40414e-05
0.00245708
2.37156e-07
4.86275e-05
0.00241396
7.29209e-05
0.00235355
9.65244e-05
0.00227087
0.000119126
0.00216464
0.000140447
0.00203544
0.000160234
0.00188431
0.000178257
0.00171277
0.000194307
0.00152258
0.000208196
0.00131582
0.000219755
0.00109457
0.000228848
0.000861473
0.000235326
0.000618778
0.000239132
0.000369837
0.000118212
0.000240235
2.38114e-05
0.00243302
2.4629e-07
4.81736e-05
0.0023896
7.22458e-05
0.00232948
9.56344e-05
0.00224748
0.000118031
0.00214224
0.000139157
0.00201432
0.000158765
0.0018647
0.000176623
0.00169491
0.000192527
0.00150668
0.000206289
0.00130206
0.000217742
0.00108311
0.000226752
0.000852464
0.000233174
0.000612359
0.000236951
0.000366062
0.000117108
0.00023806
2.35834e-05
0.00240918
2.55376e-07
4.77238e-05
0.00236546
7.15768e-05
0.00230563
9.47525e-05
0.00222431
0.000116945
0.00212005
0.00013788
0.00199338
0.000157308
0.00184528
0.000175005
0.00167722
0.000190763
0.00149092
0.0002044
0.00128842
0.000215748
0.00107176
0.000224676
0.000843535
0.000231041
0.000605991
0.000234791
0.000362311
0.000115993
0.000235903
2.33575e-05
0.00238556
2.64409e-07
4.7278e-05
0.00234154
7.09139e-05
0.00228199
9.38786e-05
0.00220134
0.000115869
0.00209806
0.000136613
0.00197264
0.000155865
0.00182602
0.0001734
0.00165968
0.000189015
0.00147531
0.000202527
0.00127491
0.000213772
0.00106052
0.000222618
0.00083469
0.000228929
0.000599682
0.00023265
0.000358593
0.000114884
0.000233765
2.31337e-05
0.00236215
2.73377e-07
4.68363e-05
0.00231784
7.02569e-05
0.00225857
9.30126e-05
0.00217859
0.000114803
0.00207627
0.000135358
0.00195208
0.000154435
0.00180695
0.000171811
0.00164231
0.000187283
0.00145984
0.000200672
0.00126152
0.000211814
0.00104938
0.00022058
0.000825924
0.000226836
0.000593424
0.000230529
0.000354898
0.000113765
0.000231645
2.29118e-05
0.00233896
2.82275e-07
4.63986e-05
0.00229435
6.96059e-05
0.00223537
9.21544e-05
0.00215604
0.000113747
0.00205468
0.000134115
0.00193171
0.000153018
0.00178804
0.000170236
0.00162509
0.000185567
0.00144451
0.000198834
0.00124826
0.000209874
0.00103834
0.00021856
0.000817239
0.000224763
0.000587223
0.000228428
0.000351236
0.000112654
0.000229544
2.2692e-05
0.00231597
2.9109e-07
4.59648e-05
0.00227108
6.89607e-05
0.00221237
9.1304e-05
0.0021337
0.0001127
0.00203328
0.000132883
0.00191153
0.000151614
0.00176931
0.000168675
0.00160803
0.000183866
0.00142931
0.000197012
0.00123511
0.000207952
0.0010274
0.000216559
0.000808631
0.000222709
0.000581072
0.000226346
0.000347597
0.000111536
0.000227461
2.24741e-05
0.0022932
2.99816e-07
4.55349e-05
0.00224802
6.83215e-05
0.00218958
9.04613e-05
0.00211156
0.000111662
0.00201208
0.000131662
0.00189153
0.000150223
0.00175075
0.000167128
0.00159112
0.000182181
0.00141426
0.000195207
0.00122209
0.000206048
0.00101656
0.000214577
0.000800103
0.000220674
0.000574977
0.000224283
0.000343991
0.000110428
0.000225396
2.22583e-05
0.00227063
3.08443e-07
4.51089e-05
0.00222516
6.7688e-05
0.002167
8.96263e-05
0.00208962
0.000110634
0.00199107
0.000130452
0.00187171
0.000148844
0.00173236
0.000165596
0.00157437
0.000180512
0.00139935
0.000193419
0.00120918
0.000204161
0.00100582
0.000212613
0.00079165
0.000218657
0.000568931
0.000222238
0.000340408
0.000109313
0.000223349
2.20444e-05
0.00224827
3.16964e-07
4.46869e-05
0.00220252
6.70602e-05
0.00214463
8.87988e-05
0.00206788
0.000109616
0.00197026
0.000129253
0.00185208
0.000147478
0.00171413
0.000164077
0.00155777
0.000178857
0.00138457
0.000191647
0.00119639
0.000202291
0.000995175
0.000210667
0.000783276
0.000216659
0.000562941
0.000220213
0.000336858
0.000108211
0.00022132
2.18324e-05
0.00222612
3.25373e-07
4.42686e-05
0.00218009
6.64382e-05
0.00212246
8.79789e-05
0.00204634
0.000108606
0.00194963
0.000128065
0.00183262
0.000146124
0.00169608
0.000162572
0.00154132
0.000177218
0.00136992
0.000189891
0.00118371
0.000200439
0.000984627
0.000208739
0.000774975
0.000214679
0.000556999
0.000218205
0.00033333
0.000107104
0.000219309
2.16224e-05
0.00220416
3.33667e-07
4.38542e-05
0.00215785
6.58219e-05
0.00210049
8.71664e-05
0.002025
0.000107606
0.00192919
0.000126888
0.00181334
0.000144783
0.00167818
0.000161081
0.00152503
0.000175594
0.00135541
0.000188152
0.00117116
0.000198603
0.000974176
0.000206828
0.000766751
0.000212718
0.000551111
0.000216216
0.000329835
0.000106011
0.000217315
2.14143e-05
0.0021824
3.41841e-07
4.34435e-05
0.00213583
6.52111e-05
0.00207873
8.63614e-05
0.00200384
0.000106615
0.00190894
0.000125721
0.00179423
0.000143453
0.00166045
0.000159604
0.00150887
0.000173984
0.00134103
0.000186428
0.00115871
0.000196785
0.000963818
0.000204936
0.000758599
0.000210774
0.000545271
0.000214245
0.000326362
0.000104912
0.000215339
2.12081e-05
0.00216085
3.49895e-07
4.30366e-05
0.002114
6.4606e-05
0.00205716
8.55636e-05
0.00198289
0.000105633
0.00188887
0.000124565
0.0017753
0.000142136
0.00164288
0.00015814
0.00149287
0.000172389
0.00132678
0.00018472
0.00114638
0.000194983
0.000953556
0.00020306
0.000750523
0.000208849
0.000539485
0.000212292
0.000322922
0.000103829
0.000213381
2.10038e-05
0.00213948
3.57828e-07
4.26335e-05
0.00209237
6.40063e-05
0.00203578
8.47732e-05
0.00196212
0.00010466
0.00186898
0.00012342
0.00175654
0.000140831
0.00162547
0.000156689
0.00147701
0.000170809
0.00131266
0.000183027
0.00113416
0.000193197
0.000943385
0.000201202
0.000742516
0.00020694
0.000533745
0.000210356
0.000319504
0.000102741
0.00021144
2.08014e-05
0.00211832
3.65639e-07
4.2234e-05
0.00207093
6.34121e-05
0.00201461
8.39899e-05
0.00194154
0.000103696
0.00184927
0.000122285
0.00173795
0.000139538
0.00160821
0.000155252
0.0014613
0.000169243
0.00129867
0.00018135
0.00112206
0.000191428
0.000933309
0.000199361
0.000734585
0.00020505
0.000528059
0.000208438
0.000316119
0.000101668
0.000209517
2.06009e-05
0.00209734
3.7333e-07
4.18382e-05
0.0020497
6.28234e-05
0.00199362
8.32138e-05
0.00192115
0.00010274
0.00182975
0.000121161
0.00171953
0.000138256
0.00159112
0.000153827
0.00144573
0.000167692
0.0012848
0.000179689
0.00111006
0.000189675
0.000923321
0.000197537
0.000726722
0.000203176
0.000522418
0.000206538
0.000312755
0.000100591
0.000207611
2.04022e-05
0.00207656
3.80902e-07
4.1446e-05
0.00202865
6.224e-05
0.00197283
8.24447e-05
0.00190095
0.000101794
0.0018104
0.000120046
0.00170128
0.000136987
0.00157418
0.000152416
0.0014303
0.000166154
0.00127107
0.000178042
0.00109817
0.000187939
0.000913426
0.00019573
0.000718932
0.00020132
0.00051683
0.000204655
0.000309424
9.95296e-05
0.000205722
2.02054e-05
0.00205597
3.88356e-07
4.10574e-05
0.0020078
6.16619e-05
0.00195222
8.16827e-05
0.00188093
0.000100855
0.00179123
0.000118942
0.00168319
0.000135728
0.00155739
0.000151017
0.00141501
0.000164631
0.00125745
0.000176411
0.00108639
0.000186218
0.000903618
0.000193939
0.00071121
0.000199481
0.000511286
0.000202789
0.000306113
9.8464e-05
0.00020385
2.00104e-05
0.00203556
3.95696e-07
4.06723e-05
0.00198714
6.10892e-05
0.00193181
8.09277e-05
0.00186109
9.99259e-05
0.00177223
0.000117848
0.00166527
0.000134482
0.00154076
0.000149632
0.00139986
0.000163121
0.00124396
0.000174795
0.00107472
0.000184513
0.000893901
0.000192165
0.000703559
0.000197659
0.000505794
0.00020094
0.000302836
9.74146e-05
0.000201995
1.98172e-05
0.00201534
4.02922e-07
4.02908e-05
0.00196667
6.05217e-05
0.00191158
8.01795e-05
0.00184143
9.90048e-05
0.0017534
0.000116764
0.00164751
0.000133246
0.00152428
0.000148259
0.00138485
0.000161626
0.00123059
0.000173193
0.00106315
0.000182824
0.000884269
0.000190407
0.000695974
0.000195853
0.000500347
0.000199107
0.000299579
9.63611e-05
0.000200156
1.96258e-05
0.0019953
4.10039e-07
3.99128e-05
0.00194638
5.99594e-05
0.00189153
7.94382e-05
0.00182195
9.80922e-05
0.00173475
0.00011569
0.00162991
0.000132022
0.00150795
0.000146898
0.00136997
0.000160144
0.00121735
0.000171606
0.00105169
0.00018115
0.000874727
0.000188665
0.00068846
0.000194064
0.00049495
0.000197291
0.000296355
9.53244e-05
0.000198334
1.94362e-05
0.00197545
4.17048e-07
3.95383e-05
0.00192628
5.94022e-05
0.00187166
7.87036e-05
0.00180265
9.71879e-05
0.00171626
0.000114625
0.00161247
0.000130809
0.00149176
0.00014555
0.00135523
0.000158676
0.00120422
0.000170034
0.00104033
0.000179491
0.000865269
0.00018694
0.000681011
0.000192291
0.000489597
0.000195492
0.000293151
9.4284e-05
0.000196528
1.92483e-05
0.00195578
4.23954e-07
3.91672e-05
0.00190636
5.88502e-05
0.00185198
7.79758e-05
0.00178353
9.62918e-05
0.00169795
0.000113571
0.00159519
0.000129608
0.00147572
0.000144214
0.00134062
0.000157221
0.00119122
0.000168476
0.00102908
0.000177848
0.000855898
0.00018523
0.000673631
0.000190535
0.000484294
0.000193709
0.000289979
9.32608e-05
0.000194738
1.90622e-05
0.00193629
4.3076e-07
3.87996e-05
0.00188662
5.83032e-05
0.00183248
7.72546e-05
0.00176457
9.54039e-05
0.0016798
0.000112526
0.00157807
0.000128417
0.00145983
0.000142891
0.00132615
0.000155779
0.00117833
0.000166933
0.00101792
0.00017622
0.000846609
0.000183536
0.000666314
0.000188794
0.000479034
0.000191943
0.000286828
9.2234e-05
0.000192965
1.88778e-05
0.00191697
4.37472e-07
3.84353e-05
0.00186706
5.77612e-05
0.00181315
7.65401e-05
0.00174579
9.45242e-05
0.00166181
0.00011149
0.00156111
0.000127237
0.00144409
0.000141579
0.00131181
0.000154351
0.00116556
0.000165403
0.00100687
0.000174607
0.000837407
0.000181857
0.000659065
0.00018707
0.000473823
0.000190192
0.000283709
9.12248e-05
0.000191207
1.86952e-05
0.00189783
4.44094e-07
3.80744e-05
0.00184768
5.72242e-05
0.001794
7.5832e-05
0.00172719
9.36525e-05
0.00164399
0.000110464
0.00154429
0.000126068
0.00142848
0.00014028
0.0012976
0.000152936
0.0011529
0.000163888
0.000995918
0.000173009
0.000828285
0.000180194
0.000651878
0.000185361
0.000468654
0.000188458
0.00028061
9.02121e-05
0.000189466
1.85142e-05
0.00187887
4.50632e-07
3.77168e-05
0.00182848
5.66921e-05
0.00177503
7.51305e-05
0.00170875
9.27888e-05
0.00162634
0.000109448
0.00152764
0.000124909
0.00141302
0.000138993
0.00128351
0.000151533
0.00114036
0.000162386
0.000985066
0.000171425
0.000819247
0.000178546
0.000644759
0.000183668
0.000463534
0.000186739
0.000277542
8.92172e-05
0.00018774
1.83349e-05
0.00186007
4.57091e-07
3.73625e-05
0.00180945
5.61649e-05
0.00175623
7.44354e-05
0.00169048
9.19329e-05
0.00160884
0.00010844
0.00151113
0.000123761
0.0013977
0.000137717
0.00126956
0.000150144
0.00112793
0.000160899
0.00097431
0.000169856
0.000810289
0.000176914
0.0006377
0.000181991
0.000458454
0.000185036
0.000274494
8.82187e-05
0.000186029
1.81573e-05
0.00184145
4.63479e-07
3.70114e-05
0.0017906
5.56425e-05
0.00173759
7.37466e-05
0.00167237
9.10849e-05
0.0015915
0.000107442
0.00149477
0.000122624
0.00138252
0.000136453
0.00125573
0.000148767
0.00111562
0.000159425
0.000963654
0.000168301
0.000801414
0.000175296
0.000630707
0.000180329
0.000453423
0.000183348
0.000271478
8.72381e-05
0.000184335
1.79814e-05
0.001823
4.69801e-07
3.66636e-05
0.00177192
5.51249e-05
0.00171913
7.30641e-05
0.00165443
9.02447e-05
0.00157432
0.000106453
0.00147856
0.000121497
0.00136748
0.0001352
0.00124202
0.000147403
0.00110342
0.000157964
0.000953092
0.000166761
0.000792616
0.000173693
0.000623773
0.000178682
0.000448432
0.000181676
0.000268481
8.62536e-05
0.000182656
1.7807e-05
0.00180472
4.76065e-07
3.6319e-05
0.00175341
5.46121e-05
0.00170084
7.23879e-05
0.00163666
8.94121e-05
0.0015573
0.000105473
0.0014625
0.00012038
0.00135257
0.000133959
0.00122845
0.000146051
0.00109133
0.000156517
0.000942627
0.000165235
0.000783899
0.000172105
0.000616904
0.00017705
0.000443489
0.00018002
0.000265515
8.52871e-05
0.000180992
1.76343e-05
0.0017866
4.82275e-07
3.59775e-05
0.00173506
5.41039e-05
0.00168271
7.17179e-05
0.00161904
8.85872e-05
0.00154043
0.000104502
0.00144659
0.000119274
0.0013378
0.00013273
0.00121499
0.000144712
0.00107934
0.000155083
0.000932255
0.000163722
0.000775259
0.000170532
0.000610094
0.000175434
0.000438584
0.000178378
0.000262568
8.43164e-05
0.000179343
1.74632e-05
0.00176865
4.88439e-07
3.56392e-05
0.00171689
5.36004e-05
0.00166475
7.1054e-05
0.00160159
8.77698e-05
0.00152371
0.00010354
0.00143082
0.000118178
0.00132316
0.000131511
0.00120166
0.000143385
0.00106747
0.000153663
0.000921979
0.000162224
0.000766699
0.000168973
0.000603347
0.000173832
0.000433727
0.000176751
0.000259652
8.33637e-05
0.00017771
1.72936e-05
0.00175086
4.94562e-07
3.5304e-05
0.00169888
5.31015e-05
0.00164696
7.03962e-05
0.0015843
8.69599e-05
0.00150715
0.000102587
0.00141519
0.000117092
0.00130865
0.000130304
0.00118844
0.000142071
0.0010557
0.000152255
0.000911793
0.00016074
0.000758213
0.000167428
0.000596657
0.000172245
0.000428908
0.00017514
0.000256754
8.24068e-05
0.000176091
1.71256e-05
0.00173324
5.00649e-07
3.49718e-05
0.00168103
5.26072e-05
0.00162932
6.97444e-05
0.00156716
8.61574e-05
0.00149073
0.000101642
0.00139971
0.000116015
0.00129428
0.000129108
0.00117535
0.000140768
0.00104404
0.000150861
0.000901702
0.000159269
0.000749806
0.000165898
0.00059003
0.000170672
0.000424136
0.000173543
0.000253887
8.1468e-05
0.000174487
1.69591e-05
0.00171577
5.06704e-07
3.46427e-05
0.00166335
5.21175e-05
0.00161185
6.90986e-05
0.00155018
8.53622e-05
0.00147447
0.000100706
0.00138436
0.000114949
0.00128004
0.000127923
0.00116238
0.000139477
0.00103249
0.000149479
0.000891699
0.000157812
0.000741471
0.000164381
0.000583459
0.000169114
0.000419401
0.00017196
0.000251037
8.05248e-05
0.000172898
1.67942e-05
0.00169846
5.1273e-07
3.43166e-05
0.00164582
5.16322e-05
0.00159453
6.84587e-05
0.00153335
8.45744e-05
0.00145836
9.97791e-05
0.00136916
0.000113892
0.00126593
0.000126749
0.00114952
0.000138199
0.00102104
0.00014811
0.000881789
0.000156368
0.000733215
0.000162879
0.000576949
0.00016757
0.000414712
0.000170392
0.000248219
7.96e-05
0.000171323
1.66308e-05
0.00168132
5.18728e-07
3.39935e-05
0.00162846
5.11513e-05
0.00157737
6.78246e-05
0.00151668
8.37937e-05
0.00144239
9.88603e-05
0.00135409
0.000112845
0.00125194
0.000125585
0.00113678
0.000136932
0.00100969
0.000146753
0.000871966
0.000154937
0.000725029
0.000161391
0.000570495
0.000166041
0.000410059
0.000168839
0.000245417
7.86709e-05
0.000169762
1.64689e-05
0.00166432
5.24703e-07
3.36734e-05
0.00161126
5.06748e-05
0.00156037
6.71964e-05
0.00150016
8.30202e-05
0.00142656
9.79499e-05
0.00133916
0.000111808
0.00123808
0.000124433
0.00112416
0.000135676
0.00099845
0.000145409
0.000862234
0.00015352
0.00071692
0.000159916
0.0005641
0.000164525
0.000405452
0.0001673
0.000242646
7.77602e-05
0.000168216
1.63084e-05
0.00164748
5.30653e-07
3.33562e-05
0.00159421
5.02027e-05
0.00154352
6.65738e-05
0.00148379
8.22538e-05
0.00141088
9.70478e-05
0.00132437
0.00011078
0.00122435
0.00012329
0.00111165
0.000134432
0.000987307
0.000144078
0.000852587
0.000152116
0.000708881
0.000158455
0.00055776
0.000163024
0.000400881
0.000165774
0.000239892
7.6845e-05
0.000166684
1.61494e-05
0.0016308
5.36581e-07
3.30418e-05
0.00157732
4.97349e-05
0.00152683
6.5957e-05
0.00146756
8.14943e-05
0.00139535
9.6154e-05
0.00130971
0.000109762
0.00121074
0.000122159
0.00109925
0.0001332
0.000976266
0.000142759
0.00084303
0.000150724
0.000700917
0.000157007
0.000551479
0.000161536
0.000396354
0.000164263
0.000237168
7.59484e-05
0.000165166
1.59919e-05
0.00161426
5.42484e-07
3.27304e-05
0.00156058
4.92714e-05
0.00151029
6.53459e-05
0.00145149
8.07419e-05
0.00137995
9.52684e-05
0.00129518
0.000108753
0.00119726
0.000121037
0.00108697
0.000131979
0.000965324
0.000141452
0.000833556
0.000149346
0.000693021
0.000155573
0.000545251
0.000160062
0.000391862
0.000162766
0.000234461
7.50471e-05
0.000163662
1.58358e-05
0.00159788
5.48364e-07
3.24218e-05
0.00154399
4.88122e-05
0.0014939
6.47403e-05
0.00143556
7.99963e-05
0.00136469
9.4391e-05
0.00128079
0.000107753
0.0011839
0.000119927
0.00107479
0.000130769
0.000954482
0.000140157
0.00082417
0.00014798
0.000685198
0.000154152
0.000539081
0.000158602
0.000387414
0.000161283
0.000231783
7.41641e-05
0.000162172
1.56811e-05
0.00158164
5.54218e-07
3.2116e-05
0.00152756
4.83571e-05
0.00147766
6.41403e-05
0.00141978
7.92576e-05
0.00134958
9.35216e-05
0.00126652
0.000106763
0.00117065
0.000118826
0.00106273
0.000129571
0.000943736
0.000138874
0.000814866
0.000146627
0.000677443
0.000152744
0.000532963
0.000157155
0.000383001
0.000159813
0.000229121
7.32763e-05
0.000160695
1.55278e-05
0.00156556
5.60045e-07
3.1813e-05
0.00151127
4.79062e-05
0.00146157
6.35458e-05
0.00140414
7.85257e-05
0.0013346
9.26602e-05
0.00125239
0.000105781
0.00115753
0.000117735
0.00105078
0.000128383
0.000933089
0.000137602
0.000805648
0.000145287
0.00066976
0.000151349
0.000526902
0.000155721
0.000378631
0.000158357
0.000226489
7.24067e-05
0.000159232
1.53759e-05
0.00154961
5.65844e-07
3.15128e-05
0.00149514
4.74595e-05
0.00144562
6.29567e-05
0.00138864
7.78005e-05
0.00131975
9.18066e-05
0.00123838
0.000104809
0.00114453
0.000116655
0.00103893
0.000127207
0.000922536
0.000136343
0.000796511
0.000143958
0.000662144
0.000149967
0.000520892
0.000154301
0.000374294
0.000156914
0.000223872
7.1532e-05
0.000157783
1.52254e-05
0.00153382
5.71612e-07
3.12154e-05
0.00147915
4.70168e-05
0.00142982
6.2373e-05
0.00137329
7.70819e-05
0.00130504
9.0961e-05
0.0012245
0.000103845
0.00113165
0.000115584
0.00102719
0.000126041
0.00091208
0.000135095
0.000787458
0.000142642
0.000654598
0.000148597
0.000514939
0.000152893
0.00037
0.000155485
0.000221284
7.06755e-05
0.000156347
1.50762e-05
0.00151816
5.77346e-07
3.09206e-05
0.0014633
4.65782e-05
0.00141416
6.17947e-05
0.00135807
7.63699e-05
0.00129047
9.01231e-05
0.00121075
0.000102891
0.00111888
0.000114524
0.00101556
0.000124886
0.000901717
0.000133859
0.000778484
0.000141339
0.000647116
0.000147241
0.000509035
0.000151499
0.000365739
0.000154068
0.000218712
6.98137e-05
0.000154924
1.49285e-05
0.00150265
5.83045e-07
3.06286e-05
0.0014476
4.61436e-05
0.00139865
6.12217e-05
0.00134299
7.56645e-05
0.00127603
8.92929e-05
0.00119712
0.000101945
0.00110623
0.000113473
0.00100403
0.000123742
0.000891449
0.000132634
0.000769593
0.000140047
0.000639704
0.000145897
0.000503187
0.000150118
0.00036152
0.000152665
0.000216168
6.89701e-05
0.000153514
1.4782e-05
0.00148728
5.88703e-07
3.03392e-05
0.00143204
4.57129e-05
0.00138327
6.06539e-05
0.00132805
7.49655e-05
0.00126171
8.84703e-05
0.00118361
0.000101008
0.00109369
0.000112431
0.000992606
0.000122608
0.000881271
0.00013142
0.000760779
0.000138767
0.000632356
0.000144565
0.000497387
0.000148749
0.000357333
0.000151275
0.000213639
6.81212e-05
0.000152118
1.46369e-05
0.00147205
5.94318e-07
3.00524e-05
0.00141663
4.52862e-05
0.00136804
6.00913e-05
0.00131324
7.4273e-05
0.00124753
8.76554e-05
0.00117023
0.000100079
0.00108127
0.0001114
0.000981287
0.000121485
0.000871187
0.000130218
0.000752047
0.000137499
0.000625076
0.000143246
0.000491642
0.000147393
0.000353187
0.000149897
0.000211139
6.72905e-05
0.000150734
1.44931e-05
0.00145696
5.99886e-07
2.97683e-05
0.00140135
4.48635e-05
0.00135294
5.95339e-05
0.00129857
7.35868e-05
0.00123348
8.68479e-05
0.00115697
9.91596e-05
0.00106895
0.000110378
0.000970068
0.000120372
0.000861192
0.000129027
0.000743391
0.000136243
0.000617858
0.000141939
0.000485945
0.00014605
0.000349073
0.000148533
0.000208653
6.64544e-05
0.000149363
1.43507e-05
0.001442
6.05402e-07
2.94868e-05
0.00138622
4.44446e-05
0.00133798
5.89817e-05
0.00128404
7.2907e-05
0.00121955
8.60479e-05
0.00114383
9.82482e-05
0.00105675
0.000109365
0.000958952
0.000119269
0.000851289
0.000127847
0.000734815
0.000134999
0.000610708
0.000140644
0.000480301
0.000144719
0.000345
0.000147181
0.000206195
6.56364e-05
0.000148004
1.42095e-05
0.00142718
6.10864e-07
2.92079e-05
0.00137122
4.40295e-05
0.00132316
5.84345e-05
0.00126963
7.22334e-05
0.00120575
8.52552e-05
0.00113081
9.73453e-05
0.00104466
0.000108362
0.000947934
0.000118177
0.000841473
0.000126677
0.000726313
0.000133766
0.000603618
0.000139361
0.000474704
0.000143401
0.000340957
0.000145841
0.000203751
6.4813e-05
0.000146659
1.40697e-05
0.00141249
6.16265e-07
2.89315e-05
0.00135636
4.36183e-05
0.00130848
5.78923e-05
0.00125536
7.1566e-05
0.00119208
8.44699e-05
0.00111791
9.64507e-05
0.00103268
0.000107368
0.000937017
0.000117095
0.000831747
0.000125519
0.00071789
0.000132544
0.000596595
0.00013809
0.000469159
0.000142095
0.000336955
0.000144514
0.000201335
6.40076e-05
0.000145325
1.39311e-05
0.00139794
6.21603e-07
2.86577e-05
0.00134163
4.32109e-05
0.00129392
5.73551e-05
0.00124121
7.09048e-05
0.00117853
8.36918e-05
0.00110512
9.55644e-05
0.00102081
0.000106383
0.000926198
0.000116023
0.000822106
0.000124372
0.00070954
0.000131334
0.000589631
0.000136831
0.000463661
0.0001408
0.000332983
0.0001432
0.000198932
6.31966e-05
0.000144004
1.37938e-05
0.00138352
6.26872e-07
2.83864e-05
0.00132704
4.28072e-05
0.0012795
5.68229e-05
0.0012272
7.02496e-05
0.00116511
8.29209e-05
0.00109245
9.46862e-05
0.00100904
0.000105408
0.000915477
0.000114961
0.000812554
0.000123235