/*--------------------------------*- C++ -*----------------------------------*\
  =========                 |
  \\      /  F ield         | OpenFOAM: The Open Source CFD Toolbox
   \\    /   O peration     | Website:  https://openfoam.org
    \\  /    A nd           | Version:  6.0
     \\/     M anipulation  |
\*---------------------------------------------------------------------------*/
FoamFile
{
    version     2.0;
    format      ascii;
    class       volScalarField;
    location    "20";
    object      p;
}
// * * * * * * * * * * * * * * * * * * * * * * * * * * * * * * * * * * * * * //

dimensions      [0 2 -2 0 0 0 0];

internalField   nonuniform List<scalar> 
47000
(
0.0127104
0.0126831
0.0125856
0.0124236
0.0122134
0.0119715
0.0117203
0.0114645
0.0112038
0.0109247
0.0106099
0.0102484
0.00982739
0.00935234
0.00882299
0.0082583
0.00766529
0.00706847
0.00647485
0.00590681
0.00536737
0.00487079
0.0044163
0.00400878
0.00364792
0.00333091
0.00307585
0.00283798
0.00293125
0.00423931
0.0127173
0.0127055
0.0126356
0.012511
0.0123451
0.0121531
0.0119564
0.0117594
0.0115618
0.0113485
0.0110997
0.0108004
0.0104329
0.00999788
0.00948983
0.008925
0.00830684
0.00766077
0.00699245
0.00632879
0.00567308
0.00504571
0.00444697
0.00388666
0.00336656
0.00288706
0.0024738
0.00213209
0.00214765
0.00244489
0.0127262
0.0127007
0.0126004
0.0124286
0.0121993
0.0119295
0.0116443
0.0113528
0.0110603
0.0107568
0.0104272
0.0100586
0.00963473
0.0091555
0.00861404
0.00802409
0.00738669
0.0067249
0.00604276
0.00536698
0.00470143
0.00406935
0.00347432
0.00293173
0.00244953
0.00203879
0.00173358
0.00156154
0.00172524
0.00226659
0.0127395
0.012704
0.0125801
0.0123713
0.0120919
0.0117607
0.0114057
0.0110405
0.0106759
0.0103075
0.00992507
0.00951908
0.00907576
0.00859514
0.00806986
0.00751145
0.00691796
0.0063092
0.00568529
0.00507074
0.00446646
0.00389589
0.00336161
0.00288088
0.00246176
0.00211743
0.001876
0.00175625
0.00189888
0.00233302
0.0127586
0.0127243
0.0125969
0.0123788
0.012083
0.0117276
0.0113409
0.0109383
0.0105337
0.0101259
0.00970872
0.00927505
0.00881351
0.00832547
0.00780418
0.00726075
0.00669186
0.00611519
0.0055278
0.00495143
0.00438357
0.00384554
0.00333739
0.0028752
0.00246521
0.00211988
0.00186108
0.00170808
0.00175971
0.00197592
0.0127819
0.0127537
0.0126314
0.0124154
0.0121163
0.0117499
0.0113435
0.0109126
0.0104725
0.0100241
0.00956349
0.00908577
0.00858185
0.00805503
0.00750073
0.0069318
0.00634606
0.00576198
0.00517585
0.00460916
0.00405705
0.00354021
0.00305622
0.00262085
0.00223874
0.00192309
0.00169193
0.00156649
0.00161659
0.00179745
0.0128093
0.0127929
0.012685
0.0124846
0.0121994
0.0118428
0.0114399
0.0110055
0.0105554
0.0100914
0.00961022
0.00910785
0.00857606
0.00801938
0.00743497
0.00683789
0.00622828
0.00562688
0.00503139
0.00446439
0.00392073
0.00342073
0.00296044
0.00255431
0.00220461
0.00192248
0.00171923
0.00160948
0.00163748
0.00173839
0.0128401
0.0128438
0.0127649
0.0126007
0.0123555
0.0120393
0.0116749
0.0112758
0.0108574
0.0104213
0.00996363
0.00947927
0.00895891
0.00840592
0.00781739
0.00720896
0.00658224
0.00596016
0.0053421
0.00475285
0.00418768
0.003668
0.0031887
0.00276389
0.00239339
0.00208649
0.00184824
0.00169023
0.00163645
0.00160366
0.0128752
0.0129051
0.0128638
0.0127464
0.0125527
0.012289
0.0119756
0.0116249
0.0112522
0.010859
0.0104409
0.00999118
0.00949827
0.00896301
0.00838055
0.00776544
0.00711942
0.0064666
0.00580821
0.00517132
0.00455326
0.00397763
0.00344074
0.00295832
0.00253115
0.0021698
0.0018778
0.00167063
0.00155564
0.00144698
0.0129129
0.0129674
0.0129579
0.0128764
0.0127178
0.012485
0.0121965
0.011865
0.0115076
0.0111274
0.0107215
0.010283
0.00979913
0.00926841
0.00868372
0.00805761
0.00739095
0.00670825
0.00601185
0.00533148
0.00466668
0.00404478
0.00346459
0.00294549
0.0024905
0.00211305
0.00181515
0.00161495
0.00150212
0.00139165
0.0129527
0.0130248
0.0130313
0.0129611
0.0128051
0.0125635
0.0122545
0.0118931
0.0114999
0.0110828
0.010643
0.0101761
0.00967068
0.00912457
0.00852921
0.0078952
0.00722202
0.00653344
0.00583206
0.00514878
0.00448477
0.00386957
0.00330397
0.0028091
0.00238853
0.00205515
0.00180555
0.00165357
0.00157271
0.00148016
0.0129918
0.0130743
0.0130825
0.013003
0.0128238
0.0125437
0.0121815
0.0117552
0.0112906
0.010802
0.0102968
0.009776
0.00923168
0.00866291
0.00806093
0.00743476
0.00678189
0.00612433
0.00546293
0.00482794
0.00421936
0.0036667
0.00316935
0.00274723
0.00240039
0.00213754
0.00194625
0.0018331
0.00176303
0.00165725
0.0130305
0.0131214
0.0131281
0.0130359
0.0128313
0.0125116
0.0120961
0.011605
0.0110687
0.0105078
0.00993679
0.00936279
0.00878291
0.00819895
0.00760295
0.00700272
0.00639355
0.00579443
0.00520304
0.00464647
0.00412141
0.00365415
0.00324029
0.00289548
0.00261442
0.00240003
0.00223228
0.00211265
0.00200735
0.00184517
0.013068
0.0131712
0.0131862
0.0130975
0.01289
0.0125593
0.0121227
0.0116007
0.0110257
0.0104227
0.00981184
0.00920619
0.00860805
0.00802256
0.0074432
0.00687711
0.0063173
0.00577957
0.00525732
0.00477361
0.00432015
0.00391912
0.00356092
0.00325696
0.00299687
0.00278002
0.00258265
0.00240655
0.00222573
0.00197546
0.0131067
0.0132307
0.0132726
0.0132159
0.0130437
0.0127476
0.0123406
0.0118397
0.0112759
0.0106759
0.0100626
0.00945379
0.00885626
0.00827856
0.00771614
0.00717615
0.00665017
0.00615113
0.00566881
0.00522224
0.00479884
0.00441681
0.00406276
0.0037451
0.00345128
0.00318018
0.00290918
0.00264401
0.00236785
0.00202146
0.0131456
0.0132995
0.0133886
0.0133945
0.0132971
0.013082
0.0127549
0.0123263
0.0118223
0.0112677
0.010686
0.0100975
0.0095126
0.00894297
0.00838652
0.00785144
0.00732893
0.00683068
0.00634399
0.00588565
0.00544007
0.00502371
0.0046211
0.00424056
0.00386983
0.00351047
0.00314347
0.00278028
0.00241058
0.00197712
0.013186
0.013377
0.0135286
0.01362
0.0136265
0.013526
0.013315
0.012995
0.0125848
0.0121041
0.0115753
0.0110193
0.010449
0.00987919
0.00931067
0.00875362
0.00820053
0.00766335
0.00712913
0.0066141
0.00610214
0.00560973
0.00512189
0.00464858
0.00418015
0.00372188
0.00325942
0.00280879
0.00236211
0.00186385
0.013225
0.0134554
0.0136762
0.0138632
0.0139861
0.0140145
0.0139348
0.0137385
0.0134355
0.0130396
0.0125699
0.012047
0.0114857
0.0109034
0.0103042
0.0097013
0.00908961
0.00848323
0.00787043
0.00726911
0.0066641
0.006074
0.00548551
0.00491179
0.00434609
0.00379767
0.00325563
0.00273915
0.00223897
0.00170013
0.013262
0.0135295
0.0138165
0.0140951
0.0143296
0.0144813
0.0145273
0.0144492
0.0142484
0.013932
0.0135154
0.0130182
0.0124563
0.0118497
0.011206
0.0105418
0.00985557
0.00916438
0.00845934
0.00776093
0.00705645
0.00636719
0.00568254
0.00501865
0.00437169
0.00375359
0.0031558
0.0025984
0.00206854
0.00151416
0.0132923
0.0135902
0.0139324
0.0142876
0.0146148
0.0148688
0.0150189
0.0150386
0.0149213
0.0146682
0.0142912
0.0138085
0.0132369
0.0125985
0.011904
0.011174
0.0104103
0.00963383
0.00883878
0.0080491
0.00725453
0.00647968
0.00571607
0.00498273
0.00427746
0.00361401
0.00298431
0.00240858
0.00186943
0.00131817
0.013315
0.013634
0.014015
0.0144243
0.0148169
0.0151431
0.0153666
0.0154548
0.0153956
0.0151849
0.0148315
0.0143524
0.0137647
0.0130923
0.0123488
0.0115579
0.0107249
0.00987439
0.0090036
0.00813953
0.0072746
0.00643585
0.00561681
0.00483812
0.00409868
0.00341255
0.00277168
0.00219532
0.0016622
0.00112992
0.013326
0.0136553
0.0140569
0.0144953
0.0149232
0.0152885
0.0155521
0.0156781
0.0156501
0.0154608
0.0151162
0.0146324
0.0140263
0.0133231
0.0125385
0.0116986
0.0108116
0.00990513
0.00897879
0.00806246
0.00715013
0.00627113
0.00541979
0.00461803
0.00386456
0.00317357
0.00253601
0.00197089
0.0014539
0.000949104
0.0133259
0.0136549
0.0140593
0.0145029
0.0149375
0.0153111
0.0155843
0.01572
0.0156997
0.0155139
0.0151669
0.0146735
0.0140504
0.0133233
0.012509
0.0116354
0.0107128
0.00977054
0.0088104
0.00786389
0.00692637
0.00602823
0.00516444
0.00435709
0.00360475
0.00292095
0.00229624
0.00174919
0.0012542
0.000783884
0.0133122
0.0136314
0.0140237
0.0144525
0.0148702
0.015227
0.0154851
0.0156081
0.0155773
0.0153821
0.0150254
0.014521
0.0138849
0.0131426
0.0123113
0.0114196
0.0104788
0.00951976
0.00854488
0.00758712
0.00664202
0.005741
0.00487868
0.00407749
0.00333514
0.0026651
0.00205721
0.00153091
0.00106036
0.000625651
0.013287
0.0135891
0.0139575
0.0143567
0.0147403
0.015062
0.0152875
0.0153824
0.015329
0.0151164
0.0147467
0.0142323
0.0135886
0.0128399
0.0120032
0.0111072
0.0101631
0.00920231
0.00822769
0.00727251
0.00633251
0.00543918
0.00458708
0.00379835
0.00307045
0.00241652
0.00182672
0.00132131
0.000875657
0.000478441
0.0132493
0.0135286
0.0138659
0.0142262
0.0145653
0.0148411
0.0150235
0.0150816
0.014999
0.0147655
0.0143823
0.0138607
0.0132146
0.0124673
0.0116346
0.0107445
0.00980779
0.00885592
0.00789116
0.00694721
0.00601918
0.005139
0.00430051
0.00352621
0.00281289
0.00217434
0.00160073
0.00111451
0.000692606
0.000330295
0.0132018
0.0134552
0.0137575
0.0140745
0.0143644
0.0145896
0.0147249
0.0147429
0.0146294
0.0143748
0.0139796
0.0134539
0.0128102
0.0120699
0.0112477
0.0103703
0.0094476
0.00851049
0.0075608
0.0066319
0.00571864
0.0048528
0.00402814
0.0032671
0.00256672
0.00194109
0.00138158
0.000912321
0.000512698
0.000185172
0.013144
0.0133701
0.0136368
0.0139105
0.0141514
0.0143264
0.0144153
0.0143943
0.0142512
0.0139774
0.0135727
0.0130459
0.0124079
0.0116783
0.0108701
0.0100086
0.00910255
0.00818226
0.00724855
0.00633493
0.00543541
0.00458225
0.0037687
0.00301794
0.00232681
0.00171077
0.00116174
0.000706733
0.000327256
3.04955e-05
0.0130787
0.0132779
0.0135103
0.0137435
0.0139388
0.0140676
0.0141141
0.0140577
0.0138886
0.0135987
0.0131873
0.0126618
0.0120315
0.0113141
0.0105209
0.00967565
0.00878605
0.00788151
0.00696226
0.00606144
0.00517288
0.00432887
0.0035229
0.00277848
0.0020932
0.00148332
0.000942374
0.000499372
0.000138403
-0.000128039
0.0130052
0.0131789
0.0133803
0.0135777
0.0137332
0.0138218
0.0138316
0.0137453
0.0135545
0.0132521
0.0128365
0.0123139
0.0116919
0.0109864
0.0102071
0.00937643
0.0085007
0.00760894
0.00670041
0.00580852
0.0049265
0.00408739
0.00328445
0.00254234
0.00185877
0.0012518
0.000715597
0.000282307
-6.22213e-05
-0.000302798
0.012926
0.0130765
0.0132507
0.0134179
0.0135401
0.0135953
0.0135751
0.0134645
0.0132568
0.0129452
0.0125275
0.0120085
0.0113943
0.0106993
0.00993149
0.00911222
0.00824679
0.00736359
0.00646155
0.00557392
0.00469406
0.00385531
0.00305148
0.00230784
0.0016231
0.00101634
0.000483373
5.82226e-05
-0.000271173
-0.000485979
0.0128399
0.0129701
0.0131213
0.0132641
0.0133598
0.0133887
0.0133451
0.0132159
0.0129956
0.0126778
0.0122593
0.0117439
0.0111363
0.0104493
0.00968981
0.00887811
0.00801848
0.00713932
0.00623883
0.00535089
0.00446851
0.00362604
0.00281727
0.00206886
0.00137969
0.000770872
0.000238564
-0.000180114
-0.000496165
-0.000689832
0.0127493
0.0128618
0.0129939
0.0131178
0.0131932
0.013202
0.0131409
0.0129983
0.0127692
0.0124475
0.0120291
0.0115167
0.0109139
0.0102322
0.00947747
0.00866917
0.00781111
0.00693137
0.00602816
0.00513551
0.00424681
0.00339688
0.00258029
0.00182438
0.0011291
0.000516549
-1.56864e-05
-0.000428869
-0.000732633
-0.000904768
0.0126524
0.01275
0.0128668
0.0129767
0.0130374
0.0130318
0.0129585
0.0128066
0.0125717
0.0122477
0.0118298
0.0113195
0.0107194
0.0100401
0.00928664
0.00847787
0.00761703
0.00673262
0.00582245
0.00492141
0.0040228
0.00316253
0.00233523
0.00156978
0.00086613
0.000248468
-0.000285695
-0.000694635
-0.000987762
-0.0011432
0.0125513
0.0126362
0.0127407
0.0128404
0.0128909
0.0128754
0.012794
0.0126363
0.012398
0.0120729
0.0116554
0.011146
0.0105467
0.00986689
0.00911136
0.00829844
0.00743132
0.00653854
0.00561819
0.00470552
0.00379441
0.00292128
0.00208164
0.001305
0.000592331
-3.13428e-05
-0.000567395
-0.000972769
-0.00125631
-0.00139446
0.012444
0.0125184
0.0126131
0.0127059
0.01275
0.0127283
0.0126421
0.0124811
0.0122411
0.0119156
0.0114982
0.0109886
0.0103879
0.00970517
0.00894462
0.00812449
0.00724774
0.00634362
0.00541008
0.00448337
0.00355745
0.00266978
0.00181592
0.00102698
0.000303685
-0.000326827
-0.000866543
-0.00126946
-0.00154511
-0.00167092
0.0123323
0.0123974
0.0124842
0.0125725
0.0126126
0.0125873
0.0124988
0.0123365
0.0120959
0.0117703
0.0113526
0.0108415
0.0102377
0.00954972
0.00878167
0.00795161
0.0070628
0.00614479
0.00519601
0.00425318
0.00331091
0.00240717
0.00153838
0.00073624
2.33846e-06
-0.000635515
-0.00117853
-0.00157959
-0.00184854
-0.00196183
0.012214
0.0122709
0.0123515
0.0124369
0.0124756
0.0124487
0.0123597
0.0121974
0.0119569
0.0116313
0.0112127
0.010699
0.0100906
0.00939546
0.00861776
0.00777569
0.00687253
0.00593873
0.00497282
0.00401247
0.00305253
0.00213187
0.00124689
0.000430973
-0.000314887
-0.000960689
-0.00150881
-0.00190915
-0.00217324
-0.00227862
0.0120909
0.0121399
0.0122151
0.0122989
0.0123372
0.01231
0.0122216
0.0120602
0.0118204
0.0114947
0.0110747
0.0105573
0.00994289
0.0092389
0.00844985
0.0075939
0.00667486
0.00572363
0.00473938
0.00376022
0.00278176
0.00184324
0.000941921
0.000111708
-0.000645709
-0.00129982
-0.00185252
-0.00225281
-0.00251322
-0.00261059
0.0119606
0.0120018
0.0120728
0.0121557
0.0121951
0.0121688
0.0120819
0.011922
0.0116829
0.011357
0.0109349
0.010413
0.00979138
0.00907729
0.00827544
0.00740428
0.00646785
0.00549808
0.00449436
0.00349569
0.00249798
0.00154122
0.000622497
-0.000222375
-0.000992726
-0.00165573
-0.002215
-0.00261645
-0.00287501
-0.00296808
0.0118252
0.0118583
0.0119253
0.0120077
0.0120484
0.0120234
0.0119385
0.0117804
0.0115422
0.0112156
0.010791
0.0102638
0.00963395
0.00890853
0.00809271
0.00720505
0.00625027
0.00526086
0.00423693
0.00321786
0.00220038
0.00122469
0.000288756
-0.000571151
-0.00135383
-0.00202608
-0.0025913
-0.00299466
-0.00325246
-0.00334096
0.0116822
0.011707
0.0117708
0.0118529
0.011896
0.0118728
0.0117903
0.0116341
0.0113966
0.0110692
0.0106415
0.0101082
0.00946931
0.00873167
0.00790091
0.00699587
0.00602175
0.00501201
0.00396724
0.00292743
0.00188976
0.00089497
-5.93379e-05
-0.000934627
-0.0017312
-0.00241336
-0.00298674
-0.00339326
-0.00365217
-0.00373981
0.011534
0.0115498
0.0116103
0.0116922
0.0117374
0.0117161
0.011636
0.0114818
0.0112449
0.0109163
0.010485
0.00994495
0.00929619
0.00854538
0.00769875
0.00677534
0.00578116
0.00475026
0.00368402
0.00262274
0.00156445
0.000549923
-0.000422358
-0.00131338
-0.0021231
-0.00281555
-0.00339637
-0.00380678
-0.00406781
-0.00415439
0.0113786
0.0113851
0.011443
0.0115246
0.0115726
0.0115534
0.0114759
0.0113235
0.0110869
0.0107567
0.0103213
0.00977396
0.00911466
0.00834996
0.00748677
0.00654433
0.00552939
0.00447684
0.00338881
0.00230586
0.00122664
0.000192249
-0.000799456
-0.00170664
-0.00253134
-0.00323482
-0.00382555
-0.00424111
-0.004506
-0.00459493
0.0112187
0.0112152
0.0112703
0.0113514
0.0114017
0.0113844
0.0113092
0.0111584
0.0109219
0.0105897
0.0101498
0.00959437
0.00892374
0.00814426
0.00726361
0.00630124
0.00526481
0.00418983
0.00307934
0.00197399
0.000873352
-0.000181595
-0.00119214
-0.00211585
-0.00295464
-0.00366958
-0.00426932
-0.00469069
-0.0049602
-0.00505076
0.0110526
0.011039
0.011092
0.0111725
0.0112256
0.01121
0.0111371
0.0109877
0.0107507
0.0104161
0.00997104
0.00940701
0.00872442
0.00792947
0.0070308
0.00604788
0.00498944
0.00389163
0.0027585
0.00163061
0.000508251
-0.000567431
-0.00159867
-0.00253948
-0.00339446
-0.00412165
-0.00473313
-0.00516151
-0.0054372
-0.00553247
0.0108832
0.0108592
0.0109099
0.0109893
0.0110444
0.0110303
0.010959
0.0108105
0.0105729
0.0102353
0.00978449
0.00921104
0.00851559
0.00770424
0.00678649
0.00578207
0.00470075
0.00357923
0.00242263
0.00127135
0.0001267
-0.000970508
-0.00202163
-0.00297989
-0.00385004
-0.0045899
-0.00521199
-0.00564792
-0.00593024
-0.00602903
0.0107094
0.0106751
0.0107241
0.0108024
0.0108598
0.0108467
0.0107768
0.0106289
0.0103898
0.0100487
0.00959151
0.00900794
0.00829894
0.00747038
0.0065331
0.00550655
0.00440191
0.00325629
0.00207615
0.000901353
-0.000265989
-0.00138498
-0.00245836
-0.00343479
-0.00432244
-0.00507582
-0.00571148
-0.0061561
-0.00644639
-0.00655146
0.0105339
0.0104893
0.0105367
0.0106132
0.0106719
0.0106591
0.0105899
0.0104419
0.0102009
0.0098556
0.00939126
0.00879663
0.00807299
0.00722615
0.006268
0.00521819
0.00408912
0.00291839
0.00171366
0.000514343
-0.000676349
-0.00181802
-0.00291254
-0.00390746
-0.0048114
-0.00557869
-0.0062265
-0.00668021
-0.00697864
-0.00708833
0.0103559
0.0103016
0.010348
0.0104227
0.0104827
0.0104698
0.0104007
0.010252
0.0100082
0.00965794
0.00918565
0.0085791
0.00783999
0.00697394
0.00599454
0.00492079
0.00376693
0.00257064
0.00134136
0.000117354
-0.00109723
-0.00226195
-0.00338054
-0.00439481
-0.0053176
-0.00609966
-0.00676285
-0.0072267
-0.00753448
-0.00765151
0.010178
0.0101142
0.0101595
0.0102319
0.0102921
0.0102782
0.0102082
0.0100579
0.00981075
0.00945469
0.00897352
0.00835389
0.00759798
0.00671141
0.00570907
0.00461004
0.00342995
0.00220692
0.000951757
-0.000298081
-0.00153729
-0.00272603
-0.00386719
-0.00490105
-0.00584128
-0.00663845
-0.00731524
-0.0077895
-0.00810656
-0.00822895
0.00999955
0.00992713
0.00997219
0.010042
0.0101025
0.0100869
0.0100154
0.0098628
0.00961113
0.00924833
0.00875725
0.00812345
0.00734977
0.00644158
0.00541605
0.00429095
0.00308433
0.00183406
0.000553143
-0.000722757
-0.00198733
-0.00320055
-0.00436786
-0.00542229
-0.00638268
-0.00719579
-0.00788973
-0.00837539
-0.00870283
-0.00883319
0.00982281
0.00974198
0.00978687
0.00985368
0.00991324
0.00989494
0.00982076
0.00966488
0.00940798
0.00903741
0.00853526
0.00788591
0.0070928
0.00616146
0.00511057
0.00395781
0.00272288
0.00144397
0.000135694
-0.00116756
-0.00245826
-0.00369701
-0.00488845
-0.00596359
-0.0069425
-0.00777185
-0.00848078
-0.00897798
-0.00931552
-0.00945155
0.00964726
0.00955932
0.00960472
0.00966841
0.00972708
0.00970545
0.0096279
0.00946783
0.00920435
0.00882486
0.00831041
0.00764418
0.00683052
0.00587472
0.0047984
0.00361709
0.00235357
0.00104546
-0.000289985
-0.00162089
-0.00293866
-0.0042035
-0.00542336
-0.00652029
-0.00752056
-0.00836696
-0.00909474
-0.00960446
-0.00995317
-0.0100976
0.00947478
0.00938004
0.00942599
0.00948622
0.00954269
0.00951669
0.00943465
0.00926931
0.00899845
0.00860884
0.00808067
0.00739591
0.00655971
0.00557764
0.00447316
0.00326142
0.00196713
0.000628217
-0.000736284
-0.00209627
-0.00344187
-0.00473388
-0.00597953
-0.00709821
-0.00811801
-0.0089817
-0.00972577
-0.010248
-0.0106075
-0.0107578
0.00930547
0.00920511
0.0092524
0.00930907
0.00936353
0.00933254
0.0092452
0.00907364
0.00879385
0.00839278
0.00784942
0.00714455
0.00628453
0.00527467
0.00414218
0.00289899
0.00157367
0.000203269
-0.00119005
-0.00257947
-0.00395408
-0.00527389
-0.00655041
-0.00769202
-0.00873421
-0.00961593
-0.0103806
-0.0109164
-0.0112876
-0.0114466
0.00914046
0.00903471
0.00908344
0.0091363
0.00918752
0.00915056
0.00905682
0.0088779
0.0085883
0.00817437
0.00761415
0.00688723
0.006001
0.00496126
0.00379738
0.00252053
0.00116158
-0.000242119
-0.00166638
-0.00308679
-0.00449111
-0.00583981
-0.00714384
-0.00830816
-0.00937074
-0.0102707
-0.011053
-0.0116022
-0.0119847
-0.0121496
0.00898056
0.00887082
0.00892156
0.00897066
0.00901888
0.0089754
0.00887443
0.00868712
0.00838596
0.0079576
0.00737882
0.00662799
0.00571413
0.00464274
0.00344787
0.00213621
0.000743291
-0.000694502
-0.00214946
-0.00360128
-0.00503667
-0.00641497
-0.00775243
-0.00894072
-0.0100265
-0.0109454
-0.01175
-0.0123138
-0.0127086
-0.0128822
0.00882615
0.00871273
0.00876561
0.00881077
0.00885486
0.00880394
0.00869467
0.00849777
0.00818408
0.00773969
0.00714037
0.00636339
0.00541908
0.00431362
0.00308366
0.00173458
0.000304697
-0.00116921
-0.0026572
-0.00414204
-0.00560918
-0.00701813
-0.0083848
-0.00959659
-0.0107034
-0.0116415
-0.012465
-0.0130432
-0.0134498
-0.0136294
0.00867931
0.00856329
0.00861905
0.00866039
0.00870064
0.00864176
0.00852332
0.00831571
0.00798751
0.00752528
0.00690345
0.00609816
0.00512178
0.00398022
0.00271585
0.00132801
-0.000139295
-0.00165028
-0.00317102
-0.00468936
-0.00618971
-0.00763006
-0.00903285
-0.0102695
-0.0114
-0.0123577
-0.0132057
-0.0137994
-0.0142188
-0.0144072
0.00853907
0.00842092
0.00847981
0.00851731
0.00855273
0.00848504
0.00835639
0.00813679
0.00779296
0.00731104
0.00666438
0.0058282
0.00481648
0.00363603
0.00233236
0.000902783
-0.000605385
-0.00215564
-0.00371158
-0.00526505
-0.00679925
-0.00827206
-0.00970574
-0.0109665
-0.0121185
-0.0130964
-0.0139647
-0.0145739
-0.0150056
-0.0151999
0.00840909
0.00829003
0.00835255
0.00838651
0.00841741
0.00834044
0.00820062
0.00796776
0.00760607
0.00710234
0.00642861
0.00555904
0.00451013
0.00328847
0.00194643
0.000473545
-0.00107617
-0.00266682
-0.00425767
-0.00584675
-0.00741635
-0.00892235
-0.0103949
-0.0116811
-0.0128569
-0.0138553
-0.0147502
-0.0153763
-0.0158212
-0.0160246
0.00828708
0.00816777
0.00823433
0.00826484
0.0082904
0.00820333
0.00805132
0.00780377
0.00742292
0.00689523
0.00619171
0.00528579
0.00419595
0.00292993
0.00154376
2.41352e-05
-0.00157101
-0.00320435
-0.0048326
-0.00645891
-0.00806451
-0.00960475
-0.0111098
-0.0124204
-0.0136181
-0.0146375
-0.0155546
-0.0161974
-0.0166552
-0.0168648
0.00817936
0.0080599
0.00813117
0.00815866
0.00817922
0.00808159
0.0079163
0.00765262
0.00725005
0.00669593
0.00596007
0.00501494
0.00388205
0.00256895
0.0011399
-0.00042835
-0.00206998
-0.00374737
-0.00541259
-0.00707653
-0.00871969
-0.0102949
-0.0118416
-0.0131779
-0.0143991
-0.0154399
-0.0163864
-0.0170474
-0.0175189
-0.0177379
0.00808102
0.00796221
0.00803881
0.00806366
0.00807865
0.00796972
0.00779008
0.00750864
0.0070828
0.00649976
0.00572842
0.00474069
0.00356049
0.00219678
0.000718147
-0.000902581
-0.00259517
-0.00431892
-0.00602353
-0.00772668
-0.0094079
-0.0110191
-0.0125999
-0.0139608
-0.0152034
-0.0162664
-0.0172375
-0.0179167
-0.0184018
-0.0186271
0.00799936
0.00788198
0.00796469
0.00798767
0.00799749
0.00787684
0.00768164
0.00738074
0.0069287
0.00631389
0.00550419
0.00447059
0.00324065
0.00182319
0.000296524
-0.00137919
-0.0031236
-0.00489512
-0.00663837
-0.00838096
-0.0101021
-0.0117502
-0.0133752
-0.0147615
-0.0160276
-0.0171132
-0.0181168
-0.0188159
-0.0193153
-0.0195507
0.0079277
0.00781329
0.00790333
0.0079251
0.00792948
0.00779644
0.00758454
0.0072623
0.00678226
0.00613275
0.00528111
0.00419777
0.00291335
0.00143818
-0.000144407
-0.00187942
-0.00368083
-0.00550218
-0.00728651
-0.00907019
-0.0108316
-0.0125174
-0.0141779
-0.0155882
-0.0168754
-0.0179846
-0.0190157
-0.0197347
-0.0202484
-0.0204907
0.00787592
0.00776477
0.00786376
0.00788541
0.00788479
0.00773897
0.00750898
0.00716343
0.00665202
0.00596461
0.0050678
0.00393102
0.0025893
0.00105277
-0.000583896
-0.00238134
-0.00423911
-0.00611139
-0.00793555
-0.00976055
-0.0115648
-0.0132891
-0.0149962
-0.0164311
-0.0177433
-0.0188769
-0.0199438
-0.0206844
-0.0212132
-0.0214664
0.0078356
0.00772943
0.00783882
0.00786148
0.00785593
0.00769678
0.00744748
0.00707644
0.0065315
0.00580285
0.00485692
0.00366227
0.002258
0.00065559
-0.00104446
-0.00290886
-0.00482928
-0.00675437
-0.00862131
-0.0104895
-0.0123363
-0.0140998
-0.0158432
-0.0173017
-0.0186349
-0.019794
-0.0208912
-0.0216533
-0.0221971
-0.0224581
0.00781733
0.00771733
0.00783939
0.00786462
0.00785466
0.00768186
0.00741175
0.00701289
0.00643068
0.00565733
0.00465837
0.0034016
0.0019312
0.000258586
-0.00150203
-0.00343667
-0.00541542
-0.00739366
-0.00930137
-0.0112132
-0.0131063
-0.0149097
-0.016702
-0.0181849
-0.0195472
-0.0207333
-0.0218691
-0.022654
-0.0232142
-0.023488
0.0078114
0.00771987
0.00785662
0.00788582
0.00787199
0.0076852
0.00739288
0.00696366
0.00634169
0.00551989
0.00446361
0.00313957
0.00159733
-0.000150642
-0.00198224
-0.00399245
-0.00603731
-0.00807094
-0.0100237
-0.0119815
-0.01392
-0.0157628
-0.0175931
-0.0190984
-0.0204839
-0.0216966
-0.0228652
-0.0236724
-0.024249
-0.0245316
0.00783008
0.0077483
0.00790366
0.00793886
0.00792176
0.00772072
0.00740465
0.00694241
0.00627657
0.00540266
0.00428361
0.00288734
0.00126846
-0.000559682
-0.00245755
-0.0045458
-0.00664585
-0.00873392
-0.0107289
-0.0127336
-0.0147226
-0.0166064
-0.018489
-0.0200191
-0.0214425
-0.0226851
-0.0238936
-0.0247246
-0.0253193
-0.0256168
0.0078623
0.00779302
0.0079692
0.00801239
0.00799294
0.00777755
0.00743607
0.00693793
0.00622524
0.00529492
0.00410876
0.0026344
0.00093307
-0.000980592
-0.00295631
-0.00512949
-0.00729402
-0.00944037
-0.0114842
-0.013539
-0.0155773
-0.0175
-0.0194236
-0.0209746
-0.022427
-0.0236965
-0.0249387
-0.0257917
-0.0264047
-0.0267123
0.00792185
0.00786702
0.00806851
0.00812354
0.00810226
0.00787229
0.00750407
0.00696708
0.00620295
0.0052122
0.00395073
0.00239249
0.000601985
-0.00140211
-0.003453
-0.00570176
-0.00791628
-0.0101157
-0.0122066
-0.0143135
-0.016405
-0.0183744
-0.0203495
-0.0219365
-0.0234346
-0.0247406
-0.0260191
-0.0268971
-0.0275297
-0.0278549
0.00799626
0.00795876
0.00818829
0.00825754
0.00823582
0.00799143
0.00759433
0.0070152
0.00619579
0.00513986
0.00379889
0.00215121
0.000266172
-0.00183444
-0.00397255
-0.00630478
-0.00858086
-0.0108412
-0.0129894
-0.0151528
-0.0172968
-0.0193077
-0.0213252
-0.0229396
-0.0244726
-0.0258066
-0.0271156
-0.0280153
-0.0286684
-0.0290051
0.00810166
0.00808261
0.00834437
0.00843247
0.00841356
0.0081551
0.00772832
0.0071039
0.00622403
0.00509808
0.00366524
0.00192154
-6.7579e-05
-0.00227144
-0.00449059
-0.00688963
-0.00921247
-0.0115295
-0.0137355
-0.0159579
-0.0181587
-0.0202208
-0.0222903
-0.0239532
-0.0255384
-0.0269121
-0.0282514
-0.0291765
-0.0298512
-0.0302078
0.00822277
0.00822545
0.00852178
0.00863141
0.00861801
0.00834615
0.00788673
0.00721317
0.0062678
0.00506662
0.00353863
0.00169498
-0.000403109
-0.00271594
-0.00502584
-0.00750531
-0.00989261
-0.0122812
-0.0145585
-0.0168453
-0.0191021
-0.0212072
-0.0233201
-0.025016
-0.026639
-0.0280392
-0.0294041
-0.0303508
-0.0310488
-0.0314187
0.00837787
0.00840302
0.0087381
0.00887604
0.00887307
0.00858954
0.00809687
0.00737112
0.00635493
0.00507061
0.00343411
0.00147729
-0.000742427
-0.00316793
-0.0055608
-0.00809597
-0.0105366
-0.012993
-0.0153438
-0.0176968
-0.0200116
-0.0221725
-0.024335
-0.0260946
-0.0277715
-0.0292142
-0.0306022
-0.0315754
-0.0322967
-0.0326897
0.00854948
0.00860084
0.00897906
0.0091488
0.00915872
0.00886304
0.00833343
0.00754992
0.00645662
0.00508388
0.00333775
0.00126478
-0.00107893
-0.0036201
-0.00610439
-0.00871687
-0.0112328
-0.0137772
-0.0162152
-0.0186397
-0.0210123
-0.0232179
-0.0254245
-0.0272258
-0.0289433
-0.0304117
-0.0318205
-0.0328156
-0.0335624
-0.0339701
0.00875938
0.00883683
0.009262
0.00947176
0.00949956
0.00919305
0.00862535
0.00778085
0.00660469
0.00513381
0.00326368
0.00105859
-0.00142001
-0.00407654
-0.00664699
-0.00931004
-0.0118992
-0.0145288
-0.0170574
-0.019554
-0.0219838
-0.0242491
-0.0265019
-0.0283819
-0.0301504
-0.031663
-0.0330879
-0.0341103
-0.0348811
-0.0353128
0.00898718
0.00909568
0.00957264
0.00982603
0.00987284
0.00955333
0.00894207
0.0080297
0.00676344
0.00518974
0.00319625
0.000863015
-0.00174734
-0.00452062
-0.00718909
-0.00993499
-0.0126266
-0.0153655
-0.0179976
-0.0205706
-0.023057
-0.0253696
-0.0276626
-0.0295936
-0.0313981
-0.0329362
-0.0343762
-0.0354216
-0.0362186
-0.0366657
0.00925751
0.00939709
0.00992958
0.0102341
0.010305
0.00997337
0.00931647
0.00833355
0.00697153
0.00528384
0.00315345
0.000672207
-0.00207936
-0.00496756
-0.00772917
-0.0105359
-0.0133309
-0.0161768
-0.0189132
-0.0215602
-0.0241021
-0.0264735
-0.0288115
-0.0308297
-0.032682
-0.0342631
-0.0357157
-0.0367886
-0.03761
-0.0380819
0.00954734
0.00972419
0.010319
0.0106779
0.0107737
0.0104264
0.00971759
0.00865539
0.0071896
0.00538433
0.0031185
0.000496498
-0.00239183
-0.0053983
-0.00826661
-0.0111749
-0.0141021
-0.0170774
-0.0199264
-0.02265
-0.0252461
-0.0276632
-0.0300411
-0.0321151
-0.0340019
-0.0356079
-0.0370739
-0.0381707
-0.0390188
-0.0395062
0.00988495
0.0100984
0.0107601
0.0111807
0.0113043
0.0109418
0.0101778
0.00903345
0.00745814
0.00552241
0.00310907
0.000322107
-0.00271164
-0.00583414
-0.00880761
-0.0117975
-0.0148545
-0.0179527
-0.0209106
-0.0237057
-0.0263539
-0.0288275
-0.031252
-0.0334192
-0.035354
-0.0370031
-0.0384818
-0.0396063
-0.0404795
-0.0409913
0.0102437
0.0105011
0.0112373
0.0117232
0.011874
0.0114916
0.0106657
0.00942849
0.00773487
0.00566434
0.00310515
0.000163993
-0.00300925
-0.00625341
-0.00935164
-0.0124679
-0.0156812
-0.0189204
-0.021992
-0.0248599
-0.027558
-0.0300756
-0.0325398
-0.0347662
-0.0367348
-0.0384098
-0.0399023
-0.0410525
-0.0419537
-0.0424816
0.0106543
0.0109554
0.0117709
0.0123284
0.0125083
0.0121059
0.0112143
0.00988116
0.00806216
0.00584326
0.00312428
2.43888e-06
-0.0033195
-0.00668653
-0.00990971
-0.0131287
-0.0164885
-0.0198573
-0.0230354
-0.025969
-0.0287147
-0.0312857
-0.0337993
-0.0361241
-0.0381437
-0.0398626
-0.0413706
-0.0425503
-0.0434791
-0.0440333
0.0110868
0.0114402
0.0123433
0.0129759
0.0131853
0.0127588
0.0117941
0.0103525
0.0083974
0.00602523
0.00314524
-0.000145016
-0.00361241
-0.00711252
-0.010481
-0.0138451
-0.0173716
-0.0208837
-0.0241702
-0.0271703
-0.029961
-0.0325734
-0.0351287
-0.0375167
-0.0395737
-0.0413211
-0.0428468
-0.044056
-0.0450168
-0.0455894
0.0115753
0.0119796
0.0129759
0.0136897
0.013931
0.0134806
0.0124385
0.0108843
0.00878404
0.00624365
0.00318535
-0.000303011
-0.0039289
-0.0075661
-0.0110767
-0.0145544
-0.0182302
-0.0218699
-0.0252556
-0.0283141
-0.0311476
-0.0338107
-0.0364204
-0.0389136
-0.041028
-0.0428234
-0.0443707
-0.045614
-0.0466076
-0.0472093
0.0120853
0.0125503
0.0136485
0.0144476
0.0147221
0.014244
0.0131162
0.0114345
0.00917609
0.00646063
0.00322188
-0.000451569
-0.00423423
-0.00801936
-0.0116912
-0.0153226
-0.0191653
-0.0229443
-0.0264311
-0.0295491
-0.0324229
-0.0351257
-0.0377799
-0.0403417
-0.0424989
-0.0443284
-0.0459002
-0.0471797
-0.0482115
-0.0488355
0.0126537
0.0131778
0.0143839
0.0152751
0.015586
0.0150797
0.0138609
0.0120465
0.00961876
0.00671206
0.003274
-0.000617232
-0.00457126
-0.00850769
-0.0123326
-0.0160779
-0.0200656
-0.0239669
-0.0275455
-0.0307148
-0.0336274
-0.0363795
-0.0390942
-0.0417716
-0.0439955
-0.0458798
-0.0474821
-0.0488026
-0.0498736
-0.0505314
0.0132421
0.0138364
0.0151607
0.016149
0.0164979
0.0159591
0.0146398
0.0126756
0.0100641
0.00695848
0.00331891
-0.000775787
-0.0048992