/*--------------------------------*- C++ -*----------------------------------*\
  =========                 |
  \\      /  F ield         | OpenFOAM: The Open Source CFD Toolbox
   \\    /   O peration     | Website:  https://openfoam.org
    \\  /    A nd           | Version:  6.0
     \\/     M anipulation  |
\*---------------------------------------------------------------------------*/
FoamFile
{
    version     2.0;
    format      ascii;
    class       volScalarField;
    location    "20";
    object      p;
}
// * * * * * * * * * * * * * * * * * * * * * * * * * * * * * * * * * * * * * //

dimensions      [0 2 -2 0 0 0 0];

internalField   nonuniform List<scalar> 
47000
(
1.00578
1.00559
1.0054
1.00527
1.00525
1.00538
1.00562
1.00594
1.00622
1.00641
1.00644
1.00635
1.00609
1.00576
1.00535
1.00491
1.00446
1.00403
1.0036
1.00321
1.00285
1.00253
1.00223
1.00196
1.00171
1.00148
1.00128
1.00103
1.00131
1.00257
1.00578
1.00559
1.0054
1.00527
1.00524
1.00537
1.00563
1.00599
1.00633
1.00661
1.00673
1.00672
1.00654
1.00627
1.0059
1.00549
1.00504
1.00459
1.00414
1.00371
1.0033
1.00292
1.00257
1.00224
1.00193
1.00164
1.00141
1.00118
1.00159
1.00241
1.00579
1.00558
1.00536
1.00516
1.00506
1.00511
1.00529
1.00558
1.00587
1.00612
1.00622
1.00622
1.00605
1.00578
1.00541
1.00501
1.00455
1.00409
1.00361
1.00316
1.00272
1.00232
1.00193
1.00159
1.00127
1.00099
1.00079
1.00066
1.00108
1.00183
1.0058
1.00558
1.00532
1.00507
1.00489
1.00485
1.00493
1.00514
1.00537
1.00557
1.00567
1.00566
1.0055
1.00526
1.00492
1.00454
1.0041
1.00367
1.00321
1.00278
1.00235
1.00195
1.00157
1.00122
1.00091
1.00065
1.00049
1.00041
1.0008
1.00151
1.00581
1.00559
1.00531
1.00501
1.00476
1.00464
1.00464
1.00476
1.00492
1.00508
1.00515
1.00513
1.00498
1.00475
1.00442
1.00406
1.00365
1.00324
1.00281
1.0024
1.00198
1.00159
1.00122
1.00089
1.00058
1.00033
1.00017
1.00011
1.00043
1.00099
1.00582
1.00561
1.00531
1.00498
1.00467
1.00447
1.00438
1.00442
1.00451
1.00461
1.00464
1.00459
1.00442
1.00417
1.00383
1.00346
1.00305
1.00264
1.00221
1.00181
1.00141
1.00104
1.00069
1.00038
1.0001
0.999881
0.999755
0.99974
1.00003
1.0005
1.00585
1.00564
1.00534
1.00499
1.00464
1.00437
1.00421
1.00418
1.0042
1.00425
1.00424
1.00416
1.00397
1.0037
1.00334
1.00295
1.00252
1.0021
1.00166
1.00126
1.00087
1.00052
1.00019
0.999902
0.999663
0.999485
0.999402
0.999433
0.999704
1.00009
1.00588
1.00569
1.00541
1.00505
1.00468
1.00437
1.00416
1.00408
1.00405
1.00407
1.00405
1.00397
1.00377
1.00351
1.00314
1.00275
1.0023
1.00186
1.00141
1.00099
1.00059
1.00023
0.999905
0.999628
0.999404
0.999245
0.999178
0.999221
0.999451
0.999748
1.00592
1.00576
1.0055
1.00514
1.00477
1.00444
1.00419
1.00406
1.00401
1.004
1.00397
1.0039
1.00372
1.00347
1.00312
1.00272
1.00226
1.00181
1.00133
1.00089
1.00046
1.00008
0.999735
0.999444
0.99921
0.999047
0.998974
0.999013
0.999199
0.999419
1.00597
1.00584
1.0056
1.00526
1.00488
1.00452
1.00423
1.00405
1.00394
1.0039
1.00385
1.00377
1.0036
1.00337
1.00303
1.00264
1.00219
1.00172
1.00123
1.00077
1.00032
0.999914
0.999551
0.999248
0.999009
0.998848
0.998781
0.998827
0.998994
0.999179
1.00604
1.00593
1.00571
1.00538
1.00498
1.00458
1.00424
1.00398
1.0038
1.00369
1.00358
1.00348
1.0033
1.00306
1.00273
1.00236
1.00191
1.00145
1.00097
1.0005
1.00006
0.999658
0.999302
0.999014
0.998795
0.998661
0.99862
0.998689
0.998854
0.999014
1.00612
1.00602
1.00583
1.0055
1.00509
1.00465
1.00424
1.0039
1.00362
1.00342
1.00324
1.00308
1.00286
1.00262
1.00229
1.00193
1.00151
1.00108
1.00062
1.00019
0.999775
0.999409
0.999091
0.998842
0.998665
0.998571
0.998561
0.998647
0.998803
0.998934
1.0062
1.00613
1.00596
1.00565
1.00523
1.00476
1.00429
1.00388
1.00351
1.00322
1.00295
1.00272
1.00247
1.0022
1.00188
1.00153
1.00114
1.00074
1.00033
0.999947
0.999579
0.999261
0.99899
0.998786
0.998648
0.998583
0.998587
0.998665
0.998788
0.998863
1.0063
1.00625
1.00612
1.00584
1.00544
1.00497
1.00448
1.00401
1.00358
1.00321
1.00288
1.00259
1.00229
1.002
1.00167
1.00134
1.00097
1.00061
1.00024
0.999897
0.999572
0.999294
0.999058
0.99888
0.998757
0.998693
0.998679
0.998719
0.998784
0.998792
1.0064
1.00639
1.00631
1.00608
1.00572
1.00529
1.00481
1.00434
1.00388
1.00347
1.00309
1.00275
1.00241
1.00209
1.00175
1.00142
1.00107
1.00072
1.00037
1.00005
0.999746
0.999482
0.99925
0.999065
0.998924
0.998828
0.998766
0.998743
0.998737
0.998666
1.0065
1.00654
1.00652
1.00637
1.00609
1.00573
1.0053
1.00486
1.00441
1.00399
1.00359
1.00322
1.00285
1.0025
1.00214
1.00179
1.00142
1.00107
1.00072
1.00038
1.00006
0.999779
0.999519
0.999296
0.999106
0.998951
0.998822
0.998726
0.998645
0.998505
1.00661
1.0067
1.00675
1.00669
1.00651
1.00624
1.0059
1.00552
1.00511
1.00471
1.0043
1.00391
1.00351
1.00313
1.00273
1.00235
1.00195
1.00156
1.00117
1.00079
1.00043
1.00009
0.999776
0.99949
0.999232
0.999004
0.998803
0.998635
0.998487
0.998287
1.00672
1.00686
1.00699
1.00702
1.00694
1.00678
1.00654
1.00624
1.00589
1.00552
1.00512
1.00472
1.0043
1.00388
1.00343
1.003
1.00255
1.0021
1.00165
1.00121
1.00078
1.00037
0.999983
0.999622
0.999289
0.998989
0.998719
0.99849
0.998288
0.998047
1.00683
1.00703
1.00723
1.00735
1.00737
1.00731
1.00716
1.00695
1.00666
1.00633
1.00594
1.00553
1.00508
1.00462
1.00413
1.00363
1.00311
1.0026
1.00207
1.00156
1.00105
1.00056
1.00009
0.999655
0.999251
0.998886
0.99856
0.998283
0.998042
0.997773
1.00695
1.00719
1.00745
1.00765
1.00775
1.00778
1.00772
1.00758
1.00735
1.00706
1.00668
1.00627
1.00579
1.00529
1.00474
1.00418
1.00359
1.003
1.00239
1.0018
1.00121
1.00065
1.00011
0.999605
0.999141
0.998724
0.998356
0.998045
0.997779
0.997499
1.00707
1.00735
1.00766
1.00791
1.00808
1.00818
1.00818
1.0081
1.00791
1.00765
1.00728
1.00686
1.00635
1.00581
1.00521
1.00458
1.00392
1.00326
1.00258
1.00192
1.00126
1.00063
1.00003
0.99947
0.998959
0.998503
0.998105
0.997774
0.997493
0.99721
1.0072
1.0075
1.00784
1.00813
1.00835
1.00849
1.00854
1.00849
1.00834
1.00809
1.00773
1.00729
1.00676
1.00618
1.00553
1.00485
1.00413
1.0034
1.00266
1.00193
1.00122
1.00053
0.999884
0.999283
0.998738
0.998255
0.997839
0.997496
0.99721
0.996933
1.00732
1.00764
1.00801
1.00832
1.00855
1.00872
1.00879
1.00876
1.00862
1.00838
1.00801
1.00756
1.00701
1.00639
1.0057
1.00497
1.0042
1.00342
1.00263
1.00186
1.00109
1.00037
0.99968
0.999049
0.998481
0.99798
0.997552
0.997204
0.996917
0.996649
1.00745
1.00778
1.00815
1.00847
1.00871
1.00888
1.00895
1.00893
1.00879
1.00854
1.00817
1.0077
1.00713
1.00648
1.00576
1.00499
1.00418
1.00337
1.00253
1.00172
1.00092
1.00017
0.999453
0.9988
0.998215
0.997703
0.997268
0.996918
0.996633
0.99638
1.00758
1.00792
1.00828
1.00859
1.00882
1.00898
1.00904
1.00901
1.00886
1.00861
1.00822
1.00774
1.00714
1.00647
1.00572
1.00493
1.00409
1.00324
1.00238
1.00154
1.00071
0.999934
0.999202
0.998533
0.997936
0.997415
0.996976
0.996625
0.996344
0.996103
1.00771
1.00805
1.00841
1.0087
1.00891
1.00905
1.00909
1.00904
1.00888
1.00861
1.00821
1.00771
1.0071
1.00641
1.00564
1.00482
1.00396
1.00309
1.0022
1.00134
1.0005
0.999701
0.998954
0.998273
0.997665
0.997137
0.996694
0.996341
0.996064
0.995838
1.00785
1.00818
1.00853
1.0088
1.00899
1.00909
1.00911
1.00904
1.00886
1.00857
1.00815
1.00764
1.00701
1.00631
1.00552
1.00469
1.00381
1.00292
1.00201
1.00113
1.00027
0.999462
0.998701
0.998008
0.997391
0.996854
0.996405
0.996051
0.995776
0.995561
1.00799
1.00832
1.00865
1.0089
1.00906
1.00914
1.00913
1.00903
1.00883
1.00852
1.00809
1.00756
1.00692
1.0062
1.0054
1.00456
1.00366
1.00276
1.00184
1.00094
1.00006
0.999237
0.998462
0.997756
0.997127
0.99658
0.996125
0.995767
0.995494
0.995292
1.00813
1.00846
1.00877
1.009
1.00914
1.00919
1.00915
1.00903
1.0088
1.00848
1.00803
1.00749
1.00683
1.0061
1.00529
1.00443
1.00352
1.0026
1.00166
1.00075
0.999857
0.999014
0.998223
0.997502
0.99686
0.996302
0.995837
0.995474
0.995201
0.995008
1.00827
1.0086
1.00891
1.00911
1.00922
1.00925
1.00919
1.00905
1.0088
1.00846
1.008
1.00744
1.00677
1.00603
1.0052
1.00433
1.0034
1.00246
1.00151
1.00058
0.999669
0.998806
0.997998
0.997259
0.996602
0.99603
0.995555
0.995185
0.994911
0.994727
1.00842
1.00875
1.00904
1.00924
1.00933
1.00933
1.00925
1.00909
1.00882
1.00846
1.00798
1.00741
1.00673
1.00598
1.00513
1.00424
1.0033
1.00234
1.00137
1.00042
0.999484
0.9986
0.997771
0.997013
0.996337
0.995749
0.995262
0.994884
0.994608
0.994428
1.00858
1.00891
1.00919
1.00937
1.00945
1.00943
1.00934
1.00915
1.00887
1.0085
1.00801
1.00742
1.00673
1.00595
1.00509
1.00418
1.00322
1.00224
1.00125
1.00027
0.999314
0.998406
0.997554
0.996774
0.996078
0.995472
0.994971
0.994584
0.994304
0.99413
1.00873
1.00907
1.00934
1.00951
1.00958
1.00955
1.00944
1.00924
1.00895
1.00856
1.00805
1.00745
1.00674
1.00595
1.00507
1.00414
1.00315
1.00215
1.00113
1.00013
0.999144
0.99821
0.997332
0.996527
0.995809
0.995184
0.994668
0.99427
0.993985
0.993812
1.0089
1.00924
1.00951
1.00967
1.00973
1.00969
1.00957
1.00936
1.00906
1.00865
1.00813
1.00752
1.00679
1.00598
1.00507
1.00412
1.00311
1.00208
1.00103
0.999996
0.998984
0.998021
0.997115
0.996284
0.995543
0.994897
0.994365
0.993955
0.993664
0.993493
1.00907
1.00941
1.00968
1.00984
1.00989
1.00985
1.00972
1.0095
1.00918
1.00876
1.00823
1.0076
1.00685
1.00602
1.00509
1.00411
1.00307
1.00201
1.00093
0.999864
0.99882
0.997826
0.99689
0.996031
0.995265
0.994597
0.994048
0.993626
0.993327
0.993155
1.00924
1.00959
1.00986
1.01002
1.01007
1.01003
1.00989
1.00966
1.00933
1.0089
1.00835
1.0077
1.00693
1.00608
1.00513
1.00412
1.00305
1.00195
1.00084
0.99974
0.998662
0.997635
0.996668
0.99578
0.994987
0.994297
0.993729
0.993294
0.992987
0.992813
1.00942
1.00978
1.01005
1.01021
1.01026
1.01021
1.01007
1.00984
1.0095
1.00905
1.00849
1.00782
1.00703
1.00615
1.00517
1.00413
1.00302
1.00189
1.00074
0.999611
0.998497
0.997435
0.996435
0.995517
0.994697
0.993984
0.993397
0.992947
0.992631
0.992452
1.0096
1.00997
1.01024
1.01041
1.01046
1.01041
1.01027
1.01003
1.00968
1.00922
1.00864
1.00795
1.00714
1.00623
1.00522
1.00415
1.00301
1.00184
1.00066
0.999486
0.998335
0.997238
0.996204
0.995254
0.994406
0.993669
0.993062
0.992597
0.992271
0.992087
1.00978
1.01016
1.01044
1.01061
1.01066
1.01061
1.01047
1.01023
1.00987
1.0094
1.0088
1.00809
1.00725
1.00632
1.00528
1.00417
1.00299
1.00179
1.00056
0.999354
0.998165
0.99703
0.995962
0.99498
0.994103
0.99334
0.992713
0.992233
0.991894
0.991704
1.00998
1.01036
1.01064
1.01082
1.01088
1.01083
1.01069
1.01044
1.01007
1.00959
1.00898
1.00824
1.00738
1.00641
1.00534
1.0042
1.00298
1.00174
1.00048
0.999225
0.997997
0.996824
0.99572
0.994705
0.993798
0.993009
0.992361
0.991864
0.991513
0.991316
1.01017
1.01056
1.01085
1.01103
1.01109
1.01105
1.01091
1.01065
1.01028
1.00978
1.00915
1.0084
1.00751
1.00651
1.0054
1.00422
1.00297
1.00169
1.00038
0.999089
0.99782
0.996608
0.995466
0.994417
0.99348
0.992665
0.991995
0.991481
0.991117
0.990909
1.01037
1.01077
1.01106
1.01125
1.01132
1.01128
1.01113
1.01087
1.01049
1.00998
1.00934
1.00856
1.00764
1.00661
1.00547
1.00426
1.00296
1.00164
1.00029
0.998954
0.997644
0.996392
0.995213
0.994129
0.993161
0.992319
0.991626
0.991094
0.990715
0.990498
1.01057
1.01098
1.01127
1.01147
1.01154
1.01151
1.01136
1.0111
1.01071
1.01019
1.00952
1.00872
1.00778
1.00672
1.00554
1.00428
1.00295
1.00158
1.00019
0.998812
0.997459
0.996166
0.994949
0.993829
0.992829
0.991959
0.991243
0.990691
0.990297
0.990069
1.01078
1.01119
1.0115
1.01169
1.01178
1.01174
1.0116
1.01133
1.01093
1.0104
1.00971
1.00889
1.00792
1.00683
1.00561
1.00432
1.00294
1.00153
1.00009
0.998671
0.997275
0.99594
0.994683
0.993528
0.992495
0.991596
0.990856
0.990285
0.989874
0.989634
1.01099
1.01141
1.01172
1.01192
1.01201
1.01198
1.01184
1.01156
1.01116
1.01061
1.00991
1.00906
1.00806
1.00693
1.00568
1.00435
1.00293
1.00147
0.999991
0.998523
0.997082
0.995705
0.994408
0.993215
0.992149
0.99122
0.990455
0.989863
0.989436
0.989182
1.0112
1.01163
1.01194
1.01216
1.01225
1.01222
1.01208
1.0118
1.01139
1.01083
1.01011
1.00924
1.00821
1.00705
1.00576
1.00438
1.00292
1.00142
0.99989
0.998376
0.99689
0.995469
0.994131
0.9929
0.9918
0.990841
0.990049
0.989436
0.988991
0.988725
1.01141
1.01185
1.01217
1.01239
1.01249
1.01247
1.01233
1.01205
1.01162
1.01105
1.01031
1.00941
1.00835
1.00716
1.00583
1.00441
1.00291
1.00136
0.999783
0.998222
0.996689
0.995224
0.993844
0.992574
0.991438
0.990448
0.98963
0.988995
0.988531
0.988249
1.01163
1.01207
1.0124
1.01263
1.01274
1.01272
1.01258
1.01229
1.01186
1.01127
1.01051
1.00959
1.00851
1.00728
1.00591
1.00445
1.0029
1.0013
0.999678
0.998069
0.996489
0.994978
0.993555
0.992246
0.991074
0.990052
0.989206
0.988548
0.988064
0.987768
1.01185
1.0123
1.01264
1.01287
1.01299
1.01297
1.01283
1.01254
1.0121
1.0115
1.01072
1.00978
1.00866
1.0074
1.00599
1.00448
1.00288
1.00124
0.999567
0.997908
0.99628
0.994723
0.993256
0.991906
0.990697
0.989642
0.988768
0.988086
0.987582
0.98727
1.01208
1.01253
1.01288
1.01311
1.01324
1.01323
1.01309
1.0128
1.01235
1.01173
1.01094
1.00997
1.00882
1.00752
1.00607
1.00452
1.00288
1.00118
0.999458
0.997749
0.996072
0.994467
0.992956
0.991564
0.990317
0.989228
0.988325
0.987618
0.987092
0.986765
1.0123
1.01276
1.01311
1.01336
1.01349
1.01348
1.01335
1.01305
1.01259
1.01196
1.01115
1.01015
1.00897
1.00764
1.00615
1.00456
1.00286
1.00112
0.999343
0.997583
0.995855
0.994202
0.992645
0.99121
0.989925
0.988801
0.987867
0.987135
0.986587
0.986242
1.01254
1.01299
1.01336
1.01361
1.01375
1.01375
1.01361
1.01331
1.01285
1.0122
1.01137
1.01035
1.00914
1.00777
1.00624
1.0046
1.00285
1.00106
0.99923
0.997417
0.995638
0.993935
0.992331
0.990854
0.989528
0.988369
0.987403
0.986644
0.986074
0.985712
1.01277
1.01323
1.0136
1.01386
1.01401
1.01401
1.01388
1.01357
1.0131
1.01244
1.01159
1.01055
1.0093
1.00789
1.00632
1.00463
1.00284
1.00099
0.999111
0.997245
0.995412
0.993659
0.992007
0.990485
0.989118
0.987923
0.986926
0.986139
0.985546
0.985165
1.013
1.01347
1.01385
1.01412
1.01427
1.01428
1.01415
1.01384
1.01336
1.01269
1.01182
1.01075
1.00947
1.00803
1.00641
1.00468
1.00283
1.00093
0.998993
0.997072
0.995186
0.993381
0.991681
0.990113
0.988704
0.987471
0.986441
0.985626
0.985008
0.984609
1.01324
1.01371
1.0141
1.01437
1.01454
1.01455
1.01442
1.01411
1.01362
1.01294
1.01205
1.01095
1.00964
1.00816
1.0065
1.00471
1.00282
1.00086
0.998869
0.996892
0.994951
0.993094
0.991343
0.989729
0.988277
0.987006
0.985941
0.985097
0.984454
0.984036
1.01348
1.01395
1.01435
1.01463
1.0148
1.01482
1.01469
1.01438
1.01389
1.01319
1.01228
1.01116
1.00982
1.0083
1.00659
1.00476
1.00281
1.0008
0.998746
0.996712
0.994715
0.992804
0.991002
0.98934
0.987845
0.986534
0.985434
0.98456
0.98389
0.983453
1.01372
1.0142
1.0146
1.01489
1.01507
1.0151
1.01497
1.01466
1.01416
1.01345
1.01252
1.01137
1.01
1.00843
1.00668
1.0048
1.00279
1.00073
0.998616
0.996524
0.99447
0.992504
0.99065
0.988939
0.9874
0.986048
0.984912
0.984007
0.983311
0.982852
1.01396
1.01444
1.01485
1.01515
1.01534
1.01537
1.01525
1.01494
1.01443
1.01371
1.01276
1.01159
1.01018
1.00857
1.00678
1.00484
1.00278
1.00066
0.998487
0.996336
0.994223
0.992201
0.990294
0.988534
0.986948
0.985555
0.984382
0.983445
0.98272
0.98224
1.0142
1.01469
1.01511
1.01542
1.01561
1.01565
1.01553
1.01522
1.0147
1.01397
1.013
1.0118
1.01036
1.00872
1.00687
1.00488
1.00277
1.00058
0.998351
0.996139
0.993967
0.991887
0.989926
0.988116
0.986483
0.985048
0.983837
0.982867
0.982113
0.98161
1.01445
1.01493
1.01536
1.01568
1.01589
1.01593
1.01582
1.0155
1.01498
1.01424
1.01325
1.01202
1.01055
1.00886
1.00697
1.00493
1.00275
1.00051
0.998215
0.995941
0.993708
0.99157
0.989554
0.987691
0.986011
0.984532
0.983282
0.982278
0.981494
0.980967
1.01469
1.01518
1.01561
1.01594
1.01616
1.01621
1.0161
1.01579
1.01526
1.01451
1.0135
1.01225
1.01074
1.00901
1.00707
1.00497
1.00273
1.00043
0.998072
0.995734
0.993439
0.991242
0.989169
0.987255
0.985526
0.984003
0.982713
0.981674
0.980858
0.980306
1.01494
1.01543
1.01586
1.0162
1.01643
1.01649
1.01639
1.01608
1.01555
1.01478
1.01376
1.01247
1.01093
1.00916
1.00717
1.00501
1.00272
1.00035
0.997927
0.995525
0.993167
0.990909
0.988779
0.986811
0.985033
0.983464
0.982133
0.981058
0.980209
0.97963
1.01519
1.01567
1.01611
1.01646
1.0167
1.01677
1.01668
1.01636
1.01583
1.01505
1.01401
1.0127
1.01112
1.0093
1.00726
1.00505
1.0027
1.00026
0.997775
0.995307
0.992884
0.990565
0.988377
0.986355
0.984526
0.982911
0.981539
0.980426
0.979544
0.978937
1.01543
1.01591
1.01636
1.01672
1.01697
1.01705
1.01697
1.01666
1.01612
1.01533
1.01427
1.01293
1.01132
1.00946
1.00736
1.0051
1.00267
1.00017
0.99762
0.995086
0.992597
0.990216
0.987969
0.985891
0.984011
0.982349
0.980933
0.979782
0.978864
0.978229
1.01568
1.01615
1.0166
1.01697
1.01724
1.01733
1.01725
1.01695
1.01641
1.0156
1.01453
1.01316
1.01151
1.0096
1.00746
1.00513
1.00265
1.00008
0.997458
0.994855
0.9923
0.989855
0.987548
0.985414
0.983482
0.981772
0.980312
0.979121
0.978168
0.977503
1.01592
1.01639
1.01685
1.01722
1.01751
1.01761
1.01754
1.01724
1.0167
1.01589
1.01479
1.0134
1.01171
1.00976
1.00756
1.00517
1.00262
0.999985
0.997292
0.994619
0.991996
0.989487
0.98712
0.984929
0.982944
0.981184
0.979679
0.978448
0.977457
0.976761
1.01617
1.01662
1.01709
1.01747
1.01777
1.01789
1.01783
1.01753
1.01699
1.01616
1.01505
1.01363
1.0119
1.00991
1.00765
1.0052
1.00259
0.999882
0.997117
0.994374
0.991682
0.989108
0.986678
0.98443
0.982391
0.980582
0.979031
0.977759
0.97673
0.976002
1.01641
1.01686
1.01732
1.01772
1.01803
1.01816
1.01811
1.01782
1.01728
1.01645
1.01531
1.01386
1.0121
1.01006
1.00774
1.00524
1.00255
0.999775
0.996938
0.994123
0.991362
0.988721
0.986229
0.983923
0.981829
0.979969
0.97837
0.977055
0.975987
0.975226
1.01665
1.01709
1.01756
1.01797
1.01829
1.01844
1.0184
1.01811
1.01757
1.01673
1.01557
1.0141
1.01229
1.0102
1.00783
1.00526
1.00251
0.99966
0.996749
0.993862
0.991029
0.988322
0.985767
0.983401
0.981252
0.979341
0.977695
0.976336
0.975227
0.974432
1.0169
1.01732
1.01779
1.01821
1.01855
1.01871
1.01869
1.01841
1.01786
1.01701
1.01584
1.01433
1.01249
1.01035
1.00792
1.00529
1.00246
0.999541
0.996555
0.993593
0.990689
0.987914
0.985295
0.98287
0.980664
0.978701
0.977006
0.975602
0.974451
0.973621
1.01714
1.01755
1.01802
1.01845
1.01881
1.01899
1.01897
1.0187
1.01815
1.01729
1.0161
1.01456
1.01268
1.01049
1.00801
1.0053
1.00241
0.999412
0.99635
0.993314
0.990338
0.987494
0.98481
0.982325
0.980062
0.978046
0.976301
0.974852
0.973658
0.972791
1.01738
1.01778
1.01826
1.0187
1.01907
1.01926
1.01926
1.01899
1.01844
1.01757
1.01636
1.0148
1.01287
1.01063
1.00809
1.00532
1.00235
0.999277
0.996139
0.993027
0.989977
0.987064
0.984315
0.981769
0.979449
0.977379
0.975583
0.974087
0.972849
0.971945
1.01763
1.01801
1.01849
1.01894
1.01933
1.01954
1.01954
1.01928
1.01873
1.01785
1.01662
1.01502
1.01306
1.01077
1.00816
1.00532
1.00228
0.999133
0.995916
0.992728
0.989604
0.986621
0.983806
0.981199
0.978821
0.976697
0.97485
0.973306
0.972023
0.97108
1.01788
1.01825
1.01873
1.01919
1.01959
1.01981
1.01983
1.01957
1.01902
1.01813
1.01688
1.01525
1.01324
1.0109
1.00823
1.00532
1.0022
0.99898
0.995685
0.99242
0.989221
0.986167
0.983287
0.980617
0.978182
0.976002
0.974103
0.97251
0.971181
0.970199
1.01813
1.01849
1.01897
1.01944
1.01985
1.02009
1.02012
1.01986
1.01931
1.0184
1.01713
1.01547
1.01342
1.01102
1.00829
1.00531
1.00212
0.998817
0.995443
0.9921
0.988826
0.9857
0.982753
0.980021
0.977527
0.975292
0.97334
0.971697
0.970322
0.969299
1.01838
1.01873
1.01921
1.01969
1.02012
1.02037
1.02041
1.02016
1.0196
1.01868
1.01738
1.01569
1.0136
1.01114
1.00835
1.0053
1.00203
0.998645
0.995191
0.991769
0.988419
0.985222
0.982207
0.979413
0.976859
0.974569
0.972562
0.970869
0.969447
0.968382
1.01864
1.01897
1.01946
1.01995
1.02039
1.02064
1.02069
1.02044
1.01988
1.01895
1.01763
1.01591
1.01377
1.01126
1.00839
1.00527
1.00192
0.998461
0.994926
0.991426
0.987999
0.98473
0.981647
0.978789
0.976177
0.97383
0.97177
0.970026
0.968556
0.967449
1.0189
1.01922
1.01971
1.02021
1.02066
1.02093
1.02098
1.02073
1.02016
1.01922
1.01788
1.01612
1.01393
1.01136
1.00843
1.00524
1.00181
0.998267
0.994651
0.991071
0.987567
0.984225
0.981074
0.978153
0.975481
0.973077
0.970962
0.969167
0.967649
0.9665
1.01917
1.01947
1.01997
1.02047
1.02093
1.02121
1.02126
1.02102
1.02044
1.01948
1.01811
1.01632
1.01408
1.01146
1.00846
1.00519
1.00168
0.99806
0.994362
0.990703
0.987121
0.983705
0.980486
0.977502
0.974769
0.972309
0.97014
0.968294
0.966727
0.965536
1.01944
1.01973
1.02023
1.02074
1.02121
1.02149
1.02155
1.02131
1.02072
1.01974
1.01835
1.01651
1.01423
1.01155
1.00848
1.00514
1.00155
0.997841
0.994061
0.990322
0.986662
0.983172
0.979884
0.976836
0.974044
0.971526
0.969303
0.967405
0.965791
0.964558
1.01971
1.01999
1.02049
1.02101
1.02148
1.02177
1.02184
1.02159
1.02099
1.02
1.01857
1.0167
1.01437
1.01162
1.00849
1.00507
1.0014
0.997608
0.993746
0.989927
0.986189
0.982624
0.979267
0.976155
0.973302
0.970728
0.968451
0.966503
0.964841
0.963567
1.01999
1.02025
1.02075
1.02128
1.02176
1.02206
1.02212
1.02187
1.02126
1.02025
1.0188
1.01688
1.0145
1.01169
1.00849
1.00499
1.00123
0.997361
0.993417
0.989518
0.985701
0.982062
0.978635
0.975459
0.972546
0.969916
0.967585
0.965586
0.963877
0.962563
1.02027
1.02052
1.02102
1.02155
1.02204
1.02234
1.02241
1.02215
1.02153
1.02049
1.01901
1.01705
1.01462
1.01175
1.00847
1.00489
1.00106
0.9971
0.993073
0.989093
0.985198
0.981484
0.977988
0.974747
0.971773
0.969087
0.966704
0.964656
0.9629
0.961547
1.02055
1.02079
1.02129
1.02183
1.02232
1.02262
1.02269
1.02242
1.02179
1.02073
1.01922
1.01722
1.01472
1.01179
1.00844
1.00479
1.00086
0.996823
0.992713
0.988653
0.98468
0.980891
0.977325
0.974019
0.970986
0.968244
0.965809
0.963711
0.961908
0.960516
1.02084
1.02106
1.02156
1.0221
1.0226
1.02291
1.02297
1.02269
1.02205
1.02097
1.01941
1.01737
1.01482
1.01183
1.0084
1.00466
1.00066
0.996531
0.992338
0.988197
0.984146
0.980283
0.976647
0.973277
0.970182
0.967385
0.964897
0.96275
0.960901
0.959471
1.02113
1.02133
1.02183
1.02238
1.02289
1.02319
1.02325
1.02296
1.0223
1.02119
1.0196
1.01751
1.01491
1.01184
1.00835
1.00453
1.00043
0.996222
0.991945
0.987725
0.983596
0.979659
0.975954
0.972518
0.969362
0.966508
0.963967
0.96177
0.959875
0.958406
1.02142
1.0216
1.0221
1.02266
1.02317
1.02347
1.02352
1.02323
1.02254
1.02141
1.01979
1.01765
1.01498
1.01185
1.00827
1.00437
1.00019
0.995895
0.991535
0.987236
0.983031
0.97902
0.975246
0.971744
0.968527
0.965614
0.963019
0.960771
0.958829
0.957322
1.02172
1.02188
1.02238
1.02293
1.02344
1.02375
1.02379
1.02349
1.02279
1.02162
1.01996
1.01777
1.01504
1.01184
1.00819
1.0042
0.999938
0.995551
0.991107
0.986728
0.982448
0.978364
0.97452
0.970952
0.967671
0.964699
0.962048
0.959748
0.957758
0.956212
1.02201
1.02215
1.02264
1.02321
1.02372
1.02402
1.02407
1.02375
1.02302
1.02183
1.02012
1.01788
1.01509
1.01181
1.00808
1.00402
0.999665
0.99519
0.990662
0.986203
0.981848
0.977692
0.973779
0.970143
0.966798
0.963763
0.961054
0.958701
0.956662
0.955075
1.02231
1.02242
1.02291
1.02348
1.024
1.0243
1.02433
1.024
1.02325
1.02203
1.02028
1.01798
1.01512
1.01177
1.00796
1.00381
0.999373
0.994809
0.990197
0.985658
0.981228
0.977
0.973016
0.969312
0.9659
0.9628
0.960032
0.957623
0.955535
0.953907
1.02261
1.02269
1.02318
1.02375
1.02427
1.02457
1.0246
1.02425
1.02348
1.02222
1.02043
1.01807
1.01514
1.01172
1.00783
1.00359
0.999064
0.994411
0.989713
0.985093
0.980589
0.976287
0.972234
0.96846
0.964979
0.961813
0.958982
0.956517
0.95438
0.952711
1.02291
1.02296
1.02345
1.02402
1.02455
1.02485
1.02486
1.0245
1.0237
1.02241
1.02056
1.01815
1.01515
1.01164
1.00767
1.00335
0.998735
0.993992
0.989208
0.984505
0.979924
0.97555
0.971425
0.967579
0.964028
0.960793
0.957898
0.955377
0.95319
0.95148
1.02322
1.02324
1.02371
1.02429
1.02482
1.02512
1.02513
1.02474
1.02392
1.02259
1.02069
1.01822
1.01514
1.01156
1.0075
1.00309
0.998388
0.993554
0.988683
0.983895
0.979237
0.974787
0.97059
0.966672
0.963049
0.959744
0.956786
0.954208
0.951973
0.950223
1.02353
1.02351
1.02398
1.02456
1.0251
1.02539
1.02539
1.02498
1.02413
1.02276
1.02081
1.01827
1.01512
1.01145
1.0073
1.00281
0.998017
0.993093
0.988132
0.983258
0.97852
0.973993
0.969721
0.96573
0.962034
0.95866
0.955638
0.953005
0.950722
0.948933
1.02384
1.02378
1.02425
1.02483
1.02538
1.02567
1.02565
1.02523
1.02434
1.02292
1.02092
1.01831
1.01508
1.01133
1.00709
1.00251
0.997627
0.992611
0.98756
0.982596
0.977775
0.97317
0.968823
0.964756
0.960989
0.957545
0.954461
0.951775
0.949446
0.947621
1.02415
1.02406
1.02451
1.02511
1.02566
1.02594
1.02591
1.02547
1.02455
1.02308
1.02103
1.01835
1.01503
1.01119
1.00686
1.00218
0.997211
0.992102
0.986957
0.981902
0.976997
0.972311
0.967886
0.963745
0.959906
0.956395
0.953251
0.950513
0.948141
0.946281
1.02447
1.02434
1.02479
1.02539
1.02594
1.02622
1.02618
1.02571
1.02475
1.02324
1.02112
1.01837
1.01497
1.01103
1.00661
1.00183
0.996771
0.991568
0.98633
0.981182
0.976189
0.971421
0.966918
0.962702
0.958792
0.955216
0.952015
0.949228
0.946816
0.944925
1.0248
1.02462
1.02506
1.02567
1.02623
1.0265
1.02645
1.02595
1.02495
1.02339
1.02121
1.01838
1.0149
1.01086
1.00633
1.00146
0.996301
0.991002
0.98567
0.980427
0.975345
0.970494
0.965912
0.961621
0.957642
0.954004
0.950748
0.947916
0.945465
0.943545
1.02513
1.02491
1.02535
1.02596
1.02652
1.02679
1.02672
1.02619
1.02516
1.02354
1.02129
1.01838
1.01481
1.01067
1.00604
1.00106
0.995805
0.990409
0.984981
0.979643
0.974472
0.969536
0.964876
0.960511
0.956466
0.952768
0.949461
0.946586
0.9441
0.942152
1.02547
1.02521
1.02563
1.02625
1.02682
1.02708
1.02699
1.02644
1.02536
1.02368
1.02136
1.01837
1.0147
1.01045
1.00572
1.00063
0.995274
0.98978
0.984256
0.978823
0.973562
0.968542
0.963804
0.959368
0.955258
0.951504
0.948147
0.945232
0.942712
0.94074
1.02582
1.02552
1.02593
1.02656
1.02712
1.02738
1.02728
1.02669
1.02557
1.02382
1.02142
1.01835
1.01458
1.01022
1.00538
1.00018
0.994717
0.989122
0.983502
0.977975
0.972625
0.967521
0.962707
0.958201
0.95403
0.950222
0.946819
0.943865
0.941313
0.939317
1.02618
1.02583
1.02624
1.02687
1.02743
1.02769
1.02756
1.02695
1.02577
1.02396
1.02148
1.0183
1.01444
1.00997
1.005
0.99969
0.994123
0.988427
0.982711
0.97709
0.971653
0.966468
0.961578
0.957005
0.952775
0.948914
0.945467
0.942475
0.939892
0.937874
1.02655
1.02615
1.02655
1.02719
1.02775
1.028
1.02786
1.02721
1.02598
1.0241
1.02153
1.01825
1.01428
1.00969
1.00461
0.999181
0.993503
0.987704
0.981892
0.97618
0.970657
0.965393
0.96043
0.955792
0.951504
0.947594
0.944103
0.941075
0.938461
0.936421
1.02692
1.02649
1.02688
1.02751
1.02808
1.02832
1.02815
1.02747
1.02619
1.02423
1.02156
1.01818
1.01409
1.00939
1.00419
0.998637
0.992847
0.986945
0.981037
0.975236
0.969631
0.964289
0.959256
0.954554
0.95021
0.94625
0.942717
0.939652
0.937007
0.934946
1.02731
1.02683
1.02721
1.02785
1.02841
1.02864
1.02846
1.02774
1.0264
1.02436
1.0216
1.0181
1.0139
1.00907
1.00375
0.998072
0.992168
0.986162
0.98016
0.974272
0.968585
0.963169
0.958067
0.953303
0.948904
0.944895
0.941319
0.938217
0.935542
0.933458
1.02771
1.02719
1.02756
1.0282
1.02876
1.02898
1.02877
1.02801
1.02661
1.02448
1.02161
1.018
1.01367
1.00872
1.00327
0.997473
0.991456
0.985346
0.979251
0.973278
0.967513
0.962024
0.956854
0.952029
0.947575
0.943518
0.939898
0.936759
0.934052
0.931944
1.02812
1.02756
1.02792
1.02856
1.02911
1.02932
1.02909
1.02829
1.02682
1.0246
1.02163
1.01789
1.01343
1.00835
1.00278
0.996856
0.990724
0.98451
0.978323
0.972267
0.966426
0.960866
0.95563
0.950745
0.946236
0.942129
0.938465
0.935287
0.932547
0.930415
1.02853
1.02794
1.0283
1.02893
1.02948
1.02967
1.02941
1.02856
1.02702
1.02471
1.02162
1.01776
1.01317
1.00796
1.00225
0.996208
0.989963
0.983647
0.97737
0.971232
0.965316
0.959685
0.954384
0.949438
0.944873
0.940715
0.937006
0.933787
0.931014
0.928856
1.02896
1.02833
1.02869
1.02933
1.02986
1.03004
1.02974
1.02884
1.02723
1.02482
1.02162
1.01762
1.0129
1.00755
1.00171
0.995547
0.989188
0.982771
0.976403
0.970185
0.964194
0.958494
0.953127
0.948119
0.943498
0.939289
0.935532
0.932272
0.929463
0.92728
1.0294
1.02873
1.02909
1.02973
1.03026
1.03041
1.03008
1.02913
1.02743
1.02493
1.0216
1.01747
1.0126
1.00712
1.00115
0.99486
0.988389
0.981871
0.975414
0.969115
0.963051
0.957281
0.951847
0.946777
0.942097
0.937834
0.934029
0.930726
0.927881
0.925669
1.02984
1.02914
1.02951
1.03016
1.03068
1.03081
1.03044
1.02943
1.02765
1.02504
1.02158
1.01731
1.0123
1.00668
1.00058
0.994166
0.987582
0.980963
0.974416
0.968036
0.961897
0.956056
0.950555
0.945421
0.940682
0.936364
0.932509
0.929162
0.92628
0.924039
1.03029
1.02957
1.02995
1.0306
1.03111
1.03123
1.03081
1.02973
1.02786
1.02514
1.02155
1.01714
1.01199
1.00622
0.999992
0.993452
0.986754
0.980034
0.973397
0.966935
0.960719
0.954807
0.949237
0.944038
0.939238
0.934863
0.930956
0.927564
0.924643
0.922372
1.03076
1.03001
1.0304
1.03107
1.03158
1.03167
1.03121
1.03006
1.0281
1.02526
1.02154
1.01698
1.01168
1.00577
0.999402
0.992736
0.985924
0.9791
0.97237
0.965824
0.959531
0.953544
0.947905
0.942639
0.937777
0.933345
0.929385
0.925947
0.922986
0.920683
1.03123
1.03045
1.03087
1.03156
1.03207
1.03214
1.03163
1.03041
1.02834
1.02538
1.02152
1.01681
1.01136
1.0053
0.998798
0.992004
0.985075
0.978146
0.971321
0.964689
0.958316
0.952254
0.946543
0.941209
0.936284
0.931792
0.927778
0.924292
0.921291
0.918956
1.03171
1.03092
1.03136
1.03208
1.03259
1.03264
1.03209
1.03079
1.02861
1.02552
1.02152
1.01666
1.01105
1.00485
0.998199
0.991273
0.984224
0.977187
0.970263
0.963542
0.957087
0.950947
0.945163
0.939761
0.934771
0.930219
0.926151
0.922616
0.919574
0.917206
1.03219
1.03139
1.03187
1.03261
1.03314
1.03318
1.03257
1.03119
1.0289
1.02568
1.02152
1.01651
1.01074
1.00438
0.997587
0.990527
0.983354
0.976206
0.969181
0.962368
0.955828
0.949609
0.943751
0.938278
0.933223
0.92861
0.924486
0.920902
0.917817
0.915416
1.0327
1.03188
1.0324
1.03318
1.03373
1.03375
1.0331
1.03163
1.02923
1.02586
1.02155
1.01637
1.01045
1.00392
0.996983
0.989783
0.982482
0.975217
0.968087
0.961178
0.954551
0.948252
0.942318
0.936776
0.931654
0.926979
0.922799
0.919166
0.916038
0.913602
1.03321
1.03237
1.03294
1.03377
1.03434
1.03435
1.03365
1.0321
1.02958
1.02607
1.0216
1.01625
1.01015
1.00346
0.996366
0.989021
0.981588
0.974203
0.966964
0.959957
0.953241
0.94686
0.94085
0.935236
0.930047
0.925311
0.921074
0.91739
0.914219