/*--------------------------------*- C++ -*----------------------------------*\
  =========                 |
  \\      /  F ield         | OpenFOAM: The Open Source CFD Toolbox
   \\    /   O peration     | Website:  https://openfoam.org
    \\  /    A nd           | Version:  6.0
     \\/     M anipulation  |
\*---------------------------------------------------------------------------*/
FoamFile
{
    version     2.0;
    format      ascii;
    class       surfaceScalarField;
    location    "20";
    object      phi;
}
// * * * * * * * * * * * * * * * * * * * * * * * * * * * * * * * * * * * * * //

dimensions      [0 3 -1 0 0 0 0];

internalField   nonuniform List<scalar> 
123526
(
8.69498e-06
0.000514833
9.73752e-09
1.7491e-05
0.000514381
2.63937e-05
0.000513552
3.53869e-05
0.000512379
4.4436e-05
0.00051088
5.35197e-05
0.000509045
6.26187e-05
0.000506871
7.17163e-05
0.000504358
8.07974e-05
0.000501507
8.9849e-05
0.000498316
9.88593e-05
0.000494789
0.000107818
0.000490926
0.000116716
0.000486727
0.000125548
0.000482194
0.0001343
0.000477337
0.000142967
0.000472152
0.000151546
0.000466639
0.000160024
0.000460811
0.000168398
0.000454663
0.000176661
0.0004482
0.000184806
0.000441431
0.000192831
0.000434352
0.000200725
0.000426977
0.000208487
0.000419302
0.000216107
0.000411341
0.000223582
0.000403093
0.000230905
0.000394568
0.000238072
0.000385771
0.000245076
0.00037671
0.000251912
0.000367391
0.000258575
0.000357821
0.00026506
0.000348007
0.000271362
0.000337959
0.000277476
0.00032768
0.000283398
0.000317181
0.000289123
0.000306467
0.000294646
0.000295549
0.000299965
0.000284432
0.000305074
0.000273124
0.00030997
0.000261632
0.000314649
0.000249965
0.000319108
0.000238131
0.000323344
0.000226134
0.000327353
0.000213986
0.000331132
0.000201692
0.00033468
0.00018926
0.000337992
0.000176697
0.000341066
0.000164012
0.000343901
0.000151212
0.000346493
0.000138304
0.00034884
0.000125297
0.00035094
0.000112199
0.00035279
9.9017e-05
0.000354386
8.57593e-05
0.000355724
7.2434e-05
0.0003568
5.90465e-05
0.000357594
4.56109e-05
0.00035809
3.21126e-05
0.000358001
1.87117e-05
6.11721e-06
0.00035592
8.5391e-06
0.00050628
1.28515e-08
1.71811e-05
0.000505738
2.59278e-05
0.000504804
3.4763e-05
0.000503543
4.36521e-05
0.000501992
5.2574e-05
0.000500125
6.15095e-05
0.000497939
7.04417e-05
0.000495431
7.9356e-05
0.000492599
8.82396e-05
0.000489442
9.70813e-05
0.000485959
0.000105871
0.00048215
0.000114601
0.000478014
0.000123266
0.000473548
0.000131854
0.000468771
0.000140359
0.000463672
0.000148779
0.000458247
0.000157101
0.000452519
0.000165323
0.000446474
0.000173439
0.00044012
0.00018144
0.000433468
0.000189325
0.000426507
0.000197082
0.000419261
0.00020471
0.000411717
0.0002122
0.000403895
0.000219548
0.00039579
0.000226747
0.000387415
0.000233792
0.000378772
0.000240676
0.000369872
0.000247396
0.000360716
0.000253945
0.000351317
0.000260318
0.000341677
0.00026651
0.000331809
0.000272518
0.000321712
0.000278335
0.000311404
0.000283959
0.000300881
0.000289383
0.000290161
0.000294605
0.000279244
0.000299621
0.00026814
0.000304426
0.000256858
0.000309018
0.000245402
0.000313392
0.000233783
0.000317547
0.000222005
0.000321479
0.000210078
0.000325185
0.000198008
0.000328663
0.000185803
0.00033191
0.00017347
0.000334925
0.000161016
0.000337706
0.000148449
0.00034025
0.000135777
0.000342557
0.000123008
0.000344623
0.000110148
0.00034645
9.72065e-05
0.000348033
8.41909e-05
0.000349374
7.11095e-05
0.000350465
5.79715e-05
0.0003513
4.47905e-05
0.000351838
3.1591e-05
0.000352244
1.83059e-05
4.96945e-06
0.000353428
8.39296e-06
0.000497877
8.31963e-09
1.68823e-05
0.000497248
2.54736e-05
0.000496213
3.41507e-05
0.000494866
4.28793e-05
0.000493264
5.16386e-05
0.000491366
6.04097e-05
0.000489169
6.91764e-05
0.000486667
7.79245e-05
0.000483854
8.66421e-05
0.000480729
9.53186e-05
0.000477288
0.000103945
0.00047353
0.000112513
0.000469453
0.000121019
0.000465051
0.000129452
0.000460349
0.000137804
0.000455332
0.000146075
0.00044999
0.000154252
0.000444356
0.000162332
0.00043841
0.000170309
0.000432161
0.000178174
0.000425622
0.000185925
0.000418776
0.000193551
0.000411655
0.00020105
0.000404239
0.000208413
0.000396554
0.000215636
0.000388588
0.000222712
0.000380362
0.000229636
0.00037187
0.000236402
0.000363128
0.000243005
0.000354134
0.000249438
0.000344904
0.000255699
0.000335436
0.000261781
0.000325746
0.000267681
0.000315831
0.000273392
0.00030571
0.000278912
0.000295378
0.000284236
0.000284853
0.00028936
0.000274134
0.00029428
0.000263234
0.000298993
0.000252157
0.000303497
0.000240911
0.000307786
0.000229505
0.000311859
0.000217942
0.000315713
0.000206234
0.000319346
0.000194384
0.000322754
0.000182402
0.000325937
0.000170295
0.000328892
0.000158067
0.000331618
0.00014573
0.000334111
0.000133289
0.000336372
0.000120752
0.000338397
0.000108128
0.000340186
9.54227e-05
0.000341734
8.26468e-05
0.00034304
6.98088e-05
0.000344096
5.69195e-05
0.000344894
4.39958e-05
0.00034544
3.10437e-05
0.000345678
1.80779e-05
5.53471e-06
0.000345107
8.24749e-06
0.000489626
2.44151e-09
1.65831e-05
0.000488911
2.50181e-05
0.000487776
3.35364e-05
0.000486346
4.21046e-05
0.000484694
5.07022e-05
0.000482768
5.93111e-05
0.00048056
6.79156e-05
0.000478062
7.65023e-05
0.000475268
8.50598e-05
0.000472172
9.3578e-05
0.000468771
0.000102048
0.000465062
0.000110463
0.000461041
0.000118819
0.000456699
0.000127103
0.000452068
0.000135311
0.00044713
0.000143439
0.000441868
0.000151476
0.000436326
0.000159418
0.000430476
0.000167259
0.000424328
0.00017499
0.0004179
0.000182609
0.000411166
0.000190104
0.00040417
0.000197475
0.00039688
0.00020471
0.000389329
0.000211808
0.000381502
0.000218759
0.000373421
0.000225561
0.00036508
0.000232206
0.000356494
0.000238691
0.000347662
0.000245008
0.000338599
0.000251155
0.000329301
0.000257125
0.000319788
0.000262915
0.000310052
0.000268519
0.000300116
0.000273935
0.000289972
0.000279156
0.000279641
0.000284181
0.000269118
0.000289006
0.000258418
0.000293627
0.000247545
0.00029804
0.000236505
0.000302244
0.000225309
0.000306236
0.000213957
0.000310013
0.000202463
0.000313572
0.00019083
0.000316913
0.000179067
0.000320032
0.00016718
0.000322929
0.000155175
0.000325601
0.000143062
0.000328047
0.000130847
0.000330266
0.000118537
0.000332256
0.000106142
0.000334015
9.36669e-05
0.000335542
8.11233e-05
0.000336835
6.85194e-05
0.000337892
5.58657e-05
0.000338711
4.31788e-05
0.000339284
3.04721e-05
0.000339648
1.77049e-05
5.14615e-06
0.000340053
8.09993e-06
0.000481526
-9.33992e-10
1.62825e-05
0.000480727
2.45622e-05
0.000479496
3.29235e-05
0.000477984
4.13338e-05
0.000476283
4.97734e-05
0.000474327
5.82245e-05
0.000472108
6.66722e-05
0.000469614
7.51035e-05
0.000466836
8.35072e-05
0.000463768
9.18737e-05
0.000460405
0.000100194
0.000456742
0.000108462
0.000452774
0.000116672
0.00044849
0.000124814
0.000443929
0.00013288
0.000439065
0.000140869
0.000433881
0.000148768
0.00042843
0.000156574
0.000422674
0.000164279
0.000416626
0.000171877
0.000410307
0.000179363
0.000403684
0.000186728
0.000396809
0.000193968
0.000389643
0.000201076
0.000382225
0.000208048
0.000374536
0.000214875
0.000366598
0.000221554
0.000358405
0.000228079
0.000349974
0.000234445
0.0003413
0.000240647
0.000332401
0.000246679
0.000323272
0.000252538
0.000313933
0.000258219
0.000304375
0.000263716
0.000294622
0.000269029
0.000284663
0.00027415
0.000274522
0.000279078
0.000264193
0.000283808
0.00025369
0.000288338
0.000243017
0.000292666
0.000232179
0.000296788
0.000221188
0.000300702
0.000210043
0.000304406
0.00019876
0.000307898
0.000187339
0.000311176
0.000175789
0.000314238
0.000164118
0.000317084
0.000152329
0.000319711
0.000140435
0.000322119
0.000128439
0.000324306
0.000116349
0.000326271
0.000104176
0.000328013
9.19238e-05
0.000329531
7.96044e-05
0.000330824
6.72257e-05
0.000331891
5.47981e-05
0.000332729
4.23376e-05
0.000333339
2.98558e-05
0.000333735
1.73095e-05
4.93061e-06
0.000333943
7.95232e-06
0.000473574
-1.34471e-09
1.59847e-05
0.000472693
2.41125e-05
0.000471366
3.23209e-05
0.000469774
4.05779e-05
0.000468024
4.88642e-05
0.000466039
5.71629e-05
0.000463808
6.54591e-05
0.000461316
7.37403e-05
0.000458554
8.19955e-05
0.000455512
9.0215e-05
0.000452184
9.83903e-05
0.000448566
0.000106514
0.000444649
0.000114582
0.000440422
0.000122583
0.000435928
0.00013051
0.000431139
0.00013836
0.000426031
0.000146122
0.000420668
0.000153791
0.000415005
0.000161362
0.000409056
0.000168826
0.000402845
0.00017618
0.000396332
0.000183414
0.000389577
0.000190525
0.000382534
0.000197505
0.000375247
0.000204351
0.000367693
0.000211054
0.000359897
0.000217612
0.00035185
0.000224016
0.000343572
0.000230265
0.000335054
0.000236351
0.000326318
0.000242271
0.000317355
0.000248018
0.000308188
0.000253591
0.000298804
0.000258984
0.000289232
0.000264194
0.000279456
0.000269217
0.000269502
0.000274049
0.000259363
0.000278689
0.000249053
0.000283132
0.000238576
0.000287376
0.000227936
0.00029142
0.000217147
0.00029526
0.000206205
0.000298896
0.000195127
0.000302324
0.000183912
0.000305545
0.00017257
0.000308555
0.000161109
0.000311354
0.000149531
0.000313941
0.000137849
0.000316314
0.000126066
0.000318472
0.000114192
0.000320414
0.000102234
0.000322139
9.01995e-05
0.000323645
7.80986e-05
0.000324932
6.59396e-05
0.000325998
5.37325e-05
0.000326843
4.14923e-05
0.000327466
2.92305e-05
0.000327864
1.69035e-05
4.7235e-06
0.000328083
7.80683e-06
0.000465768
-1.79629e-09
1.56931e-05
0.000464806
2.36736e-05
0.000463385
3.17336e-05
0.000461713
3.9842e-05
0.000459915
4.798e-05
0.0004579
5.61308e-05
0.000455656
6.428e-05
0.000453166
7.24151e-05
0.000450418
8.05253e-05
0.000447401
8.8601e-05
0.000444108
9.66335e-05
0.000440533
0.000104616
0.000436667
0.000112543
0.000432494
0.000120404
0.000428067
0.000128192
0.000423351
0.000135904
0.000418319
0.000143529
0.000413043
0.000151062
0.000407472
0.000158499
0.00040162
0.000165829
0.000395516
0.000173051
0.00038911
0.000180154
0.000382475
0.000187136
0.000375553
0.000193989
0.000368395
0.000200709
0.000360973
0.000207289
0.000353318
0.000213725
0.000345415
0.000220011
0.000337287
0.000226142
0.000328924
0.000232113
0.000320348
0.000237921
0.000311548
0.000243559
0.000302551
0.000249025
0.000293338
0.000254314
0.000283943
0.000259424
0.000274346
0.00026435
0.000264576
0.000269091
0.000254623
0.000273641
0.000244502
0.000278
0.000234217
0.000282165
0.000223771
0.000286134
0.000213178
0.000289905
0.000202433
0.000293477
0.000191555
0.000296846
0.000180541
0.000300013
0.000169402
0.000302976
0.000158145
0.000305733
0.000146772
0.000308283
0.000135297
0.000310625
0.000123723
0.000312757
0.000112057
0.00031468
0.00010031
0.00031639
8.84869e-05
0.000317888
7.65987e-05
0.000319172
6.46533e-05
0.000320243
5.26601e-05
0.000321099
4.0633e-05
0.00032174
2.85832e-05
0.000322169
1.64736e-05
4.44271e-06
0.000322444
7.66435e-06
0.000458103
-9.73474e-10
1.54087e-05
0.000457061
2.3246e-05
0.000455546
3.11619e-05
0.000453796
3.91259e-05
0.00045195
4.71195e-05
0.000449905
5.51261e-05
0.000447647
6.31316e-05
0.000445159
7.11236e-05
0.000442424
7.90913e-05
0.000439431
8.70252e-05
0.000436172
9.49165e-05
0.000432641
0.000102758
0.000428823
0.000110546
0.000424706
0.000118268
0.000420344
0.000125918
0.0004157
0.000133492
0.000410743
0.000140981
0.000405554
0.00014838
0.000400073
0.000155682
0.000394317
0.000162879
0.000388318
0.00016997
0.00038202
0.000176943
0.000375501
0.000183797
0.000368698
0.000190524
0.000361669
0.00019712
0.000354378
0.000203577
0.000346861
0.000209892
0.0003391
0.000216059
0.00033112
0.000222075
0.000322909
0.000227932
0.000314491
0.000233629
0.000305852
0.00023916
0.000297021
0.000244522
0.000287977
0.00024971
0.000278756
0.000254723
0.000269334
0.000259556
0.000259744
0.000264207
0.000249973
0.000268673
0.000240037
0.000272952
0.000229938
0.000277043
0.000219681
0.000280942
0.000209279
0.000284649
0.000198726
0.000288161
0.000188043
0.000291477
0.000177225
0.000294596
0.000166283
0.000297516
0.000155225
0.000300236
0.000144052
0.000302754
0.000132779
0.00030507
0.000121407
0.000307181
0.000109946
0.000309087
9.84042e-05
0.000310786
8.67872e-05
0.000312278
7.51068e-05
0.000313561
6.33702e-05
0.000314635
5.15866e-05
0.000315498
3.97686e-05
0.000316152
2.7927e-05
0.000316587
1.60319e-05
4.19686e-06
0.000316842
7.52458e-06
0.000450576
2.19387e-09
1.51309e-05
0.000449454
2.28289e-05
0.000447847
3.06043e-05
0.00044602
3.84271e-05
0.000444126
4.62793e-05
0.000442052
5.41446e-05
0.000439781
6.20089e-05
0.000437294
6.98601e-05
0.000434572
7.76873e-05
0.000431603
8.54812e-05
0.000428378
9.3233e-05
0.000424888
0.000100936
0.00042112
0.000108585
0.000417056
0.000116169
0.000412759
0.000123682
0.000408187
0.000131121
0.000403304
0.000138475
0.0003982
0.00014574
0.000392808
0.000152909
0.000387148
0.000159975
0.000381252
0.000166936
0.000375059
0.000173782
0.000368656
0.000180509
0.000361971
0.000187111
0.000355067
0.000193583
0.000347906
0.00019992
0.000340525
0.000206117
0.000332904
0.000212167
0.000325069
0.000218069
0.000317008
0.000223815
0.000308744
0.000229404
0.000300263
0.00023483
0.000291595
0.000240091
0.000282716
0.000245182
0.000273665
0.000250101
0.000264414
0.000254845
0.000255
0.000259412
0.000245405
0.000263798
0.000235649
0.000268003
0.000225733
0.000272023
0.000215659
0.000275858
0.000205444
0.000279505
0.000195078
0.000282963
0.000184584
0.000286231
0.000173957
0.000289306
0.000163207
0.000292187
0.000152343
0.000294872
0.000141365
0.000297361
0.000130288
0.000299652
0.000119115
0.000301743
0.000107853
0.000303632
9.65127e-05
0.000305319
8.50985e-05
0.000306801
7.36224e-05
0.000308078
6.20913e-05
0.000309149
5.05144e-05
0.00031001
3.89036e-05
0.000310665
2.72674e-05
0.000311105
1.5591e-05
3.96633e-06
0.000311332
7.38776e-06
0.00044318
6.72865e-09
1.48593e-05
0.000441981
2.24209e-05
0.000440284
3.00587e-05
0.000438381
3.77432e-05
0.00043644
4.54566e-05
0.000434337
5.3183e-05
0.000432053
6.09083e-05
0.000429567
6.86206e-05
0.000426858
7.63092e-05
0.000423913
8.39649e-05
0.00042072
9.1579e-05
0.000417272
9.91447e-05
0.000413552
0.000106657
0.000409542
0.000114106
0.000405309
0.000121484
0.000400808
0.000128788
0.000395998
0.000136009
0.000390978
0.000143142
0.000385674
0.000150181
0.000380108
0.000157118
0.000374314
0.000163951
0.000368225
0.00017067
0.000361936
0.000177273
0.000355367
0.000183752
0.000348588
0.000190103
0.000341554
0.000196321
0.000334307
0.000202401
0.000326823
0.000208338
0.000319132
0.000214129
0.000311217
0.000219767
0.000303106
0.000225251
0.000294779
0.000230575
0.00028627
0.000235739
0.000277553
0.000240736
0.000268668
0.000245566
0.000259584
0.000250225
0.000250341
0.000254712
0.000240919
0.000259023
0.000231338
0.000263157
0.000221599
0.000267112
0.000211704
0.000270886
0.00020167
0.000274478
0.000191486
0.000277885
0.000181177
0.000281106
0.000170735
0.00028414
0.000160173
0.000286983
0.000149499
0.000289636
0.000138711
0.000292096
0.000127828
0.000294362
0.000116849
0.00029643
0.000105784
0.000298301
9.46415e-05
0.000299972
8.34271e-05
0.000301441
7.21526e-05
0.000302708
6.08245e-05
0.00030377
4.94518e-05
0.000304626
3.80461e-05
0.000305278
2.66135e-05
0.00030572
1.51448e-05
3.74244e-06
0.000305951
7.25373e-06
0.000435915
1.05237e-08
1.45932e-05
0.000434641
2.20211e-05
0.000432856
2.95237e-05
0.000430877
3.70723e-05
0.000428891
4.46493e-05
0.00042676
5.22388e-05
0.000424463
5.98272e-05
0.000421978
6.74026e-05
0.000419282
7.49546e-05
0.00041636
8.2474e-05
0.0004132
8.99522e-05
0.000409793
9.73827e-05
0.000406121
0.00010476
0.000402163
0.000112075
0.000397994
0.00011932
0.000393563
0.000126493
0.000388825
0.000133582
0.000383888
0.000140585
0.000378671
0.000147495
0.000373197
0.000154305
0.000367504
0.000161012
0.000361518
0.000167607
0.000355341
0.000174088
0.000348887
0.000180446
0.000342229
0.000186679
0.000335321
0.00019278
0.000328205
0.000198747
0.000320857
0.000204572
0.000313306
0.000210254
0.000305535
0.000215788
0.000297572
0.00022117
0.000289396
0.000226397
0.000281043
0.000231466
0.000272483
0.000236374
0.000263759
0.000241119
0.000254839
0.000245697
0.000245762
0.000250107
0.000236508
0.000254347
0.000227097
0.000258414
0.000217531
0.000262308
0.00020781
0.000266024
0.000197952
0.000269563
0.000187946
0.000272922
0.000177817
0.000276098
0.000167557
0.000279092
0.000157178
0.000281899
0.00014669
0.000284519
0.00013609
0.000286949
0.000125396
0.000289188
0.000114608
0.000291234
0.000103736
0.000293084
9.27895e-05
0.000294737
8.17722e-05
0.00029619
7.06969e-05
0.000297443
5.95694e-05
0.000298495
4.83985e-05
0.000299342
3.71956e-05
0.000299987
2.59645e-05
0.000300432
1.46996e-05
3.50098e-06
0.00030067
7.12262e-06
0.000428778
1.34067e-08
1.43322e-05
0.00042743
2.16287e-05
0.000425558
2.89985e-05
0.000423506
3.64134e-05
0.000421474
4.38559e-05
0.000419316
5.13107e-05
0.000417007
5.87642e-05
0.000414523
6.62047e-05
0.00041184
7.3622e-05
0.000408942
8.1007e-05
0.000405814
8.83513e-05
0.000402448
9.56483e-05
0.000398823
0.000102893
0.000394917
0.000110076
0.000390811
0.00011719
0.000386448
0.000124232
0.000381781
0.000131193
0.000376926
0.000138067
0.000371795
0.000144851
0.000366413
0.000151535
0.000360819
0.000158118
0.000354934
0.000164591
0.000348867
0.000170951
0.000342526
0.000177191
0.000335988
0.000183307
0.000329203
0.000189295
0.000322217
0.00019515
0.000315001
0.000200867
0.000307588
0.000206444
0.000299957
0.000211876
0.00029214
0.00021716
0.000284111
0.000222293
0.00027591
0.000227272
0.000267503
0.000232094
0.000258937
0.000236758
0.000250175
0.000241259
0.00024126
0.000245597
0.00023217
0.000249769
0.000222925
0.000253773
0.000213527
0.000257607
0.000203976
0.000261269
0.00019429
0.000264757
0.000184458
0.000268069
0.000174505
0.000271203
0.000164423
0.000274157
0.000154224
0.000276928
0.000143918
0.000279516
0.000133502
0.000281916
0.000122995
0.000284128
0.000112396
0.000286148
0.000101715
0.000287976
9.09613e-05
0.000289608
8.01391e-05
0.000291043
6.92609e-05
0.00029228
5.83323e-05
0.000293317
4.73615e-05
0.000294151
3.63597e-05
0.000294785
2.53289e-05
0.000295221
1.4261e-05
3.26594e-06
0.000295462
6.9939e-06
0.000421768
1.6201e-08
1.4076e-05
0.000420348
2.12431e-05
0.000418391
2.84823e-05
0.000416267
3.57654e-05
0.000414191
4.30756e-05
0.000412005
5.03977e-05
0.000409684
5.77182e-05
0.000407201
6.50258e-05
0.000404532
7.23103e-05
0.000401656
7.95628e-05
0.000398561
8.6775e-05
0.000395235
9.39405e-05
0.000391657
0.000101055
0.000387803
0.000108107
0.000383758
0.000115091
0.000379463
0.000122005
0.000374867
0.000128838
0.000370092
0.000135587
0.000365046
0.000142245
0.000359754
0.000148806
0.000354258
0.000155267
0.000348473
0.000161619
0.000342515
0.000167861
0.000336284
0.000173984
0.000329864
0.000179987
0.0003232
0.000185863
0.00031634
0.00019161
0.000309254
0.000197223
0.000301976
0.000202698
0.000294482
0.000208032
0.000286806
0.000213222
0.00027892
0.000218265
0.000270867
0.000223158
0.000262609
0.000227898
0.000254196
0.000232485
0.000245588
0.000236913
0.000236831
0.000241182
0.000227899
0.00024529
0.000218817
0.000249234
0.000209582
0.000253011
0.000200196
0.000256621
0.00019068
0.00026006
0.000181017
0.000263327
0.000171237
0.000266419
0.000161329
0.000269334
0.000151308
0.000272069
0.000141181
0.000274622
0.000130946
0.000276992
0.000120624
0.000279174
0.000110211
0.000281168
9.9719e-05
0.00028297
8.91569e-05
0.000284579
7.85281e-05
0.000285993
6.78453e-05
0.000287209
5.7114e-05
0.000288227
4.6342e-05
0.000289044
3.55399e-05
0.000289662
2.47084e-05
0.000290083
1.38385e-05
3.03628e-06
0.000290311
6.86769e-06
0.000414881
1.87453e-08
1.38242e-05
0.000413391
2.08641e-05
0.00041135
2.79745e-05
0.000409155
3.5128e-05
0.000407036
4.23078e-05
0.000404824
4.9499e-05
0.000402492
5.66886e-05
0.00040001
6.38651e-05
0.000397354
7.10187e-05
0.000394501
7.81406e-05
0.000391438
8.52226e-05
0.000388152
9.22584e-05
0.00038462
9.92432e-05
0.000380816
0.000106167
0.000376833
0.000113024
0.000372605
0.000119811
0.000368078
0.000126518
0.000363384
0.000133142
0.000358421
0.000139678
0.000353218
0.000146117
0.000347818
0.000152458
0.00034213
0.000158692
0.000336279
0.000164818
0.000330157
0.000170828
0.000323853
0.00017672
0.000317307
0.000182488
0.000310571
0.00018813
0.000303611
0.000193641
0.000296464
0.000199019
0.000289103
0.000204259
0.000281565
0.000209359
0.00027382
0.000214316
0.00026591
0.000219127
0.000257797
0.00022379
0.000249533
0.000228302
0.000241075
0.000232661
0.000232472
0.000236865
0.000223695
0.000240911
0.00021477
0.000244797
0.000205696
0.000248521
0.000196472
0.000252079
0.000187121
0.000255471
0.000177624
0.000258693
0.000168014
0.000261743
0.000158279
0.000264618
0.000148432
0.000267316
0.000138482
0.000269834
0.000128427
0.00027217
0.000118287
0.000274321
0.000108059
0.000276285
9.77542e-05
0.00027806
8.73818e-05
0.000279642
7.6945e-05
0.00028103
6.64564e-05
0.000282223
5.5921e-05
0.000283218
4.53465e-05
0.000284014
3.47429e-05
0.000284611
2.41098e-05
0.000285011
1.34362e-05
2.83243e-06
0.00028522
6.74366e-06
0.000408116
2.01108e-08
1.35766e-05
0.000406557
2.04912e-05
0.000404435
2.74748e-05
0.000402171
3.45005e-05
0.00040001
4.1552e-05
0.000397772
4.86143e-05
0.000395429
5.56748e-05
0.00039295
6.27222e-05
0.000390306
6.97468e-05
0.000387476
7.67399e-05
0.000384444
8.36935e-05
0.000381197
9.06013e-05
0.000377712
9.74588e-05
0.000373959
0.000104256
0.000370035
0.000110987
0.000365874
0.000117649
0.000361416
0.000124233
0.0003568
0.000130735
0.000351919
0.000137149
0.000346803
0.000143469
0.000341498
0.000149692
0.000335906
0.000155811
0.00033016
0.000161824
0.000324144
0.000167724
0.000317953
0.000173509
0.000311522
0.000179173
0.000304906
0.000184714
0.000298069
0.000190128
0.00029105
0.000195412
0.000283819
0.000200561
0.000276415
0.000205576
0.000268805
0.00021045
0.000261035
0.000215183
0.000253063
0.000219772
0.000244944
0.000224214
0.000236632
0.000228506
0.000228178
0.000232647
0.000219553
0.000236634
0.000210783
0.000240463
0.000201865
0.000244134
0.000192801
0.000247642
0.000183611
0.000250986
0.000174279
0.000254162
0.000164836
0.000257169
0.000155271
0.000260004
0.000145596
0.000262662
0.000135822
0.000265143
0.000125944
0.000267444
0.000115985
0.000269561
0.00010594
0.000271492
9.58211e-05
0.000273235
8.56369e-05
0.000274787
7.53906e-05
0.000276147
6.50946e-05
0.000277313
5.47538e-05
0.000278283
4.43752e-05
0.000279055
3.39687e-05
0.000279629
2.35331e-05
0.000280007
1.30575e-05
2.64742e-06
0.00028019
6.62195e-06
0.000401473
2.08341e-08
1.3333e-05
0.000399846
2.01242e-05
0.000397643
2.69829e-05
0.000395311
3.38829e-05
0.000393109
4.08078e-05
0.000390846
4.77432e-05
0.000388492
5.46765e-05
0.000386015
6.15967e-05
0.000383385
6.84942e-05
0.000380578
7.53604e-05
0.000377577
8.21875e-05
0.000374369
8.89694e-05
0.000370928
9.57015e-05
0.000367225
0.000102374
0.000363362
0.000108981
0.000359265
0.000115521
0.000354875
0.000121983
0.000350336
0.000128365
0.000345537
0.000134661
0.000340506
0.000140864
0.000335294
0.000146973
0.000329796
0.00015298
0.000324152
0.000158884
0.00031824
0.000164677
0.000312159
0.000170358
0.00030584
0.000175922
0.000299342
0.000181366
0.000292625
0.000186686
0.000285729
0.00019188
0.000278624
0.000196943
0.00027135
0.000201875
0.000263872
0.000206671
0.000256239
0.000211329
0.000248403
0.000215846
0.000240426
0.00022022
0.000232257
0.000224448
0.00022395
0.000228527
0.000215473
0.000232455
0.000206854
0.000236229
0.000198091
0.000239847
0.000189183
0.000243304
0.000180153
0.0002466
0.000170983
0.00024973
0.000161705
0.000252692
0.000152308
0.000255483
0.000142804
0.000258101
0.000133203
0.000260542
0.000123502
0.000262804
0.000113722
0.000264884
0.000103859
0.00026678
9.39244e-05
0.000268489
8.3927e-05
0.000270009
7.38697e-05
0.000271338
6.37648e-05
0.000272475
5.36167e-05
0.000273417
4.34325e-05
0.000274164
3.32214e-05
0.000274714
2.29818e-05
0.000275068
1.27026e-05
2.49155e-06
0.000275228
6.5021e-06
0.000394949
2.15646e-08
1.30933e-05
0.000393254
1.97629e-05
0.000390973
2.64987e-05
0.000388575
3.32747e-05
0.000386333
4.00751e-05
0.000384045
4.68855e-05
0.000381682
5.36936e-05
0.000379207
6.04885e-05
0.000376589
6.72608e-05
0.000373805
7.40022e-05
0.000370835
8.07048e-05
0.000367666
8.73628e-05
0.00036427
9.39716e-05
0.000360616
0.000100522
0.000356811
0.000107007
0.000352779
0.000113427
0.000348455
0.000119771
0.000343992
0.000126035
0.000339272
0.000132215
0.000334325
0.000138305
0.000329204
0.000144304
0.000323798
0.000150202
0.000318253
0.000155999
0.000312442
0.00016169
0.000306468
0.000167271
0.000300259
0.000172738
0.000293874
0.000178089
0.000287273
0.000183319
0.000280498
0.000188426
0.000273516
0.000193407
0.000266369
0.000198259
0.000259019
0.000202979
0.000251518
0.000207565
0.000243817
0.000212012
0.000235978
0.00021632
0.000227948
0.000220484
0.000219785
0.000224503
0.000211454
0.000228372
0.000202984
0.00023209
0.000194372
0.000235654
0.000185618
0.00023906
0.000176746
0.000242305
0.000167736
0.000245387
0.000158622
0.000248303
0.000149391
0.000251049
0.000140056
0.000253623
0.000130628
0.000256022
0.000121102
0.000258243
0.000111499
0.000260284
0.000101816
0.000262142
9.20642e-05
0.000263816
8.2252e-05
0.000265302
7.23819e-05
0.000266599
6.2466e-05
0.000267705
5.25087e-05
0.00026862
4.25168e-05
0.00026934
3.24991e-05
0.000269866
2.24539e-05
0.000270197
1.23711e-05
2.35416e-06
0.000270333
6.38432e-06
0.000388542
2.26171e-08
1.28574e-05
0.000386781
1.94073e-05
0.000384423
2.6022e-05
0.00038196
3.2676e-05
0.000379678
3.93537e-05
0.000377366
4.60411e-05
0.000374993
5.27259e-05
0.000372521
5.93975e-05
0.000369917
6.60468e-05
0.000367155
7.26653e-05
0.000364215
7.92457e-05
0.000361085
8.57819e-05
0.000357733
9.22698e-05
0.000354127
9.86999e-05
0.00035038
0.000105067
0.000346411
0.000111369
0.000342152
0.000117597
0.000337763
0.000123747
0.000333121
0.000129815
0.000328256
0.000135795
0.000323223
0.000141685
0.000317906
0.000147479
0.000312459
0.000153174
0.000306746
0.000158765
0.000300876
0.00016425
0.000294773
0.000169624
0.000288499
0.000174884
0.000282012
0.000180028
0.000275354
0.000185052
0.000268491
0.000189953
0.000261467
0.000194728
0.000254243
0.000199374
0.000246872
0.000203888
0.000239302
0.000208267
0.000231598
0.00021251
0.000223706
0.000216611
0.000215683
0.000220568
0.000207496
0.000224379
0.000199172
0.00022804
0.00019071
0.000231549
0.000182109
0.000234901
0.000173393
0.000238095
0.000164542
0.000241127
0.00015559
0.000243994
0.000146523
0.000246693
0.000137356
0.000249221
0.000128098
0.000251576
0.000118746
0.000253755
0.000109319
0.000255755
9.9815e-05
0.000257575
9.02442e-05
0.000259211
8.06151e-05
0.000260662
7.09301e-05
0.000261926
6.12012e-05
0.000263002
5.14325e-05
0.000263888
4.16304e-05
0.000264583
3.18039e-05
0.000265085
2.19507e-05
0.000265394
1.20614e-05
2.24114e-06
0.000265511
6.26839e-06
0.00038225
2.33065e-08
1.26252e-05
0.000380424
1.90573e-05
0.000377991
2.55528e-05
0.000375464
3.20867e-05
0.000373144
3.86436e-05
0.000370809
4.52099e-05
0.000368427
5.17735e-05
0.000365957
5.83239e-05
0.000363366
6.48522e-05
0.000360626
7.13501e-05
0.000357717
7.78105e-05
0.000354624
8.42274e-05
0.000351316
9.05969e-05
0.000347758
9.69097e-05
0.000344067
0.000103161
0.00034016
0.000109348
0.000335965
0.000115463
0.000331649
0.000121502
0.000327082
0.000127461
0.000322296
0.000133335
0.00031735
0.000139121
0.00031212
0.000144813
0.000306767
0.000150409
0.00030115
0.000155904
0.000295381
0.000161296
0.000289381
0.000166579
0.000283215
0.000171753
0.000276838
0.000176813
0.000270294
0.000181756
0.000263548
0.000186578
0.000256645
0.000191278
0.000249543
0.000195851
0.000242298
0.000200296
0.000234857
0.000204607
0.000227286
0.000208784
0.000219528
0.000212821
0.000211645
0.000216718
0.000203599
0.000220469
0.00019542
0.000224072
0.000187106
0.000227524
0.000178656
0.000230822
0.000170095
0.000233963
0.0001614
0.000236943
0.000152608
0.00023976
0.000143705
0.00024241
0.000134704
0.000244891
0.000125616
0.0002472
0.000116435
0.000249335
0.000107182
0.000251294
9.7855e-05
0.000253073
8.84631e-05
0.000254671
7.9015e-05
0.000256087
6.95129e-05
0.000257318
5.99684e-05
0.000258364
5.03857e-05
0.000259222
4.07709e-05
0.000259892
3.11327e-05
0.000260372
2.1469e-05
0.000260662
1.17714e-05
2.1419e-06
0.00026076
6.15457e-06
0.000376071
2.39682e-08
1.23969e-05
0.000374181
1.87129e-05
0.000371674
2.50911e-05
0.000369085
3.15068e-05
0.000366727
3.7945e-05
0.00036437
4.43922e-05
0.000361979
5.08365e-05
0.000359512
5.72679e-05
0.000356934
6.36774e-05
0.000354216
7.00571e-05
0.000351337
7.63998e-05
0.00034828
8.27e-05
0.000345015
8.89537e-05
0.000341503
9.5152e-05
0.000337868
0.00010129
0.000334021
0.000107366
0.000329888
0.000113371
0.000325643
0.000119302
0.000321149
0.000125156
0.000316442
0.000130926
0.000311579
0.000136611
0.000306433
0.000142204
0.000301173
0.000147705
0.000295648
0.000153107
0.000289978
0.000158408
0.000284079
0.000163605
0.000278018
0.000168694
0.000271748
0.000173672
0.000265315
0.000178535
0.000258684
0.000183281
0.000251898
0.000187907
0.000244917
0.000192408
0.000237797
0.000196782
0.000230482
0.000201026
0.000223042
0.000205137
0.000215417
0.000209111
0.000207671
0.000212945
0.000199765
0.000216635
0.000191729
0.00022018
0.000183562
0.000223574
0.000175261
0.000226816
0.000166853
0.000229902
0.000158314
0.000232829
0.000149681
0.000235594
0.00014094
0.000238194
0.000132104
0.000240627
0.000123182
0.00024289
0.000114171
0.00024498
0.000105091
0.000246896
9.59384e-05
0.000248635
8.67232e-05
0.000250196
7.74537e-05
0.000251576
6.81319e-05
0.000252775
5.87692e-05
0.00025379
4.93696e-05
0.000254622
3.99392e-05
0.000255268
3.04866e-05
0.000255727
2.10092e-05
0.000255999
1.14994e-05
2.06104e-06
0.000256083
6.04258e-06
0.000370004
2.46029e-08
1.21723e-05
0.000368051
1.83742e-05
0.000365472
2.4637e-05
0.000362823
3.09364e-05
0.000360428
3.72579e-05
0.000358049
4.3588e-05
0.000355649
4.99153e-05
0.000353185
5.62298e-05
0.000350619
6.25228e-05
0.000347923
6.87866e-05
0.000345073
7.50143e-05
0.000342053
8.12003e-05
0.000338829
8.7341e-05
0.000335362
9.34275e-05
0.000331781
9.94552e-05
0.000327993
0.000105422
0.000323921
0.000111321
0.000319744
0.000117147
0.000315323
0.000122899
0.00031069
0.000128568
0.000305909
0.000134156
0.000300846