/*--------------------------------*- C++ -*----------------------------------*\
  =========                 |
  \\      /  F ield         | OpenFOAM: The Open Source CFD Toolbox
   \\    /   O peration     | Website:  https://openfoam.org
    \\  /    A nd           | Version:  6.0
     \\/     M anipulation  |
\*---------------------------------------------------------------------------*/
FoamFile
{
    version     2.0;
    format      ascii;
    class       volVectorField;
    location    "20";
    object      U;
}
// * * * * * * * * * * * * * * * * * * * * * * * * * * * * * * * * * * * * * //

dimensions      [0 1 -1 0 0 0 0];

internalField   nonuniform List<vector> 
47000
(
(0.999998 1.11754e-05 -1.24752e-20)
(0.99999 -7.69278e-06 1.9467e-20)
(0.999974 -2.9975e-05 -5.2241e-19)
(0.999953 -5.43471e-05 -3.42349e-20)
(0.999928 -7.94452e-05 1.6255e-19)
(0.999901 -0.000101596 -4.69791e-19)
(0.999872 -0.00012259 -3.62571e-20)
(0.999841 -0.000140088 -1.5141e-18)
(0.999809 -0.000159594 -5.2644e-19)
(0.999775 -0.000180763 -6.76596e-19)
(0.999739 -0.000210112 -1.09313e-19)
(0.999704 -0.000246355 1.36788e-19)
(0.999666 -0.000295051 8.21679e-19)
(0.999632 -0.000351875 1.81631e-19)
(0.999598 -0.000422017 -3.17092e-19)
(0.999572 -0.000498009 2.09206e-19)
(0.999546 -0.000586089 2.67434e-19)
(0.999531 -0.000676634 -4.71891e-19)
(0.999518 -0.000777751 -3.49023e-19)
(0.999515 -0.000879859 3.04146e-19)
(0.999515 -0.000993761 -6.93754e-19)
(0.999523 -0.00111223 -5.31105e-19)
(0.999533 -0.00124934 -1.99941e-19)
(0.999548 -0.00140285 6.55026e-20)
(0.999565 -0.00159359 4.11361e-20)
(0.999579 -0.00182874 -9.79201e-20)
(0.999625 -0.00215551 -1.84412e-19)
(0.999468 -0.00263254 1.36261e-19)
(0.999986 -0.00348899 -2.51921e-20)
(0.995686 -0.00501009 -9.07106e-20)
(0.999986 -3.56391e-06 -4.52092e-20)
(0.999968 -6.13322e-05 -2.08118e-19)
(0.999936 -0.000118621 3.6105e-19)
(0.999895 -0.000169965 -3.17039e-19)
(0.999847 -0.000213488 5.20088e-19)
(0.999792 -0.00024502 4.80316e-19)
(0.999735 -0.000273201 9.81649e-19)
(0.999673 -0.000297826 1.57701e-18)
(0.999611 -0.00033062 -3.57713e-19)
(0.999548 -0.000371571 -1.82764e-20)
(0.999486 -0.000429221 8.59717e-19)
(0.99943 -0.000500329 5.81431e-19)
(0.999377 -0.000589314 -1.01516e-18)
(0.999337 -0.000689203 4.3896e-19)
(0.999303 -0.000802862 6.25879e-19)
(0.999286 -0.000919966 -2.43914e-19)
(0.999277 -0.00104401 -5.57224e-20)
(0.999288 -0.00116236 5.38663e-19)
(0.999307 -0.00128047 -1.39817e-19)
(0.999344 -0.00138615 7.8884e-20)
(0.999388 -0.00148791 4.73732e-19)
(0.999445 -0.00157571 1.87451e-20)
(0.999507 -0.00165975 1.19835e-19)
(0.999579 -0.00173105 2.25044e-19)
(0.999658 -0.00179946 2.54249e-20)
(0.999732 -0.0018532 -1.32551e-19)
(0.999836 -0.00188886 5.15482e-20)
(0.999819 -0.00194411 2.46383e-20)
(0.999574 -0.00207931 2.90587e-20)
(1.00078 -0.00117614 8.14318e-20)
(0.999965 -2.46718e-05 1.43123e-19)
(0.999947 -0.000103115 3.00776e-19)
(0.999919 -0.000173889 4.72782e-20)
(0.999884 -0.00022899 8.88353e-20)
(0.999843 -0.00027 -5.78441e-19)
(0.999794 -0.000294091 3.1048e-19)
(0.999744 -0.000315297 -4.67694e-19)
(0.99969 -0.000334278 -1.5846e-21)
(0.999638 -0.000364022 4.90063e-19)
(0.999588 -0.000403448 4.98502e-19)
(0.999543 -0.000459068 -1.01141e-18)
(0.999506 -0.000527131 -7.33875e-19)
(0.999476 -0.000609123 3.85377e-19)
(0.999459 -0.000699407 -4.56475e-19)
(0.999451 -0.0007974 -6.71043e-19)
(0.999461 -0.000895091 -7.65574e-19)
(0.999481 -0.000991526 1.80218e-19)
(0.999519 -0.00107672 2.75092e-19)
(0.999566 -0.0011511 6.33919e-19)
(0.999629 -0.00120562 -5.70134e-19)
(0.999696 -0.00124422 -2.75729e-20)
(0.999773 -0.00126076 6.12314e-19)
(0.999852 -0.0012619 3.14055e-20)
(0.999934 -0.00124364 -9.62346e-20)
(1.00002 -0.00121355 -1.19577e-19)
(1.00009 -0.00117184 -9.45915e-20)
(1.00015 -0.00111308 1.17007e-19)
(1.00011 -0.00108441 -1.42646e-19)
(1.00005 -0.00114645 1.06199e-19)
(0.998958 -0.000401824 4.11746e-20)
(0.999939 -3.70746e-05 -1.15076e-19)
(0.999924 -0.000124332 -2.90426e-19)
(0.999901 -0.000199707 -6.19862e-20)
(0.999873 -0.000255347 3.43156e-19)
(0.99984 -0.000296309 2.02415e-19)
(0.999799 -0.000320497 6.99015e-20)
(0.999758 -0.000344692 -5.26331e-19)
(0.999714 -0.00036869 -2.58311e-19)
(0.999675 -0.000404555 -2.83405e-19)
(0.999637 -0.000449876 -7.0602e-19)
(0.999607 -0.000509369 3.76503e-19)
(0.999584 -0.000579751 4.28124e-19)
(0.999569 -0.000661339 8.37978e-19)
(0.999565 -0.000750733 6.02738e-19)
(0.99957 -0.000846084 7.53842e-19)
(0.99959 -0.000942218 -1.8922e-19)
(0.999618 -0.00103614 -1.26705e-19)
(0.999662 -0.00112081 -3.48763e-19)
(0.999713 -0.00119422 -1.33559e-18)
(0.999777 -0.00125053 3.88658e-19)
(0.999843 -0.00129178 -3.76353e-19)
(0.999917 -0.00131571 -2.27267e-19)
(0.99999 -0.00132844 -6.83388e-20)
(1.00006 -0.0013314 -1.02528e-19)
(1.00013 -0.00133267 1.86714e-21)
(1.00019 -0.00133998 3.32737e-19)
(1.00022 -0.00134653 1.25901e-19)
(1.00018 -0.00138782 -2.59821e-19)
(1.0001 -0.00150871 1.50465e-19)
(0.999841 -0.000844555 -5.05739e-20)
(0.999911 -3.98864e-05 5.8775e-20)
(0.999896 -0.000131713 1.13188e-19)
(0.999876 -0.000211266 -1.24038e-19)
(0.999851 -0.000271577 -2.2332e-19)
(0.999823 -0.000320013 3.85222e-19)
(0.999785 -0.000353833 -6.13741e-19)
(0.99975 -0.000390468 4.11989e-19)
(0.999713 -0.000427866 -1.06705e-19)
(0.999683 -0.000476493 3.65373e-19)
(0.999655 -0.000532775 1.29406e-18)
(0.999638 -0.000600085 -8.73976e-19)
(0.999627 -0.000675742 -6.08e-19)
(0.999625 -0.000759368 -1.75666e-19)
(0.999634 -0.000849505 -5.32611e-19)
(0.999651 -0.00094348 -4.9202e-19)
(0.99968 -0.0010387 4.43976e-19)
(0.999717 -0.00113088 2.22082e-19)
(0.999765 -0.00121574 -2.79284e-19)
(0.99982 -0.00128954 -1.2178e-19)
(0.999885 -0.00134882 -3.57765e-19)
(0.999952 -0.00139351 3.63244e-19)
(1.00002 -0.00142289 6.17745e-19)
(1.0001 -0.00144032 4.47206e-20)
(1.00017 -0.00144734 1.93946e-19)
(1.00025 -0.00144712 -3.45103e-20)
(1.00031 -0.00144254 -1.95069e-19)
(1.00036 -0.00141528 -5.06874e-20)
(1.00036 -0.0013755 -3.45342e-20)
(1.00033 -0.00138503 -5.21406e-20)
(1.00014 -0.000446972 2.40691e-20)
(0.999881 -3.69686e-05 -9.18796e-20)
(0.999867 -0.000135111 -8.93414e-21)
(0.999849 -0.000222439 3.8549e-19)
(0.999828 -0.000292338 -2.40095e-19)
(0.999805 -0.000353185 -2.87268e-21)
(0.999775 -0.000400807 3.32037e-19)
(0.999748 -0.000451952 4.15281e-19)
(0.999722 -0.000502745 -8.60642e-20)
(0.999706 -0.000562004 1.18477e-19)
(0.999694 -0.000625408 -3.6929e-19)
(0.999694 -0.000695266 1.64202e-18)
(0.999703 -0.000769129 1.02153e-18)
(0.999722 -0.000845921 -2.62779e-19)
(0.999751 -0.000925169 1.44161e-19)
(0.999789 -0.00100367 3.88074e-19)
(0.999835 -0.00108067 2.8824e-20)
(0.999887 -0.00115166 -1.24546e-19)
(0.999948 -0.00121483 4.79783e-19)
(1.00001 -0.00126633 5.92086e-19)
(1.00008 -0.00130491 3.85863e-20)
(1.00015 -0.00132989 -4.85996e-20)
(1.00022 -0.00134185 -4.90479e-19)
(1.00029 -0.00134263 -2.54495e-20)
(1.00036 -0.00133399 -2.58015e-19)
(1.00044 -0.00131689 1.13916e-19)
(1.00051 -0.00129262 3.9177e-20)
(1.00055 -0.00124218 3.16843e-19)
(1.00057 -0.00117215 1.81917e-20)
(1.00062 -0.00117182 1.17749e-20)
(1.00035 -0.000346854 -8.04659e-20)
(0.99985 -3.24698e-05 3.42761e-20)
(0.999835 -0.000140459 -7.00861e-20)
(0.999819 -0.000239997 -3.02291e-19)
(0.999801 -0.000323816 -1.42808e-19)
(0.999783 -0.000400675 -6.48917e-19)
(0.999758 -0.000464908 3.83939e-20)
(0.999739 -0.000532402 1.06168e-19)
(0.999721 -0.000597991 -1.64516e-19)
(0.999715 -0.0006695 -4.59447e-19)
(0.999716 -0.0007423 -3.30134e-20)
(0.999731 -0.000818008 2.45555e-19)
(0.999755 -0.000893997 -1.56108e-19)
(0.999793 -0.000968232 -1.15081e-18)
(0.999841 -0.00104038 -3.63083e-19)
(0.999897 -0.00110651 2.69364e-19)
(0.999961 -0.00116718 -3.14263e-20)
(1.00003 -0.00121809 -1.21361e-19)
(1.0001 -0.00125999 -2.45185e-19)
(1.00017 -0.00128991 6.10748e-19)
(1.00024 -0.00130945 6.78649e-19)
(1.00031 -0.00131858 -1.65384e-19)
(1.00038 -0.00132005 2.72288e-19)
(1.00045 -0.00131566 -9.62581e-20)
(1.00051 -0.00130834 8.28837e-20)
(1.00058 -0.00129872 -1.73809e-19)
(1.00065 -0.00128769 1.17203e-19)
(1.00069 -0.00125652 -5.53948e-20)
(1.00072 -0.00120845 2.55502e-19)
(1.00083 -0.00125247 -1.5487e-19)
(1.00064 -0.000469227 4.28145e-20)
(0.999814 -2.80299e-05 2.2769e-20)
(0.999798 -0.000148781 -9.25283e-20)
(0.999781 -0.000263864 2.43196e-19)
(0.999762 -0.000364851 -2.12501e-19)
(0.999742 -0.00046063 6.27422e-19)
(0.999717 -0.000544558 1.63333e-19)
(0.999698 -0.000631893 -8.42929e-19)
(0.99968 -0.000717009 -2.80231e-20)
(0.999674 -0.000807329 1.61614e-19)
(0.999676 -0.000898421 -1.52001e-18)
(0.999694 -0.000991415 2.0784e-19)
(0.999722 -0.00108318 -5.06272e-19)
(0.999768 -0.00117039 9.31568e-19)
(0.999824 -0.00125195 1.41117e-18)
(0.999891 -0.00132277 -9.08092e-19)
(0.999966 -0.0013837 3.08798e-19)
(1.00004 -0.00143045 3.01751e-19)
(1.00013 -0.00146545 -6.11149e-19)
(1.00021 -0.00148666 -1.13453e-18)
(1.00029 -0.00149776 -9.48078e-19)
(1.00036 -0.00149945 -6.56059e-20)
(1.00044 -0.00149578 -3.20895e-19)
(1.00051 -0.00148814 3.5772e-20)
(1.00059 -0.00147916 -8.1943e-21)
(1.00066 -0.00146767 1.67526e-19)
(1.00074 -0.00145146 -9.76728e-21)
(1.00081 -0.00140739 -2.95483e-19)
(1.00088 -0.00133186 -4.38845e-20)
(1.00104 -0.00135299 1.09692e-19)
(1.00101 -0.00052499 1.10294e-20)
(0.999773 -2.45772e-05 5.69186e-21)
(0.999755 -0.000159202 1.86755e-19)
(0.999734 -0.000291131 -7.50134e-20)
(0.999711 -0.000410315 6.11782e-19)
(0.999687 -0.00052565 -1.94182e-19)
(0.999658 -0.000629867 -9.35716e-19)
(0.999634 -0.000737938 1.20557e-19)
(0.999611 -0.000844224 9.01011e-20)
(0.9996 -0.000956278 -1.57423e-19)
(0.999596 -0.00107004 3.06358e-19)
(0.99961 -0.0011864 -1.05599e-18)
(0.999637 -0.00130146 1.03372e-20)
(0.999683 -0.00141043 -5.43199e-19)
(0.999743 -0.0015108 -1.17419e-19)
(0.999817 -0.00159586 9.98611e-19)
(0.999902 -0.00166583 4.56582e-19)
(0.999993 -0.00171577 2.09263e-19)
(1.00009 -0.00174878 1.02898e-18)
(1.00018 -0.001763 1.52794e-18)
(1.00028 -0.00176327 5.09464e-19)
(1.00037 -0.00175031 -7.04741e-20)
(1.00047 -0.00172879 1.12102e-19)
(1.00056 -0.00169925 -2.1724e-19)
(1.00066 -0.00166378 1.72065e-19)
(1.00076 -0.0016198 1.14772e-19)
(1.00087 -0.00156399 -1.38324e-19)
(1.00098 -0.00147206 2.94387e-19)
(1.00109 -0.0013409 -4.11105e-20)
(1.0013 -0.00132589 1.37279e-19)
(1.00134 -0.000560613 -7.79828e-22)
(0.999726 -2.23189e-05 -2.91862e-20)
(0.999708 -0.000170643 1.10713e-19)
(0.999685 -0.000319099 -3.53797e-19)
(0.99966 -0.000455392 2.12522e-20)
(0.999636 -0.000588025 1.1082e-19)
(0.999608 -0.000709209 8.10921e-19)
(0.999586 -0.00083361 -1.32888e-19)
(0.999565 -0.000955784 2.04983e-19)
(0.999555 -0.00108353 3.846e-19)
(0.999553 -0.00121334 3.76232e-19)
(0.999569 -0.00134605 1.54748e-20)
(0.999598 -0.00147719 3.65719e-19)
(0.999649 -0.00160076 -1.02339e-19)
(0.999715 -0.0017129 -1.31252e-18)
(0.999798 -0.00180545 -7.96019e-19)
(0.999894 -0.00187774 1.03806e-19)
(0.999998 -0.00192412 -5.62902e-19)
(1.00011 -0.00194782 -6.59363e-19)
(1.00022 -0.00194704 -1.12023e-18)
(1.00034 -0.00192735 2.40667e-19)
(1.00045 -0.00188973 3.81149e-19)
(1.00057 -0.00183967 1.00442e-19)
(1.00069 -0.00177808 4.43351e-19)
(1.00081 -0.00170805 -1.75076e-19)
(1.00093 -0.00162847 -3.79873e-19)
(1.00107 -0.00153923 2.72005e-19)
(1.00119 -0.00142085 1.09839e-19)
(1.00134 -0.0012751 6.66852e-20)
(1.00158 -0.0012802 -1.57491e-19)
(1.00156 -0.000706632 -3.46763e-21)
(0.999674 -2.16419e-05 6.78191e-20)
(0.999658 -0.000183259 -2.30788e-20)
(0.999639 -0.000347215 -5.82674e-20)
(0.99962 -0.000498557 -1.22543e-19)
(0.999606 -0.000644765 3.13006e-19)
(0.99959 -0.000777343 -7.3306e-19)
(0.999583 -0.000910546 1.12325e-18)
(0.999578 -0.00103898 -1.20461e-18)
(0.999584 -0.0011708 -2.88103e-20)
(0.999597 -0.00130312 6.45551e-19)
(0.999626 -0.00143715 4.21224e-19)
(0.999669 -0.00156836 -7.15112e-19)
(0.999732 -0.00169038 -5.81883e-19)
(0.999809 -0.00179873 3.93792e-19)
(0.999904 -0.00188463 8.7042e-19)
(1.00001 -0.00194711 -1.42402e-18)
(1.00013 -0.00198033 7.14394e-19)
(1.00025 -0.00198798 6.5286e-19)
(1.00037 -0.00196865 2.50481e-19)
(1.0005 -0.00192896 2.69869e-19)
(1.00063 -0.00187072 5.09872e-20)
(1.00075 -0.00180101 -3.87834e-20)
(1.00088 -0.00172221 -9.01402e-20)
(1.00101 -0.00163981 2.90823e-19)
(1.00114 -0.00155558 1.85264e-19)
(1.00128 -0.00147384 -6.39897e-20)
(1.00141 -0.00138059 -9.39433e-20)
(1.00157 -0.00127885 3.09274e-20)
(1.00186 -0.00135047 8.22427e-20)
(1.00176 -0.00100626 -2.37078e-20)
(0.999618 -2.25769e-05 -4.40509e-20)
(0.999607 -0.000197576 4.55892e-20)
(0.999597 -0.000376477 5.017e-19)
(0.999592 -0.000541419 -2.77334e-19)
(0.999596 -0.00069834 -4.77547e-19)
(0.999605 -0.000837829 -1.58875e-19)
(0.999625 -0.000973514 -6.51564e-19)
(0.999648 -0.00109993 5.50548e-19)
(0.999683 -0.0012255 -3.88955e-19)
(0.999723 -0.00134809 -1.16529e-19)
(0.999777 -0.0014697 -9.32835e-19)
(0.99984 -0.0015865 1.9154e-19)
(0.99992 -0.00169274 4.12026e-19)
(1.00001 -0.00178439 4.01804e-19)
(1.00012 -0.00185326 -7.80891e-19)
(1.00023 -0.00189893 1.15468e-18)
(1.00035 -0.00191632 -8.27922e-19)
(1.00047 -0.00190996 -5.94329e-19)
(1.0006 -0.00187938 1.02846e-19)
(1.00072 -0.00183235 -2.32482e-19)
(1.00084 -0.00177174 -4.12693e-19)
(1.00097 -0.00170611 -3.557e-19)
(1.00109 -0.0016392 -6.24102e-20)
(1.00122 -0.00157818 -4.8632e-19)
(1.00134 -0.00152634 3.78419e-19)
(1.00148 -0.00148961 -1.07888e-19)
(1.00161 -0.00145572 -4.79864e-19)
(1.00178 -0.00142332 4.38234e-20)
(1.0021 -0.00156093 -8.26955e-20)
(1.00196 -0.00139064 1.09394e-20)
(0.999557 -2.50378e-05 4.022e-20)
(0.999555 -0.000214359 -2.30369e-19)
(0.999556 -0.000408432 -2.76275e-19)
(0.999568 -0.000586929 6.33045e-20)
(0.999596 -0.000753962 -8.80714e-21)
(0.999634 -0.000899047 8.28314e-19)
(0.999685 -0.00103512 7.91633e-20)
(0.999742 -0.00115643 4.49777e-19)
(0.999809 -0.00127162 4.96547e-19)
(0.999879 -0.00137928 -6.44688e-19)
(0.99996 -0.00148258 1.24111e-19)
(1.00005 -0.00157889 3.30235e-19)
(1.00014 -0.00166397 5.37523e-19)
(1.00025 -0.00173515 2.92128e-19)
(1.00035 -0.00178577 1.47047e-20)
(1.00047 -0.00181676 -1.03328e-18)
(1.00058 -0.00182429 6.41387e-19)
(1.0007 -0.00181405 3.16139e-19)
(1.00081 -0.00178642 -8.87187e-21)
(1.00093 -0.00175003 1.09584e-19)
(1.00104 -0.00170815 -5.36289e-20)
(1.00115 -0.00166982 -2.00582e-19)
(1.00126 -0.00163872 1.44756e-19)
(1.00138 -0.00162177 3.61461e-20)
(1.0015 -0.00162106 -2.45913e-19)
(1.00164 -0.00164071 7.96885e-21)
(1.00178 -0.00166665 4.64802e-19)
(1.00196 -0.00169182 7.28147e-21)
(1.00233 -0.00186376 -7.04138e-20)
(1.00222 -0.00178536 1.81105e-20)
(0.999493 -2.85848e-05 -5.03646e-21)
(0.999498 -0.000233413 2.19067e-19)
(0.99951 -0.000443676 7.10562e-20)
(0.999538 -0.000637027 -3.34872e-19)
(0.999588 -0.000815881 3.95095e-20)
(0.99965 -0.0009687 -4.11648e-19)
(0.999729 -0.00110767 -5.15115e-19)
(0.999814 -0.00122666 -8.63405e-20)
(0.999909 -0.00133426 -6.70202e-19)
(1.00001 -0.00142972 6.67905e-19)
(1.00011 -0.00151735 7.89032e-19)
(1.00021 -0.00159603 5.34524e-19)
(1.00032 -0.0016634 1.0281e-19)
(1.00043 -0.00171867 -4.01791e-20)
(1.00054 -0.00175718 -1.01657e-19)
(1.00065 -0.00178147 -1.99428e-19)
(1.00076 -0.00178917 -4.00225e-19)
(1.00086 -0.00178682 -4.91242e-19)
(1.00097 -0.00177532 -4.98746e-19)
(1.00107 -0.00176328 -3.00882e-19)
(1.00117 -0.00175342 1.72404e-19)
(1.00127 -0.00175382 8.44044e-20)
(1.00138 -0.00176654 7.81606e-20)
(1.0015 -0.00179635 1.77374e-19)
(1.00163 -0.0018423 -9.78122e-20)
(1.00178 -0.00190488 -3.10481e-20)
(1.00194 -0.0019673 -2.88686e-19)
(1.00215 -0.00201929 -3.53509e-19)
(1.00255 -0.00218865 -2.23626e-20)
(1.00254 -0.00212796 -2.52635e-21)
(0.999426 -3.25897e-05 -2.28443e-20)
(0.999434 -0.000254129 -3.43583e-20)
(0.999454 -0.000481607 1.43052e-19)
(0.999493 -0.000691713 5.11291e-19)
(0.999555 -0.000885377 2.07614e-20)
(0.999633 -0.00105014 8.75469e-19)
(0.999729 -0.0011975 6.02077e-19)
(0.999833 -0.00132074 6.15118e-19)
(0.999945 -0.00142819 5.29037e-19)
(1.00006 -0.00151945 4.40109e-20)
(1.00018 -0.00159981 -6.5679e-19)
(1.00029 -0.00166949 -4.57485e-19)
(1.00041 -0.00172804 -4.15507e-19)
(1.00052 -0.00177652 -1.68979e-19)
(1.00063 -0.00181226 2.73042e-19)
(1.00073 -0.00183928 1.21054e-19)
(1.00083 -0.00185633 3.56098e-19)
(1.00093 -0.0018704 2.06103e-19)
(1.00103 -0.00188221 1.44336e-19)
(1.00113 -0.00189957 -4.28169e-20)
(1.00123 -0.00192371 -4.00835e-19)
(1.00134 -0.00196076 2.96564e-19)
(1.00145 -0.00201018 -5.00081e-19)
(1.00159 -0.00207385 -3.91586e-19)
(1.00174 -0.00214747 1.59112e-19)
(1.00192 -0.00222824 7.25212e-20)
(1.00211 -0.00229793 -1.69055e-19)
(1.00236 -0.002347 3.76893e-20)
(1.0028 -0.0024881 9.13234e-20)
(1.0029 -0.0024018 1.22016e-20)
(0.999355 -3.64458e-05 1.43194e-20)
(0.999363 -0.000275089 5.71272e-20)
(0.999386 -0.000520478 -4.00012e-19)
(0.999427 -0.000748938 -4.59994e-19)
(0.999492 -0.000960429 2.78974e-19)
(0.999575 -0.00114173 -8.08206e-19)
(0.999675 -0.00130365 -1.5656e-19)
(0.999785 -0.00143882 -9.52931e-19)
(0.999904 -0.00155496 -3.444e-19)
(1.00002 -0.00165171 -4.58208e-19)
(1.00015 -0.00173492 3.63797e-19)
(1.00027 -0.00180582 -3.97856e-19)
(1.00039 -0.00186551 2.13516e-19)
(1.0005 -0.00191658 5.27318e-20)
(1.00061 -0.00195801 -3.41338e-19)
(1.00072 -0.00199487 5.13662e-19)
(1.00082 -0.00202662 4.32307e-19)
(1.00092 -0.00206015 2.87141e-21)
(1.00102 -0.00209549 1.67077e-19)
(1.00113 -0.00213911 2.17157e-19)
(1.00125 -0.0021903 8.59208e-19)
(1.00137 -0.00225289 -3.27711e-19)
(1.00152 -0.00232368 8.00423e-20)
(1.00168 -0.00240196 5.79426e-20)
(1.00186 -0.00248097 -1.56222e-19)
(1.00209 -0.00255609 -2.00717e-19)
(1.00232 -0.00260945 1.42431e-19)
(1.0026 -0.00263533 1.40742e-19)
(1.00307 -0.00273651 -8.71845e-20)
(1.00328 -0.00260471 -5.85551e-20)
(0.999279 -3.95486e-05 4.44578e-20)
(0.999284 -0.000295046 -2.83289e-19)
(0.999304 -0.000558149 4.20575e-19)
(0.99934 -0.000805654 9.65008e-20)
(0.9994 -0.00103699 1.85746e-19)
(0.999477 -0.00123829 -4.1058e-21)
(0.999572 -0.00141974 1.84914e-19)
(0.999677 -0.0015732 -1.98669e-19)
(0.999793 -0.00170556 9.34368e-19)
(0.999912 -0.00181616 -1.28651e-19)
(1.00004 -0.00191102 -2.66663e-19)
(1.00016 -0.00199193 1.18422e-18)
(1.00028 -0.00206106 1.62017e-19)
(1.0004 -0.00212204 4.29885e-19)
(1.00051 -0.002175 4.93163e-19)
(1.00063 -0.00222558 -5.26935e-20)
(1.00074 -0.0022735 -2.17061e-19)
(1.00086 -0.00232518 3.89696e-19)
(1.00098 -0.00237965 1.80122e-19)
(1.00111 -0.00244187 -8.89378e-20)
(1.00125 -0.00250923 -5.121e-19)
(1.00141 -0.00258353 8.91311e-19)
(1.00159 -0.00265947 9.92563e-20)
(1.0018 -0.0027347 4.2498e-19)
(1.00202 -0.00280132 -2.04461e-19)
(1.00229 -0.00285454 1.70036e-19)
(1.00256 -0.00287828 -3.7779e-20)
(1.00288 -0.00287222 -1.08916e-19)
(1.00337 -0.00293344 2.16049e-19)
(1.00367 -0.00275634 1.27792e-20)
(0.999198 -4.16372e-05 -6.54248e-20)
(0.999198 -0.000312693 1.74774e-19)
(0.99921 -0.000592578 -1.03598e-19)
(0.999238 -0.000858671 2.08283e-19)
(0.999286 -0.00111039 -8.11634e-19)
(0.999351 -0.00133334 5.03236e-20)
(0.999434 -0.00153711 -1.41477e-20)
(0.999529 -0.00171278 5.83992e-19)
(0.999637 -0.00186621 -8.4958e-19)
(0.999751 -0.00199625 2.08284e-19)
(0.999873 -0.00210869 3.27464e-19)
(0.999996 -0.00220549 -7.06344e-19)
(1.00012 -0.00228943 -4.48994e-19)
(1.00025 -0.00236467 6.21857e-20)
(1.00038 -0.00243201 2.82221e-19)
(1.00051 -0.00249726 2.03149e-19)
(1.00064 -0.00256007 -1.76462e-19)
(1.00079 -0.00262614 -9.16847e-20)
(1.00094 -0.00269352 -1.75572e-19)
(1.0011 -0.00276576 -2.0734e-19)
(1.00128 -0.00283874 5.02092e-19)
(1.00149 -0.00291277 -1.16013e-18)
(1.00171 -0.00298134 3.06369e-19)
(1.00196 -0.0030414 -4.34927e-19)
(1.00223 -0.00308512 1.18549e-19)
(1.00254 -0.00310867 7.16243e-20)
(1.00285 -0.00309839 4.51555e-20)
(1.0032 -0.00305948 9.87382e-20)
(1.00369 -0.00308635 -1.55831e-19)
(1.00405 -0.00287114 1.57057e-20)
(0.999111 -4.25154e-05 1.98537e-21)
(0.999105 -0.00032746 1.86978e-19)
(0.999109 -0.000622367 -1.82062e-19)
(0.999125 -0.000905628 1.28463e-19)
(0.99916 -0.00117685 3.88943e-20)
(0.99921 -0.0014212 -2.34925e-19)
(0.999279 -0.00164774 5.63032e-19)
(0.999362 -0.00184681 -6.11502e-19)
(0.999461 -0.00202324 6.60863e-19)
(0.99957 -0.00217523 5.0537e-19)
(0.999691 -0.00230817 -2.94958e-19)
(0.999818 -0.00242385 3.39861e-19)
(0.999954 -0.00252527 7.4975e-19)
(1.00009 -0.00261675 -9.93938e-19)
(1.00024 -0.00269934 -4.47348e-19)
(1.0004 -0.00277871 -4.711e-19)
(1.00056 -0.00285419 -1.64871e-19)
(1.00073 -0.00293074 4.75138e-20)
(1.00092 -0.00300552 1.68786e-19)
(1.00113 -0.00308098 4.86937e-19)
(1.00135 -0.00315194 -1.11095e-18)
(1.0016 -0.0032179 3.67789e-19)
(1.00187 -0.00327182 -3.90462e-19)
(1.00216 -0.00331085 4.98387e-19)
(1.00248 -0.00332792 -1.04317e-19)
(1.00282 -0.00332077 -9.90046e-20)
(1.00317 -0.00327815 4.76593e-21)
(1.00354 -0.00321014 1.60578e-19)
(1.00403 -0.0032104 3.61379e-20)
(1.00442 -0.00296818 -2.01829e-20)
(0.99902 -4.24149e-05 4.07857e-20)
(0.999008 -0.000339052 -1.78129e-19)
(0.999004 -0.000646961 4.7224e-20)
(0.999009 -0.000945268 6.64279e-20)
(0.999031 -0.00123408 2.77997e-19)
(0.999068 -0.00149815 5.07316e-19)
(0.999125 -0.00174613 -9.42033e-19)
(0.999198 -0.00196772 1.31211e-18)
(0.99929 -0.0021668 -1.7576e-19)
(0.999397 -0.0023409 -9.54339e-19)
(0.99952 -0.00249491 -3.15602e-19)
(0.999655 -0.00263029 -9.33006e-19)
(0.999804 -0.00274996 -8.43555e-19)
(0.999962 -0.0028581 -5.41762e-19)
(1.00013 -0.00295575 -3.89465e-19)
(1.00032 -0.00304817 5.44962e-19)
(1.00051 -0.00313432 6.02732e-19)
(1.00073 -0.00321841 -1.10353e-18)
(1.00096 -0.00329689 -1.03248e-18)
(1.00121 -0.00337142 4.01305e-19)
(1.00148 -0.00343622 7.0651e-19)
(1.00177 -0.00349047 -4.85848e-19)
(1.00208 -0.00352716 6.00888e-19)
(1.00242 -0.00354406 -1.09036e-19)
(1.00277 -0.00353522 1.42385e-19)
(1.00314 -0.00349999 1.47956e-19)
(1.00351 -0.00342915 3.89404e-19)
(1.00389 -0.00333667 -2.24902e-19)
(1.00438 -0.00331657 6.83411e-20)
(1.00477 -0.00305547 -1.83244e-20)
(0.998924 -4.14723e-05 3.53158e-20)
(0.998908 -0.000347882 -1.36681e-19)
(0.998897 -0.000666611 1.60393e-19)
(0.998893 -0.000977648 -2.58967e-19)
(0.998906 -0.00128164 3.09821e-19)
(0.998934 -0.00156298 -3.63685e-19)
(0.998983 -0.00183004 4.71233e-19)
(0.999051 -0.002072 -4.10679e-19)
(0.999141 -0.00229197 -4.80028e-19)
(0.999249 -0.0024869 1.42611e-18)
(0.999379 -0.00266121 4.65156e-19)
(0.999526 -0.00281591 1.33352e-18)
(0.999691 -0.0029537 8.44825e-19)
(0.999872 -0.0030784 2.78583e-19)
(1.00007 -0.00319081 -2.96351e-19)
(1.00028 -0.00329567 2.55374e-19)
(1.00052 -0.00339146 -4.76442e-19)
(1.00077 -0.00348172 1.19728e-18)
(1.00104 -0.00356232 1.20161e-18)
(1.00133 -0.00363442 -6.45919e-19)
(1.00165 -0.00369191 1.18264e-19)
(1.00198 -0.003734 7.33283e-19)
(1.00233 -0.00375402 4.6498e-20)
(1.0027 -0.00375053 -2.8914e-21)
(1.00308 -0.00371872 2.93273e-21)
(1.00348 -0.00365936 1.37257e-19)
(1.00386 -0.00356483 3.4033e-20)
(1.00426 -0.00345198 -8.02599e-20)
(1.00473 -0.00341582 -1.77755e-20)
(1.00511 -0.00314175 4.67069e-20)
(0.998825 -4.01838e-05 -6.14782e-20)
(0.998806 -0.000354486 -1.24859e-19)
(0.998791 -0.000682228 -1.72514e-19)
(0.998783 -0.00100384 1.30979e-19)
(0.99879 -0.00132066 -8.43593e-19)
(0.998814 -0.00161672 6.60486e-19)
(0.99886 -0.00190026 -3.42339e-19)
(0.998928 -0.00216013 -3.84655e-19)
(0.999022 -0.00239885 -3.01184e-19)
(0.999137 -0.00261295 -1.58776e-18)
(0.999278 -0.00280637 4.11221e-20)
(0.999439 -0.00297971 -1.16477e-18)
(0.999625 -0.00313528 5.18993e-20)
(0.99983 -0.00327643 3.31786e-19)
(1.00006 -0.00340357 7.00873e-19)
(1.0003 -0.00352081 -1.01748e-18)
(1.00057 -0.00362614 2.27252e-19)
(1.00086 -0.00372243 -5.48934e-19)
(1.00118 -0.00380512 -1.12987e-18)
(1.00151 -0.00387499 -4.83154e-19)
(1.00186 -0.00392583 -4.9054e-19)
(1.00223 -0.00395703 1.07966e-19)
(1.00262 -0.00396234 -7.79457e-19)
(1.00302 -0.00394109 9.05305e-20)
(1.00342 -0.00388951 6.22195e-20)
(1.00384 -0.00380947 -3.781e-19)
(1.00422 -0.00369445 -2.80597e-19)
(1.00462 -0.00356341 1.55828e-20)
(1.00508 -0.0035126 3.73736e-20)
(1.00542 -0.00322707 -2.51653e-20)
(0.998723 -3.87586e-05 -2.76328e-20)
(0.998703 -0.000359806 3.79206e-19)
(0.998687 -0.000695084 1.05898e-19)
(0.998678 -0.00102569 -3.39201e-19)
(0.998685 -0.00135346 4.25578e-19)
(0.99871 -0.00166213 -2.53987e-19)
(0.99876 -0.00195994 -1.93045e-19)
(0.998833 -0.00223558 -6.0655e-20)
(0.998934 -0.00249119 1.22676e-19)
(0.99906 -0.002723 9.93272e-19)
(0.999216 -0.00293456 -6.51569e-19)
(0.999396 -0.00312605 9.45714e-19)
(0.999603 -0.00329933 -1.09148e-18)
(0.999834 -0.0034572 -4.7879e-19)
(1.00009 -0.00359951 -6.03287e-19)
(1.00037 -0.00372971 3.31603e-19)
(1.00067 -0.0038452 -3.72022e-19)
(1.001 -0.00394825 -6.31933e-20)
(1.00135 -0.0040339 9.18094e-19)
(1.00172 -0.00410264 1.50025e-18)
(1.00211 -0.00414823 1.274e-18)
(1.00251 -0.0041703 -7.151e-19)
(1.00292 -0.00416302 6.48691e-19)
(1.00335 -0.00412641 2.17915e-19)
(1.00377 -0.0040575 -7.43408e-20)
(1.00419 -0.00395905 2.14e-19)
(1.00458 -0.00382531 7.70612e-20)
(1.00497 -0.00367672 -1.75129e-19)
(1.00541 -0.00361083 -5.9131e-20)
(1.00572 -0.00331322 4.08284e-20)
(0.998618 -3.76925e-05 5.64598e-20)
(0.998599 -0.000364646 -1.34672e-19)
(0.998585 -0.000706738 2.30791e-21)
(0.998578 -0.00104539 -2.63045e-19)
(0.99859 -0.00138298 -1.31942e-19)
(0.998621 -0.00170292 9.55549e-20)
(0.998678 -0.00201361 -4.66198e-19)
(0.998762 -0.00230369 -7.77582e-19)
(0.998875 -0.0025751 6.39186e-19)
(0.999016 -0.00282385 -6.10052e-19)
(0.999189 -0.00305318 -8.07225e-19)
(0.999389 -0.00326283 -5.48103e-19)
(0.99962 -0.00345416 1.66727e-18)
(0.999877 -0.00362929 -6.37069e-20)
(1.00016 -0.00378749 7.94815e-19)
(1.00047 -0.00393143 1.52432e-19)
(1.00081 -0.00405794 7.07951e-19)
(1.00117 -0.00416863 1.11356e-18)
(1.00155 -0.00425821 -3.027e-19)
(1.00196 -0.00432689 -1.46124e-18)
(1.00237 -0.00436846 -4.50317e-19)
(1.00281 -0.00438273 1.93368e-19)
(1.00324 -0.00436428 5.93498e-20)
(1.00368 -0.00431368 -4.4565e-19)
(1.00411 -0.0042286 1.21164e-19)
(1.00455 -0.00411246 -5.84604e-20)
(1.00494 -0.00396004 -2.38019e-19)
(1.00532 -0.00379286 1.66428e-19)
(1.00574 -0.00370968 -2.54003e-21)
(1.00599 -0.0033967 7.78459e-21)
(0.998513 -3.7031e-05 -6.39347e-20)
(0.998495 -0.000369924 1.36015e-19)
(0.998485 -0.000718667 4.0802e-20)
(0.998484 -0.00106522 1.48078e-19)
(0.998503 -0.00141238 5.09889e-19)
(0.998544 -0.00174318 1.94298e-19)
(0.998612 -0.00206629 6.91102e-19)
(0.998709 -0.00237042 3.56626e-19)
(0.998838 -0.00265738 5.06036e-19)
(0.998996 -0.00292307 1.41381e-18)
(0.999188 -0.00317042 2.90107e-19)
(0.99941 -0.00339871 4.52877e-19)
(0.999665 -0.00360875 1.06841e-19)
(0.999949 -0.00380193 3.9423e-19)
(1.00026 -0.00397682 3.30559e-19)
(1.0006 -0.00413531 -4.97075e-19)
(1.00097 -0.00427356 -1.65437e-19)
(1.00136 -0.0043926 -6.91613e-19)
(1.00178 -0.00448675 6.00792e-19)
(1.00221 -0.004556 1.12775e-18)
(1.00265 -0.00459414 -1.19685e-18)
(1.00311 -0.00460118 -4.59832e-19)
(1.00356 -0.004572 -3.3244e-19)
(1.00402 -0.00450767 1.13055e-19)
(1.00446 -0.0044064 -8.0511e-20)
(1.00489 -0.00427212 -4.94025e-20)
(1.00528 -0.00410001 8.54371e-20)
(1.00565 -0.00391242 2.07176e-19)
(1.00605 -0.00380918 3.0975e-20)
(1.00626 -0.00347692 -2.96554e-20)
(0.998406 -3.71436e-05 5.96433e-20)
(0.99839 -0.000376276 -4.82282e-20)
(0.998385 -0.000732296 -9.64502e-20)
(0.998391 -0.00108729 3.08792e-19)
(0.998421 -0.00144461 2.28971e-22)
(0.998474 -0.00178677 6.46841e-20)
(0.998556 -0.0021228 -5.09971e-19)
(0.998669 -0.00244152 4.03072e-19)
(0.998815 -0.00274468 -1.44439e-18)
(0.998992 -0.00302804 -3.85095e-19)
(0.999205 -0.00329422 4.21697e-19)
(0.99945 -0.00354201 -3.50695e-19)
(0.999729 -0.00377158 -7.59122e-19)
(1.00004 -0.00398355 8.19378e-19)
(1.00038 -0.00417575 2.08849e-19)
(1.00075 -0.00434921 -8.95153e-19)
(1.00115 -0.00449949 -9.45554e-20)
(1.00157 -0.00462697 1.76219e-19)
(1.00201 -0.00472566 -1.08628e-18)
(1.00247 -0.00479532 -5.72886e-19)
(1.00294 -0.00482975 7.35102e-19)
(1.00341 -0.00482913 5.19496e-19)
(1.00388 -0.00478867 1.09858e-19)
(1.00435 -0.00470983 9.19863e-20)
(1.00479 -0.00459129 4.42237e-20)
(1.00523 -0.00443742 -2.42386e-19)
(1.00561 -0.00424374 3.58096e-19)
(1.00597 -0.00403321 1.97006e-20)
(1.00635 -0.00390661 -8.38043e-20)
(1.0065 -0.00355035 -2.49392e-20)
(0.998298 -3.79058e-05 -5.10594e-20)
(0.998284 -0.000384332 -1.64786e-20)
(0.998285 -0.000748699 -2.06957e-19)
(0.9983 -0.00111342 1.37045e-19)
(0.99834 -0.0014822 -7.28263e-19)
(0.998407 -0.00183702 -5.39101e-19)
(0.998505 -0.00218725 1.64282e-19)
(0.998634 -0.00252185 -3.47249e-19)
(0.998799 -0.00284246 9.39084e-19)
(0.998997 -0.0031447 -1.81217e-18)
(0.999231 -0.00343085 7.9097e-19)
(0.999499 -0.00369912 -3.78841e-20)
(0.999803 -0.00394902 -1.08534e-18)
(1.00014 -0.00418033 -1.7433e-18)
(1.00051 -0.00439011 -9.12256e-19)
(1.00091 -0.00457855 5.24295e-19)
(1.00133 -0.00474058 2.33532e-19)
(1.00178 -0.00487601 -3.73415e-19)
(1.00224 -0.00497852 3.42257e-19)
(1.00273 -0.00504769 5.6775e-19)
(1.00321 -0.00507738 6.44822e-20)
(1.00371 -0.00506793 -1.2851e-19)
(1.00419 -0.00501486 2.12562e-19)
(1.00467 -0.00492003 -3.64082e-19)
(1.00512 -0.00478258 -4.19895e-20)
(1.00555 -0.00460727 3.20142e-19)
(1.00593 -0.00438994 -5.12997e-19)
(1.00628 -0.004154 -1.13044e-19)
(1.00663 -0.00400107 7.31895e-20)
(1.00674 -0.00361652 3.23007e-20)
(0.998188 -3.95717e-05 8.62763e-20)
(0.998175 -0.000394421 -2.99791e-19)
(0.998183 -0.000768852 2.35081e-19)
(0.998207 -0.001145 1.13401e-19)
(0.998259 -0.00152713 3.74615e-19)
(0.998339 -0.00189648 4.23147e-19)
(0.998453 -0.00226278 -7.1571e-20)
(0.998601 -0.00261509 5.86354e-21)
(0.998784 -0.00295486 -6.44885e-19)
(0.999002 -0.00327753 1.55288e-18)
(0.999259 -0.0035849 3.44712e-19)
(0.99955 -0.00387463 7.19177e-20)
(0.999879 -0.00414545 1.64598e-18)
(1.00024 -0.0043963 1.81847e-18)
(1.00064 -0.00462346 7.57416e-20)
(1.00106 -0.00482632 1.44092e-18)
(1.00151 -0.00499921 -9.84363e-19)
(1.00199 -0.0051414 -2.39285e-19)
(1.00248 -0.00524634 1.86472e-19)
(1.00298 -0.00531346 -9.08819e-19)
(1.00349 -0.00533671 -4.23581e-19)
(1.00399 -0.00531665 3.83152e-19)
(1.00449 -0.00524912 -1.66487e-19)
(1.00497 -0.00513637 4.43981e-19)
(1.00543 -0.004978 -1.01586e-21)
(1.00586 -0.00477914 -1.77517e-19)
(1.00623 -0.00453592 2.03177e-19)
(1.00656 -0.00427213 -2.30035e-20)