1.45 	0 	0 	-0.292499
2.35 	0 	0 	-0.127768
