/*--------------------------------*- C++ -*----------------------------------*\
  =========                 |
  \\      /  F ield         | OpenFOAM: The Open Source CFD Toolbox
   \\    /   O peration     | Website:  https://openfoam.org
    \\  /    A nd           | Version:  6.0
     \\/     M anipulation  |
\*---------------------------------------------------------------------------*/
FoamFile
{
    version     2.0;
    format      ascii;
    class       surfaceScalarField;
    location    "21";
    object      phi;
}
// * * * * * * * * * * * * * * * * * * * * * * * * * * * * * * * * * * * * * //

dimensions      [0 3 -1 0 0 0 0];

internalField   nonuniform List<scalar> 
68636
(
3.02624e-05
0.00310559
-1.27765e-08
6.08499e-05
0.00307087
9.10661e-05
0.00300291
0.000120447
0.00290195
0.000148604
0.00276895
0.000175161
0.00260557
0.000199811
0.00241364
0.000222266
0.00219532
0.000242273
0.00195308
0.000259599
0.00168963
0.00027405
0.00140773
0.000285467
0.00111022
0.000293758
0.000800522
0.000298752
0.000481237
0.000151624
0.00029762
2.99715e-05
0.00307565
-2.28326e-08
6.0262e-05
0.00304059
9.02081e-05
0.002973
0.000119338
0.00287286
0.000147251
0.0027411
0.000173568
0.00257931
0.000197993
0.00238929
0.000220243
0.00217314
0.000240065
0.00193334
0.00025723
0.00167255
0.000271548
0.00139351
0.000282852
0.00109902
0.000291138
0.000792359
0.000295744
0.000476805
0.000152778
0.000294888
2.96793e-05
0.00304599
-2.23341e-08
5.96885e-05
0.00301058
8.93747e-05
0.00294333
0.000118254
0.00284399
0.000145918
0.00271345
0.000171996
0.00255324
0.000196197
0.0023651
0.000218242
0.0021511
0.00023788
0.00191371
0.000254884
0.00165554
0.00026907
0.00137932
0.000280261
0.00108782
0.000288479
0.000784129
0.000293214
0.000472045
0.000152822
0.000293072
2.93927e-05
0.00301662
-1.76416e-08
5.9133e-05
0.00298084
8.85626e-05
0.00291392
0.000117187
0.00281538
0.000144599
0.00268608
0.000170437
0.00252744
0.000194417
0.00234117
0.000216258
0.00212931
0.000235713
0.00189431
0.000252558
0.00163876
0.000266611
0.00136534
0.000277692
0.00107681
0.000285807
0.00077611
0.000290617
0.000467373
0.000152753
0.000290912
2.91136e-05
0.00298751
-4.95102e-09
5.85932e-05
0.00295136
8.77662e-05
0.00288476
0.000116131
0.00278702
0.00014329
0.00265892
0.000168892
0.00250184
0.000192653
0.00231742
0.000214292
0.00210766
0.000233564
0.00187504
0.00025025
0.00162206
0.000264172
0.00135141
0.000275148
0.00106582
0.000283151
0.000768085
0.00028795
0.000462538
0.000152012
0.000288575
2.8842e-05
0.00295866
1.26943e-08
5.80655e-05
0.00292214
8.69806e-05
0.00285586
0.000115085
0.00275893
0.000141991
0.00263204
0.000167359
0.0024765
0.000190904
0.00229391
0.000212344
0.00208626
0.000231436
0.00185599
0.000247965
0.00160558
0.000261757
0.00133767
0.000272631
0.00105501
0.000280526
0.000760271
0.00028529
0.000457893
0.000151322
0.00028617
2.85769e-05
0.00293005
2.99331e-08
5.75466e-05
0.00289317
8.62029e-05
0.00282721
0.000114046
0.00273109
0.000140702
0.00260539
0.000165838
0.00245136
0.000189169
0.00227057
0.000210412
0.00206501
0.000229326
0.00183707
0.0002457
0.00158919
0.000259364
0.00132399
0.00027014
0.00104422
0.000277937
0.000752445
0.000282655
0.000453132
0.000150166
0.000283689
2.83171e-05
0.0029017
4.63991e-08
5.70338e-05
0.00286446
8.54309e-05
0.00279883
0.000113014
0.00270352
0.000139422
0.002579
0.000164329
0.00242647
0.000187448
0.00224748
0.000208495
0.00204399
0.000227233
0.00181836
0.000243455
0.00157301
0.000256992
0.0013105
0.000267672
0.0010336
0.000275381
0.000744808
0.000280048
0.000448573
0.000149204
0.000281178
2.80612e-05
0.00287358
5.60949e-08
5.65247e-05
0.00283599
8.46631e-05
0.00277069
0.00011199
0.00267619
0.000138152
0.00255284
0.000162832
0.00240179
0.00018574
0.00222457
0.000206593
0.00202312
0.000225157
0.00179979
0.000241228
0.00155693
0.000254641
0.00129707
0.000265226
0.00102299
0.000272856
0.000737147
0.000277473
0.000443908
0.000147863
0.000278689
2.78082e-05
0.00284572
5.71462e-08
5.60178e-05
0.00280779
8.38989e-05
0.00274282
0.000110973
0.00264913
0.000136894
0.00252694
0.000161349
0.00237735
0.000184046
0.0022019
0.000204706
0.00200249
0.000223097
0.00178143
0.00023902
0.00154104
0.00025231
0.00128382
0.000262802
0.00101255
0.000270357
0.000729656
0.000274932
0.000439431
0.000146709
0.00027624
2.75571e-05
0.00281811
5.03211e-08
5.55125e-05
0.00277983
8.31381e-05
0.00271519
0.000109963
0.00262229
0.000135648
0.00250125
0.00015988
0.00235311
0.000182368
0.00217941
0.000202835
0.00198201
0.000221056
0.0017632
0.000236832
0.00152525
0.00025
0.00127063
0.000260401
0.00100212
0.000267885
0.000722137
0.000272421
0.000434845
0.000145191
0.000273813
2.73077e-05
0.00279077
3.65476e-08
5.50087e-05
0.00275214
8.23811e-05
0.00268783
0.000108962
0.00259573
0.000134414
0.00247581
0.000158425
0.00232912
0.000180705
0.00215715
0.000200982
0.00196176
0.000219033
0.00174518
0.000234665
0.00150965
0.000247713
0.00125762
0.000258023
0.000991862
0.000265439
0.000714781
0.000269935
0.000430439
0.000143883
0.000271386
2.70598e-05
0.00276368
2.07686e-08
5.45071e-05
0.00272469
8.16288e-05
0.00266071
0.000107969
0.00256938
0.000133191
0.00245059
0.000156983
0.00230532
0.000179057
0.00213507
0.000199145
0.00194166
0.000217029
0.00172728
0.000232519
0.00149414
0.000245449
0.00124467
0.000255668
0.000981617
0.000263018
0.000707393
0.000267471
0.000425934
0.00014228
0.000268948
2.68135e-05
0.00273687
7.19162e-09
5.40085e-05
0.0026975
8.08819e-05
0.00263385
0.000106984
0.00254329
0.000131979
0.00242561
0.000155554
0.00228176
0.000177423
0.00211322
0.000197324
0.00192178
0.000215044
0.00170958
0.000230393
0.00147883
0.000243207
0.00123189
0.000253337
0.000971533
0.000260623
0.000700163
0.00026503
0.000421611
0.000140942
0.000266503
2.65689e-05
0.0027103
-7.21079e-10
5.35137e-05
0.00267055
8.01412e-05
0.00260721
0.000106008
0.00251742
0.000130778
0.00240083
0.000154137
0.0022584
0.000175802
0.00209155
0.000195519
0.00190205
0.000213076
0.00169201
0.000228287
0.0014636
0.000240986
0.00121917
0.000251028
0.000961464
0.000258252
0.0006929
0.000262612
0.000417197
0.000139366
0.000264062
2.63263e-05
0.00268398
-7.35701e-10
5.30233e-05
0.00264386
7.94075e-05
0.00258084
0.000105041
0.00249179
0.000129586
0.0023763
0.00015273
0.00223527
0.000174194
0.0020701
0.000193729
0.00188254
0.000211127
0.00167464
0.000226202
0.00144855
0.000238788
0.00120662
0.000248742
0.000951553
0.000255905
0.000685789
0.00026022
0.000412963
0.000138076
0.000261639
2.60857e-05
0.00265788
6.24672e-09
5.25378e-05
0.00261741
7.86809e-05
0.00255469
0.000104082
0.00246638
0.000128403
0.00235197
0.000151334
0.00221233
0.000172599
0.00204883
0.000191954
0.00186317
0.000209194
0.00165738
0.000224135
0.00143359
0.00023661
0.00119412
0.000246477
0.000941658
0.000253581
0.000678645
0.000257853
0.000408635
0.000136562
0.000259244
2.58473e-05
0.00263202
1.81141e-08
5.20573e-05
0.0025912
7.79615e-05
0.0025288
0.000103131
0.00244122
0.00012723
0.00232788
0.000149949
0.00218962
0.000171017
0.00202777
0.000190195
0.00184401
0.00020728
0.00164032
0.000222088
0.00141881
0.000234453
0.00118179
0.000244234
0.000931918
0.000251279
0.000671651
0.000255512
0.000404478
0.000135317
0.000256882
2.56112e-05
0.00260638
3.15554e-08
5.15818e-05
0.00256523
7.72492e-05
0.00250312
0.000102189
0.00241628
0.000126065
0.002304
0.000148574
0.0021671
0.000169447
0.00200689
0.000188451
0.00182499
0.000205383
0.00162337
0.000220061
0.00140412
0.000232317
0.00116951
0.000242013
0.000922194
0.000248998
0.000664623
0.000253197
0.000400223
0.000133837
0.000254555
2.53772e-05
0.00258096
4.31688e-08
5.1111e-05
0.0025395
7.65437e-05
0.0024777
0.000101255
0.00239158
0.000124911
0.00228036
0.00014721
0.00214482
0.000167891
0.00198622
0.000186723
0.00180618
0.000203504
0.00160661
0.000218054
0.00138959
0.000230202
0.00115739
0.000239813
0.000912623
0.00024674
0.000657745
0.000250906
0.00039613
0.000132604
0.000252261
2.51454e-05
0.00255576
5.06563e-08
5.06446e-05
0.002514
7.58445e-05
0.00245249
0.000100328
0.00236708
0.000123765
0.00225691
0.000145858
0.00212272
0.000166349
0.00196572
0.000185012
0.00178751
0.000201645
0.00158996
0.000216067
0.00137515
0.000228109
0.00114532
0.000237635
0.000903068
0.000244503
0.000650835
0.000248639
0.000391938
0.000131125
0.000249997
2.49157e-05
0.0025308
5.27217e-08
5.01825e-05
0.00248874
7.51515e-05
0.00242753
9.94096e-05
0.00234283
0.000122629
0.0022337
0.000144518
0.00210084
0.000164822
0.00194543
0.000183318
0.00176903
0.000199804
0.0015735
0.0002141
0.00136088
0.000226037
0.00113342
0.00023548
0.000893664
0.000242288
0.000644073
0.000246394
0.000387903
0.00012988
0.000247758
2.46881e-05
0.00250606
4.94888e-08
4.97242e-05
0.0024637
7.44642e-05
0.00240279
9.84984e-05
0.00231879
0.000121503
0.00221069
0.00014319
0.00207914
0.00016331
0.0019253
0.000181641
0.00175068
0.000197983
0.00155714
0.000212154
0.00134669
0.000223987
0.00112156
0.000233346
0.000884276
0.000240095
0.000637281
0.000244172
0.00038377
0.000128392
0.000245542
2.44625e-05
0.00248156
4.21256e-08
4.92697e-05
0.00243889
7.37825e-05
0.00237828
9.75948e-05
0.00229499
0.000120386
0.00218791
0.000141875
0.00205767
0.000161814
0.00190538
0.000179982
0.00173253
0.000196181
0.00154096
0.000210229
0.00133267
0.000221958
0.00110986
0.000231234
0.000875037
0.000237925
0.000630636
0.00024197
0.000379793
0.000127134
0.000243345
2.42387e-05
0.00245728
3.23766e-08
4.88188e-05
0.00241431
7.31065e-05
0.00235399
9.6699e-05
0.00227139
0.00011928
0.00216532
0.000140573
0.00203637
0.000160333
0.0018856
0.000178341
0.00171451
0.000194399
0.00152489
0.000208324
0.00131872
0.00021995
0.00109821
0.000229144
0.000865814
0.000235775
0.000623962
0.00023979
0.000375722
0.000125642
0.000241166
2.40169e-05
0.00243325
2.22636e-08
4.83716e-05
0.00238996
7.2436e-05
0.00232993
9.58111e-05
0.00224802
0.000118185
0.00214296
0.000139285
0.00201528
0.000158869
0.00186603
0.000176719
0.00169668
0.000192636
0.00150899
0.000206439
0.00130494
0.000217963
0.00108671
0.000227075
0.000856738
0.000233647
0.000617434
0.000237629
0.000371807
0.000124382
0.000239004
2.37969e-05
0.00240943
1.35423e-08
4.7928e-05
0.00236583
7.17712e-05
0.00230608
9.49315e-05
0.00222486
0.000117101
0.00212078
0.00013801
0.00199436
0.00015742
0.00184661
0.000175114
0.00167897
0.000190892
0.00149319
0.000204574
0.00129124
0.000215996
0.00107526
0.000225026
0.000847679
0.00023154
0.000610877
0.000235488
0.000367801
0.000122899
0.000236858
2.35786e-05
0.00238585
7.51063e-09
4.74881e-05
0.00234192
7.11124e-05
0.00228247
9.40603e-05
0.00220192
0.000116028
0.00209882
0.000136749
0.00197365
0.000155988
0.00182739
0.000173526
0.00166145
0.000189166
0.00147757
0.000202729
0.0012777
0.000214049
0.00106397
0.000222998
0.000838766
0.000229453
0.000604466
0.000233367
0.000363952
0.000121652
0.000234728
2.33623e-05
0.00236248
4.83828e-09
4.70522e-05
0.00231823
7.04598e-05
0.00225905
9.31978e-05
0.00217917
0.000114967
0.00207704
0.000135503
0.00195311
0.000154571
0.00180831
0.000171956
0.00164405
0.000187459
0.00146205
0.000200902
0.00126424
0.000212121
0.00105272
0.000220989
0.000829869
0.000227385
0.000598027
0.000231264
0.000360016
0.000120191
0.000232613
2.31478e-05
0.00233933
5.56382e-09
4.66203e-05
0.00229476
6.98136e-05
0.00223587
9.23444e-05
0.00215665
0.000113917
0.00205548
0.00013427
0.00193276
0.00015317
0.00178942
0.000170403
0.00162683
0.000185769
0.0014467
0.000199093
0.00125094
0.000210212
0.00104163
0.000218999
0.000821116
0.000225337
0.000591731
0.00022918
0.000356237
0.00011897
0.000230515
2.29352e-05
0.00231638
9.23538e-09
4.61927e-05
0.0022715
6.9174e-05
0.00221288
9.15001e-05
0.00213432
0.000112879
0.0020341
0.000133051
0.00191258
0.000151785
0.00177068
0.000168866
0.00160974
0.000184097
0.00143145
0.000197302
0.00123772
0.000208321
0.00103059
0.000217028
0.00081238
0.000223308
0.000585408
0.000227114
0.000352373
0.000117541
0.000228432
2.27247e-05
0.00229365
1.50711e-08
4.57694e-05
0.00224846
6.85411e-05
0.00219012
9.06651e-05
0.0021122
0.000111852
0.00201292
0.000131846
0.0018926
0.000150415
0.00175212
0.000167345
0.00159282
0.000182442
0.00141637
0.000195529
0.00122465
0.000206448
0.00101969
0.000215074
0.000803787
0.000221296
0.000579228
0.000225066
0.000348666
0.000116353
0.000226366
2.25161e-05
0.00227111
2.21618e-08
4.53505e-05
0.00222562
6.79152e-05
0.00216755
8.98394e-05
0.00209027
0.000110837
0.00199191
0.000130654
0.00187278
0.000149059
0.0017337
0.00016584
0.00157603
0.000180802
0.0014014
0.000193772
0.00121166
0.000204591
0.00100885
0.000213138
0.00079521
0.000219302
0.000573021
0.000223035
0.000344876
0.000114963
0.000224316
2.23097e-05
0.00224877
2.96415e-08
4.49362e-05
0.002203
6.72962e-05
0.00214519
8.9023e-05
0.00206855
0.000109833
0.00197111
0.000129475
0.00185315
0.000147717
0.00171547
0.00016435
0.00155941
0.000179178
0.00138659
0.000192031
0.00119883
0.000202752
0.000998152
0.000211219
0.000786776
0.000217326
0.000566956
0.000221022
0.000341241
0.00011381
0.000222284
2.21054e-05
0.00222663
3.67916e-08
4.45264e-05
0.00218058
6.66841e-05
0.00212303
8.82159e-05
0.00204701
0.000108841
0.00195048
0.000128308
0.00183367
0.000146389
0.00169738
0.000162874
0.00154291
0.00017757
0.00137187
0.000190305
0.00118608
0.000200928
0.000987504
0.000209317
0.000778357
0.000215366
0.000560864
0.000219025
0.000337524
0.000112459
0.000220268
2.19034e-05
0.00220469
4.31181e-08
4.41212e-05
0.00215837
6.60789e-05
0.00210108
8.74177e-05
0.00202568
0.000107859
0.00193005
0.000127154
0.00181439
0.000145075
0.00167947
0.000161413
0.00152659
0.000175976
0.00135733
0.000188595
0.00117348
0.00019912
0.000977004
0.00020743
0.000770079
0.000213422
0.000554912
0.000217045
0.000333963
0.000111343
0.000218269
2.17035e-05
0.00218293
4.83405e-08
4.37205e-05
0.00213635
6.54805e-05
0.00207931
8.66283e-05
0.00200453
0.000106888
0.00190978
0.000126011
0.00179526
0.000143773
0.0016617
0.000159964
0.00151039
0.000174395
0.00134288
0.0001869
0.00116096
0.000197327
0.000966551
0.00020556
0.000761816
0.000211495
0.000548934
0.000215081
0.000330319
0.00011003
0.000216287
2.15057e-05
0.00216138
5.23808e-08
4.33242e-05
0.00211453
6.48887e-05
0.00205775
8.58473e-05
0.00198358
0.000105927
0.00188971
0.00012488
0.00177631
0.000142483
0.00164411
0.000158529
0.00149436
0.000172829
0.0013286
0.000185218
0.00114859
0.000195549
0.000956245
0.000203705
0.000753693
0.000209584
0.000543094
0.000213134
0.000326828
0.000108948
0.000214322
2.13102e-05
0.00214001
5.52956e-08
4.29323e-05
0.00209291
6.43032e-05
0.00203638
8.50746e-05
0.0019628
0.000104975
0.0018698
0.000123759
0.00175752
0.000141205
0.00162666
0.000157106
0.00147844
0.000171276
0.00131441
0.000183551
0.00113629
0.000193786
0.000945985
0.000201865
0.000745584
0.000207688
0.000537228
0.000211202
0.000323255
0.000107672
0.000212373
2.11167e-05
0.00211884
5.72382e-08
4.25445e-05
0.00207149
6.3724e-05
0.00201521
8.43098e-05
0.00194222
0.000104033
0.00185009
0.000122649
0.00173891
0.000139938
0.00160938
0.000155695
0.0014627
0.000169736
0.00130038
0.000181898
0.00112415
0.000192037
0.000935869
0.00020004
0.000737613
0.000205808
0.000531499
0.000209287
0.000319835
0.000106623
0.000210441
2.09253e-05
0.00209785
5.8394e-08
4.21608e-05
0.00205024
6.31507e-05
0.00199421
8.35525e-05
0.00192181
0.000103099
0.00183053
0.000121549
0.00172046
0.000138682
0.00159224
0.000154296
0.00144707
0.000168208
0.00128646
0.000180258
0.00111208
0.000190303
0.000925799
0.00019823
0.000729655
0.000203943
0.000525743
0.000207387
0.000316332
0.00010538
0.000208525
2.07359e-05
0.00207706
5.89583e-08
4.17811e-05
0.00202921
6.2583e-05
0.00197341
8.28024e-05
0.0019016
0.000102174
0.00181117
0.000120458
0.00170218
0.000137436
0.00157527
0.000152909
0.00143161
0.000166693
0.00127269
0.000178631
0.00110016
0.000188583
0.000915871
0.000196435
0.000721833
0.000202094
0.000520123
0.000205503
0.000312979
0.000104361
0.000206626
2.05485e-05
0.00205645
5.90976e-08
4.14051e-05
0.00200834
6.20208e-05
0.00195279
8.20592e-05
0.00188156
0.000101257
0.00179196
0.000119377
0.00168405
0.000136201
0.00155843
0.000151532
0.00141627
0.00016519
0.00125901
0.000177018
0.00108832
0.000186876
0.000905987
0.000194655
0.000714024
0.000200259
0.000514475
0.000203635
0.000309545
0.000103149
0.000204743
2.03628e-05
0.00203603
5.89552e-08
4.10327e-05
0.00198768
6.14638e-05
0.00193237
8.13226e-05
0.00186171
0.000100348
0.00177295
0.000118305
0.00166611
0.000134976
0.00154177
0.000150167
0.00140109
0.000163699
0.0012455
0.000175417
0.00107662
0.000185184
0.000896243
0.000192889
0.000706349
0.00019844
0.000508962
0.000201783
0.000306259
0.000102157
0.000202876
2.0179e-05
0.00201579
5.86328e-08
4.06637e-05
0.00196719
6.09119e-05
0.00191211
8.05925e-05
0.00184202
9.9447e-05
0.00175408
0.000117241
0.00164831
0.000133761
0.00152524
0.000148813
0.00138603
0.00016222
0.00123207
0.000173829
0.00106499
0.000183505
0.000886543
0.000191138
0.000698685
0.000196636
0.00050342
0.000199946
0.000302891
0.000100974
0.000201026
1.99968e-05
0.00199574
5.82097e-08
4.0298e-05
0.0019469
6.03647e-05
0.00189205
7.98684e-05
0.00182252
9.8553e-05
0.00173541
0.000116186
0.00163068
0.000132555
0.00150888
0.000147469
0.00137113
0.000160752
0.0012188
0.000172254
0.00105351
0.000181839
0.00087698
0.000189401
0.000691154
0.000194847
0.00049801
0.000198125
0.000299668
0.000100006
0.000199192
1.98164e-05
0.00197586
5.77336e-08
3.99356e-05
0.00192677
5.98221e-05
0.00187216
7.91503e-05
0.00180319
9.76661e-05
0.00171688
0.000115139
0.0016132
0.000131359
0.00149265
0.000146136
0.00135634
0.000159297
0.00120563
0.000170692
0.00104209
0.000180188
0.000867458
0.000187678
0.000683632
0.000193073
0.000492571
0.000196319
0.000296364
9.88486e-05
0.000197374
1.96374e-05
0.00195617
5.72422e-08
3.95762e-05
0.00190684
5.9284e-05
0.00185246
7.8438e-05
0.00178404
9.67862e-05
0.00169854
0.0001141
0.0015959
0.000130172
0.00147659
0.000144813
0.00134171
0.000157853
0.0011926
0.000169142
0.00103082
0.00017855
0.000858073
0.00018597
0.000676241
0.000191315
0.000487263
0.000194529
0.000293204
9.79033e-05
0.000195572
1.94601e-05
0.00193665
5.67542e-08
3.92197e-05
0.00188707
5.87502e-05
0.00183292
7.77313e-05
0.00176505
9.59132e-05
0.00168035
0.000113069
0.00157873
0.000128994
0.00146066
0.000143501
0.00132719
0.00015642
0.00117967
0.000167605
0.00101962
0.000176925
0.000848727
0.000184277
0.000668859
0.000189571
0.000481925
0.000192754
0.000289962
9.67697e-05
0.000193786
1.92841e-05
0.00191731
5.62875e-08
3.88662e-05
0.0018675
5.82206e-05
0.00181358
7.70301e-05
0.00174625
9.5047e-05
0.00166235
0.000112047
0.00156174
0.000127825
0.00144489
0.000142199
0.00131283
0.000154999
0.00116688
0.00016608
0.00100856
0.000175314
0.000839515
0.000182597
0.000661605
0.000187842
0.000476716
0.000190995
0.000286862
9.58443e-05
0.000192016
1.91097e-05
0.00189814
5.58478e-08
3.85155e-05
0.00184809
5.76952e-05
0.00179439
7.63344e-05
0.00172761
9.41874e-05
0.00164448
0.000111032
0.00154489
0.000126666
0.00142924
0.000140908
0.00129858
0.00015359
0.00115418
0.000164569
0.000997558
0.000173717
0.000830342
0.000180932
0.000654359
0.000186128
0.000471477
0.000189251
0.00028368
9.47323e-05
0.000190262
1.89366e-05
0.00187915
5.5445e-08
3.81675e-05
0.00182886
5.71739e-05
0.00177539
7.5644e-05
0.00170914
9.33346e-05
0.0016268
0.000110025
0.00152821
0.000125516
0.00141376
0.000139627
0.00128448
0.000152192
0.00114163
0.000163069
0.000986699
0.000172133
0.0008213
0.000179281
0.000647239
0.000184429
0.000466364
0.000187522
0.000280639
9.38254e-05
0.000188524
1.87649e-05
0.00186033
5.50801e-08
3.78222e-05
0.0018098
5.66566e-05
0.00175655
7.4959e-05
0.00169083
9.24883e-05
0.00160926
0.000109026
0.00151166
0.000124375
0.0013984
0.000138356
0.00127048
0.000150805
0.00112917
0.000161583
0.000975902
0.000170563
0.000812294
0.000177645
0.000640125
0.000182745
0.000461221
0.00018581
0.000277515
9.27332e-05
0.000186801
1.85946e-05
0.00184169
5.47587e-08
3.74796e-05
0.00179092
5.61432e-05
0.00173789
7.42793e-05
0.0016727
9.16487e-05
0.0015919
0.000108035
0.00149529
0.000123244
0.00138321
0.000137096
0.00125665
0.000149431
0.00111684
0.000160109
0.000965242
0.000169006
0.000803418
0.000176023
0.000633136
0.000181075
0.000456203
0.000184112
0.00027453
9.18428e-05
0.000185095
1.84256e-05
0.0018232
5.4479e-08
3.71397e-05
0.0017722
5.56339e-05
0.00171939
7.36049e-05
0.00165473
9.08157e-05
0.00157468
0.000107052
0.00147904
0.000122121
0.00136813
0.000135846
0.00124291
0.000148068
0.00110461
0.000158647
0.000954642
0.000167463
0.000794577
0.000174415
0.000626153
0.000179421
0.000451153
0.000182429
0.000271463
9.07691e-05
0.000183403
1.82579e-05
0.00180489
5.42438e-08
3.68025e-05
0.00175366
5.51285e-05
0.00170107
7.29357e-05
0.00163693
8.99893e-05
0.00155764
0.000106077
0.00146296
0.000121008
0.00135321
0.000134607
0.00122932
0.000146716
0.00109251
0.000157199
0.000944177
0.000165933
0.000785864
0.000172822
0.000619292
0.000177781
0.000446227
0.000180762
0.000268533
8.98942e-05
0.000181728
1.80916e-05
0.00178674
5.40493e-08
3.64678e-05
0.00173528
5.46271e-05
0.00168291
7.22719e-05
0.00161928
8.91696e-05
0.00154073
0.00010511
0.00144701
0.000119904
0.0013384
0.000133378
0.00121583
0.000145376
0.0010805
0.000155763
0.000933771
0.000164417
0.000777184
0.000171242
0.000612436
0.000176157
0.000441269
0.00017911
0.000265521
8.88377e-05
0.000180068
1.79266e-05
0.00176877
5.38963e-08
3.61359e-05
0.00171708
5.41297e-05
0.00166492
7.16134e-05
0.0016018
8.83565e-05
0.001524
0.000104151
0.00143123
0.000118809
0.00132375
0.00013216
0.0012025
0.000144048
0.00106862
0.000154339
0.000923498
0.000162914
0.000768629
0.000169677
0.0006057
0.000174547
0.000436433
0.000177473
0.000262643
8.7977e-05
0.000178423
1.77629e-05
0.00175095
5.37794e-08
3.58065e-05
0.00169903
5.36363e-05
0.00164708
7.09603e-05
0.00158447
8.75501e-05
0.0015074
0.0001032
0.00141557
0.000117724
0.00130922
0.000130952
0.00118925
0.000142731
0.00105683
0.000152928
0.000913281
0.000161425
0.000760107
0.000168126
0.000598968
0.000172951
0.000431564
0.000175851
0.000259684
8.69365e-05
0.000176793
1.76005e-05
0.0017333
5.36978e-08
3.54798e-05
0.00168116
5.31468e-05
0.00162942
7.03125e-05
0.00156731
8.67505e-05
0.00149097
0.000102257
0.00140007
0.000116648
0.00129484
0.000129755
0.00117616
0.000141426
0.00104517
0.00015153
0.000903195
0.000159949
0.000751709
0.000166589
0.000592355
0.00017137
0.000426815
0.000174244
0.000256859
8.60894e-05
0.000175179
1.74394e-05
0.0017158
5.36456e-08
3.51558e-05
0.00166343
5.26614e-05
0.00161191
6.967e-05
0.00155029
8.59575e-05
0.00147467
0.000101322
0.0013847
0.000115581
0.00128057
0.000128568
0.00116316
0.000140133
0.00103359
0.000150144
0.000893164
0.000158486
0.000743341
0.000165066
0.000585744
0.000169804
0.000422034
0.000172652
0.000253952
8.50643e-05
0.000173579
1.72797e-05
0.00169847
5.36212e-08
3.48344e-05
0.00164589
5.21799e-05
0.00159457
6.9033e-05
0.00153345
8.51713e-05
0.00145854
0.000100395
0.00136948
0.000114523
0.00126645
0.000127392
0.0011503
0.000138851
0.00102214
0.000148771
0.00088326
0.000157037
0.000735095
0.000163557
0.000579251
0.000168252
0.000417371
0.000171075
0.000251177
8.42297e-05
0.000171995
1.71213e-05
0.00168129
5.36182e-08
3.45157e-05
0.00162849
5.17026e-05
0.00157738
6.84013e-05
0.00151674
8.43919e-05
0.00144255
9.94764e-05
0.00135439
0.000113475
0.00125244
0.000126226
0.00113754
0.000137581
0.00101077
0.00014741
0.000873411
0.000155601
0.000726879
0.000162061
0.000572759
0.000166714
0.000412674
0.000169512
0.00024832
8.32191e-05
0.000170425
1.69642e-05
0.00166428
5.36347e-08
3.41997e-05
0.00161126
5.12292e-05
0.00156035
6.77751e-05
0.0015002
8.36192e-05
0.00142671
9.85656e-05
0.00133945
0.000112437
0.00123858
0.000125071
0.00112492
0.000136322
0.000999533
0.000146062
0.000863688
0.000154178
0.000718782
0.00016058
0.000566383
0.000165191
0.000408095
0.000167964
0.000245594
8.23969e-05
0.00016887
1.68085e-05
0.00164741
5.36648e-08
3.38864e-05
0.00159417
5.07599e-05
0.00154348
6.71543e-05
0.0014838
8.28533e-05
0.001411
9.76629e-05
0.00132463
0.000111407
0.00122482
0.000123926
0.00111238
0.000135074
0.000988368
0.000144726
0.000854017
0.000152768
0.000710714
0.000159112
0.000560008
0.000163681
0.000403483
0.00016643
0.000242787
8.14004e-05
0.00016733
1.66541e-05
0.00163071
5.37066e-08
3.35757e-05
0.00157726
5.02947e-05
0.00152676
6.65389e-05
0.00146757
8.20942e-05
0.00139545
9.67682e-05
0.00130997
0.000110387
0.00121121
0.000122791
0.00109999
0.000133838
0.000977334
0.000143402
0.00084447
0.000151371
0.000702764
0.000157658
0.000553747
0.000162186
0.000398985
0.000164911
0.000240108
8.05897e-05
0.000165804
1.65011e-05
0.00161415
5.37547e-08
3.32678e-05
0.00156049
4.98336e-05
0.00151019
6.59289e-05
0.00145146
8.13418e-05
0.00138003
9.58816e-05
0.00129542
0.000109376
0.00119771
0.000121667
0.00108769
0.000132613
0.000966372
0.00014209
0.000834973
0.000149987
0.000694841
0.000156217
0.000547486
0.000160705
0.000394454
0.000163406
0.000237349
7.96068e-05
0.000164292
1.63494e-05
0.00159775
5.38076e-08
3.29625e-05
0.00154388
4.93765e-05
0.00149378
6.53244e-05
0.00143552
8.05961e-05
0.00136477
9.5003e-05
0.00128102
0.000108374
0.00118435
0.000120553
0.00107552
0.0001314
0.000955538
0.00014079
0.000825599
0.000148616
0.000687034
0.00015479
0.000541337
0.000159237
0.000390038
0.000161915
0.000234718
7.88076e-05
0.000162795
1.6199e-05
0.00158149
5.38609e-08
3.266e-05
0.00152741
4.89234e-05
0.00147751
6.47253e-05
0.00141971
7.98572e-05
0.00134963
9.41323e-05
0.00126674
0.000107381
0.00117109
0.00011945
0.00106344
0.000130198
0.000944774
0.000139503
0.000816274
0.000147258
0.000679253
0.000153376
0.000535188
0.000157784
0.000385586
0.000160438
0.000232006
7.7838e-05
0.000161311
1.605e-05
0.00156539
5.39134e-08
3.23601e-05
0.00151111
4.84744e-05
0.0014614
6.41315e-05
0.00140406
7.91249e-05
0.00133464
9.32696e-05
0.0012526
0.000106398
0.00115797
0.000118356
0.00105149
0.000129006
0.000934136
0.000138228
0.000807069
0.000145912
0.000671587
0.000151975
0.00052915
0.000156344
0.000381248
0.000158974
0.000229421
7.70496e-05
0.000159842
1.59024e-05
0.00154943
5.39615e-08
3.2063e-05
0.00149494
4.80295e-05
0.00144543
6.35431e-05
0.00138854
7.83993e-05
0.00131978
9.24148e-05
0.00123858
0.000105423
0.00114495
0.000117273
0.00103963
0.000127826
0.000923566
0.000136964
0.000797912
0.000144579
0.000663946
0.000150588
0.000523111
0.000154917
0.000376876
0.000157525
0.000226755
7.60929e-05
0.000158386
1.5756e-05
0.00153363
5.40044e-08
3.17685e-05
0.00147894
4.75886e-05
0.00142962
6.29601e-05
0.00137318
7.76804e-05
0.00130507
9.15679e-05
0.0012247
0.000104458
0.00113207
0.0001162
0.0010279
0.000126657
0.000913122
0.000135712
0.000788873
0.000143259
0.000656418
0.000149213
0.000517181
0.000153504
0.000372615
0.000156089
0.000224214
7.53155e-05
0.000156944
1.5611e-05
0.00151796
5.40395e-08
3.14766e-05
0.00146307
4.71517e-05
0.00141394
6.23824e-05
0.00135794
7.69681e-05
0.00129047
9.07288e-05
0.00121093
0.000103501
0.00111929
0.000115136
0.00101625
0.000125499
0.000902742
0.000134472
0.000779881
0.000141951
0.000648914
0.000147852
0.000511249
0.000152104
0.000368319
0.000154667
0.000221593
7.43716e-05
0.000155515
1.54674e-05
0.00150244
5.40666e-08
3.11875e-05
0.00144735
4.67188e-05
0.00139841
6.18101e-05
0.00134286
7.62624e-05
0.00127603
8.98975e-05
0.0011973
0.000102553
0.00110664
0.000114083
0.00100473
0.000124352
0.000892486
0.000133244
0.000771004
0.000140655
0.000641521
0.000146503
0.000505424
0.000150718
0.000364133
0.000153258
0.000219096
7.36045e-05
0.000154101
1.5325e-05
0.00148706
5.40835e-08
3.0901e-05
0.00143177
4.62899e-05
0.00138302
6.1243e-05
0.0013279
7.55632e-05
0.0012617
8.90739e-05
0.00118378
0.000101614
0.00109409
0.000113039
0.000993294
0.000123215
0.000882294
0.000132027
0.000762174
0.000139371
0.000634151
0.000145167
0.000499598
0.000149344
0.000359912
0.000151863
0.00021652
7.26729e-05
0.000152699
1.5184e-05
0.00147182
5.40904e-08
3.06171e-05
0.00141634
4.58649e-05
0.00136778
6.06811e-05
0.00131309
7.48705e-05
0.00124752
8.8258e-05
0.0011704
0.000100684
0.00108167
0.000112006
0.000981984
0.000122089
0.000872222
0.000130821
0.000753457
0.0001381
0.00062689
0.000143843
0.000493878
0.000147984
0.000355801
0.000150481
0.000214066
7.19164e-05
0.000151311
1.50443e-05
0.00145672
5.40861e-08
3.03358e-05
0.00140105
4.54439e-05
0.00135266
6.01245e-05
0.0012984
7.41842e-05
0.00123345
8.74497e-05
0.00115713
9.97631e-05
0.00106935
0.000110982
0.000970753
0.000120974
0.000862214
0.000129627
0.000744785
0.00013684
0.000619652
0.000142532
0.000488155
0.000146636
0.000351654
0.000149111
0.000211533
7.09971e-05
0.000149935
1.49059e-05
0.00144177
5.40711e-08
3.00572e-05
0.0013859
4.50267e-05
0.0013377
5.95731e-05
0.00128386
7.35043e-05
0.00121953
8.66489e-05
0.00114399
9.88504e-05
0.00105716
0.000109967
0.000959648
0.000119869
0.000852324
0.000128444
0.000736225
0.000135592
0.000612522
0.000141234
0.000482536
0.000145301
0.000347615
0.000147755
0.000209121
7.02506e-05
0.000148573
1.47688e-05
0.00142694
5.40445e-08
2.97811e-05
0.00137089
4.46135e-05
0.00132286
5.90268e-05
0.00126944
7.28308e-05
0.00120571
8.58557e-05
0.00113096
9.79462e-05
0.00104506
0.000108962
0.000948619
0.000118775
0.000842495
0.000127272
0.000727708
0.000134356
0.000605413
0.000139947
0.000476914
0.000143979
0.000343541
0.000146412
0.000206631
6.93433e-05
0.000147224
1.4633e-05
0.00141226
5.40069e-08
2.95077e-05
0.00135602
4.42041e-05
0.00130817
5.84856e-05
0.00125517
7.21636e-05
0.00119204
8.50699e-05
0.00111806
9.70506e-05
0.00103308
0.000107967
0.000937714
0.00011769
0.000832784
0.000126112
0.000719302
0.000133132
0.00059841
0.000138673
0.000471396
0.000142669
0.000339573
0.000145081
0.000204261
6.8607e-05
0.000145887
1.44984e-05
0.0013977
5.39581e-08
2.92367e-05
0.00134128
4.37985e-05
0.0012936
5.79494e-05
0.00124101
7.15027e-05
0.00117848
8.42915e-05
0.00110527
9.61634e-05
0.0010212
0.000106981
0.000926885
0.000116617
0.000823132
0.000124962
0.000710938
0.000131919
0.000591427
0.000137411
0.000465874
0.000141371
0.00033557
0.000143763
0.000201812
6.77115e-05
0.000144563
1.43651e-05
0.00138329
5.38987e-08
2.89683e-05
0.00132668
4.33968e-05
0.00127918
5.74183e-05
0.00122699
7.08479e-05
0.00116506
8.35204e-05
0.0010926
9.52845e-05
0.00100945
0.000106004
0.000916176
0.000115553
0.000813594