1.45 	0 	0 	-0.307932
2.35 	0 	0 	-0.126907
