/*--------------------------------*- C++ -*----------------------------------*\
  =========                 |
  \\      /  F ield         | OpenFOAM: The Open Source CFD Toolbox
   \\    /   O peration     | Website:  https://openfoam.org
    \\  /    A nd           | Version:  6.0
     \\/     M anipulation  |
\*---------------------------------------------------------------------------*/
FoamFile
{
    version     2.0;
    format      ascii;
    class       volScalarField;
    location    "81";
    object      p;
}
// * * * * * * * * * * * * * * * * * * * * * * * * * * * * * * * * * * * * * //

dimensions      [0 2 -2 0 0 0 0];

internalField   nonuniform List<scalar> 
2000
(
-0.348041
-0.353947
-0.355636
-0.354967
-0.353107
-0.350431
-0.347215
-0.343754
-0.340334
-0.336637
-0.350759
-0.356246
-0.357594
-0.356624
-0.354476
-0.351524
-0.348046
-0.344324
-0.340649
-0.336834
-0.356215
-0.360842
-0.3615
-0.35992
-0.357191
-0.353684
-0.34967
-0.345412
-0.341208
-0.337148
-0.364449
-0.367737
-0.367332
-0.364826
-0.361216
-0.356863
-0.352025
-0.346923
-0.341872
-0.337422
-0.375521
-0.376926
-0.375061
-0.371302
-0.366508
-0.361012
-0.355043
-0.348742
-0.342443
-0.3374
-0.389496
-0.388397
-0.384646
-0.379309
-0.373035
-0.366109
-0.358691
-0.350786
-0.342711
-0.336751
-0.406407
-0.402107
-0.396028
-0.388804
-0.380793
-0.372194
-0.363064
-0.353173
-0.342674
-0.335217
-0.426198
-0.417956
-0.409115
-0.399728
-0.389765
-0.37931
-0.368275
-0.356033
-0.34209
-0.331647
-0.448657
-0.435773
-0.423792
-0.412039
-0.399993
-0.387549
-0.374309
-0.358749
-0.338664
-0.321352
-0.473351
-0.455291
-0.439959
-0.425884
-0.412099
-0.398402
-0.384039
-0.366374
-0.341334
-0.317357
-0.499591
-0.476086
-0.457347
-0.441177
-0.426449
-0.413537
-0.402782
-0.394825
-0.394963
-0.414496
-0.526554
-0.49758
-0.475339
-0.456808
-0.440472
-0.426789
-0.416237
-0.409872
-0.412828
-0.4301
-0.553517
-0.519315
-0.493662
-0.47266
-0.454296
-0.438934
-0.426941
-0.419036
-0.418327
-0.426145
-0.579832
-0.54082
-0.512003
-0.488559
-0.467923
-0.450279
-0.435788
-0.424703
-0.4185
-0.417163
-0.604749
-0.561426
-0.529738
-0.503862
-0.480649
-0.460084
-0.442125
-0.42665
-0.41408
-0.404454
-0.627279
-0.580201
-0.545924
-0.517561
-0.491418
-0.467345
-0.445219
-0.424729
-0.405708
-0.38892
-0.646139
-0.595933
-0.559328
-0.528374
-0.498942
-0.470892
-0.444184
-0.418513
-0.393461
-0.370808
-0.659768
-0.607169
-0.56849
-0.534817
-0.501793
-0.469467
-0.438053
-0.407399
-0.377054
-0.349879
-0.666405
-0.61227
-0.571787
-0.535297
-0.498495
-0.461815
-0.425865
-0.390724
-0.356023
-0.325635
-0.664183
-0.609495
-0.567525
-0.528203
-0.487616
-0.446765
-0.406732
-0.367847
-0.329855
-0.297489
-0.651246
-0.597104
-0.554035
-0.512008
-0.467865
-0.423312
-0.379925
-0.338245
-0.298101
-0.264904
-0.62586
-0.573455
-0.529778
-0.485371
-0.438183
-0.390697
-0.34494
-0.30158
-0.260473
-0.227512
-0.586551
-0.537141
-0.493479
-0.447254
-0.397832
-0.348471
-0.301548
-0.257758
-0.216907
-0.185176
-0.532223
-0.487102
-0.444224
-0.397008
-0.346459
-0.296534
-0.24983
-0.20696
-0.167609
-0.138037
-0.462271
-0.42274
-0.381568
-0.334435
-0.284117
-0.235138
-0.190162
-0.149635
-0.113053
-0.0865219
-0.376694
-0.344022
-0.305601
-0.259825
-0.211269
-0.164844
-0.123146
-0.0864022
-0.0538757
-0.0312554
-0.276181
-0.25155
-0.217006
-0.173978
-0.128772
-0.0864935
-0.0495522
-0.0179603
0.0092031
0.026936
-0.16217
-0.146614
-0.117068
-0.078183
-0.0378618
-0.00122843
0.0295618
0.0545722
0.0746415
0.0860224
-0.0368723
-0.0311863
-0.0076375
0.025887
0.0600776
0.0898991
0.113338
0.129982
0.139916
0.142287
0.0967577
0.0920919
0.108873
0.136202
0.163723
0.186713
0.2032
0.211568
0.210533
0.203804
0.235144
0.219955
0.22936
0.249868
0.270618
0.287731
0.299936
0.305418
0.304371
0.318289
0.374391
0.348757
0.350212
0.363031
0.376051
0.386025
0.392078
0.39332
0.392243
0.405166
0.510556
0.474826
0.468019
0.472571
0.477224
0.479303
0.47824
0.473618
0.467926
0.473029
0.639791
0.594555
0.579489
0.575588
0.571689
0.565701
0.557364
0.546531
0.535273
0.532431
0.758436
0.704502
0.68153
0.669421
0.657255
0.643507
0.628195
0.611359
0.594689
0.584742
0.863103
0.801503
0.771321
0.751676
0.731968
0.711191
0.689605
0.667393
0.645877
0.629721
0.950779
0.882748
0.846375
0.82024
0.794077
0.767327
0.740448
0.713737
0.688162
0.666804
1.01891
0.94587
0.9046
0.873325
0.842079
0.810652
0.779656
0.749469
0.720748
0.695333
1.06548
0.989017
0.944358
0.909526
0.874777
0.840142
0.806333
0.773783
0.742918
0.714717
1.08912
1.01091
0.964524
0.927874
0.89134
0.855073
0.819839
0.786093
0.754142
0.724522
1.08912
1.01091
0.964524
0.927874
0.89134
0.855073
0.819839
0.786093
0.754142
0.724522
1.06548
0.989017
0.944358
0.909526
0.874777
0.840142
0.806333
0.773783
0.742918
0.714717
1.01891
0.94587
0.9046
0.873325
0.842079
0.810652
0.779656
0.749469
0.720748
0.695333
0.950779
0.882748
0.846375
0.82024
0.794077
0.767327
0.740448
0.713737
0.688162
0.666804
0.863103
0.801503
0.771321
0.751676
0.731968
0.711191
0.689605
0.667393
0.645877
0.629721
0.758436
0.704502
0.68153
0.669421
0.657255
0.643507
0.628195
0.611359
0.594689
0.584742
0.639791
0.594555
0.579489
0.575588
0.571689
0.565701
0.557364
0.546531
0.535273
0.532431
0.510556
0.474826
0.468019
0.472571
0.477224
0.479303
0.47824
0.473618
0.467926
0.473029
0.374391
0.348757
0.350212
0.363031
0.376051
0.386025
0.392078
0.39332
0.392243
0.405166
0.235144
0.219955
0.22936
0.249868
0.270618
0.287731
0.299936
0.305418
0.304371
0.318289
0.0967577
0.0920919
0.108873
0.136202
0.163723
0.186713
0.2032
0.211568
0.210533
0.203804
-0.0368723
-0.0311863
-0.0076375
0.025887
0.0600776
0.0898991
0.113338
0.129982
0.139916
0.142287
-0.16217
-0.146614
-0.117068
-0.0781831
-0.0378618
-0.00122845
0.0295617
0.0545722
0.0746415
0.0860224
-0.276181
-0.251551
-0.217006
-0.173978
-0.128772
-0.0864935
-0.0495522
-0.0179604
0.00920307
0.0269359
-0.376694
-0.344022
-0.305601
-0.259825
-0.211269
-0.164844
-0.123146
-0.0864022
-0.0538758
-0.0312555
-0.462271
-0.42274
-0.381568
-0.334435
-0.284117
-0.235138
-0.190162
-0.149635
-0.113053
-0.086522
-0.532223
-0.487102
-0.444224
-0.397008
-0.346459
-0.296534
-0.24983
-0.20696
-0.167609
-0.138037
-0.586551
-0.537141
-0.493479
-0.447254
-0.397832
-0.348471
-0.301548
-0.257758
-0.216908
-0.185176
-0.62586
-0.573455
-0.529778
-0.485371
-0.438183
-0.390697
-0.34494
-0.30158
-0.260473
-0.227512
-0.651246
-0.597104
-0.554035
-0.512008
-0.467865
-0.423312
-0.379925
-0.338245
-0.298101
-0.264904
-0.664183
-0.609495
-0.567525
-0.528204
-0.487616
-0.446765
-0.406732
-0.367847
-0.329855
-0.297489
-0.666405
-0.61227
-0.571787
-0.535297
-0.498495
-0.461815
-0.425865
-0.390724
-0.356023
-0.325636
-0.659769
-0.607169
-0.56849
-0.534817
-0.501793
-0.469467
-0.438053
-0.407399
-0.377054
-0.349879
-0.646139
-0.595934
-0.559328
-0.528374
-0.498943
-0.470892
-0.444184
-0.418513
-0.393461
-0.370808
-0.62728
-0.580201
-0.545924
-0.517561
-0.491418
-0.467345
-0.445219
-0.424729
-0.405708
-0.38892
-0.604749
-0.561426
-0.529739
-0.503862
-0.480649
-0.460084
-0.442126
-0.426651
-0.41408
-0.404454
-0.579832
-0.54082
-0.512003
-0.488559
-0.467923
-0.45028
-0.435788
-0.424703
-0.418501
-0.417163
-0.553517
-0.519315
-0.493662
-0.47266
-0.454296
-0.438934
-0.426941
-0.419036
-0.418327
-0.426145
-0.526554
-0.49758
-0.475339
-0.456809
-0.440472
-0.426789
-0.416237
-0.409873
-0.412828
-0.4301
-0.499591
-0.476086
-0.457347
-0.441177
-0.426449
-0.413537
-0.402782
-0.394825
-0.394963
-0.414496
-0.473351
-0.455291
-0.439959
-0.425884
-0.412099
-0.398402
-0.384039
-0.366374
-0.341334
-0.317357
-0.448658
-0.435773
-0.423792
-0.412039
-0.399993
-0.38755
-0.374309
-0.358749
-0.338664
-0.321353
-0.426198
-0.417957
-0.409115
-0.399728
-0.389765
-0.37931
-0.368275
-0.356033
-0.34209
-0.331647
-0.406407
-0.402107
-0.396028
-0.388805
-0.380793
-0.372194
-0.363064
-0.353173
-0.342674
-0.335217
-0.389496
-0.388397
-0.384646
-0.379309
-0.373035
-0.366109
-0.358691
-0.350786
-0.342711
-0.336751
-0.375521
-0.376927
-0.375061
-0.371302
-0.366508
-0.361013
-0.355043
-0.348742
-0.342443
-0.3374
-0.364449
-0.367737
-0.367332
-0.364826
-0.361216
-0.356863
-0.352025
-0.346923
-0.341872
-0.337422
-0.356215
-0.360842
-0.3615
-0.35992
-0.357191
-0.353684
-0.34967
-0.345412
-0.341208
-0.337148
-0.350759
-0.356246
-0.357594
-0.356624
-0.354476
-0.351524
-0.348046
-0.344324
-0.340649
-0.336834
-0.348041
-0.353947
-0.355636
-0.354967
-0.353107
-0.350431
-0.347215
-0.343754
-0.340334
-0.336637
-0.290428
-0.126293
-0.0812214
-0.0303207
-0.0192158
-0.00778217
-0.00434253
-0.000872352
-0.000455447
0.00217197
-0.291659
-0.126841
-0.0814918
-0.0305193
-0.0192836
-0.0078418
-0.00437215
-0.000893079
-0.000464554
0.0021561
-0.29405
-0.127923
-0.0820272
-0.0309176
-0.0194192
-0.00796094
-0.00443126
-0.000934498
-0.000482705
0.00212455
-0.297461
-0.129514
-0.0828163
-0.0315177
-0.0196222
-0.0081391
-0.00451973
-0.000996511
-0.000509743
0.00207765
-0.301646
-0.13157
-0.0838329
-0.0323179
-0.0198905
-0.00837489
-0.00463706
-0.00107892
-0.000545388
0.00201584
-0.30625
-0.134016
-0.0850276
-0.0333044
-0.0202183
-0.00866473
-0.00478202
-0.00118119
-0.000589286
0.00193977
-0.311142
-0.136921
-0.0864058
-0.0344724
-0.0206063
-0.00900588
-0.0049541
-0.00130237
-0.000641639
0.00185102
-0.316845
-0.140936
-0.0882302
-0.0359228
-0.0210978
-0.00941177
-0.00515932
-0.00144279
-0.000703984
0.00175236
-0.321622
-0.146441
-0.0906791
-0.0378207
-0.0217434
-0.00990946
-0.00540684
-0.00160782
-0.000774737
0.00164124
-0.313817
-0.148817
-0.0917901
-0.0395221
-0.0222457
-0.0104014
-0.00565153
-0.00179875
-0.000834378
0.00149467
-0.247286
-0.140718
-0.08817
-0.0427769
-0.0227442
-0.0117331
-0.006368
-0.00253845
-0.00100008
0.000841484
-0.189191
-0.131709
-0.082168
-0.0442356
-0.0244775
-0.0141256
-0.00821701
-0.00402212
-0.00176187
-6.74101e-07
-0.147776
-0.11385
-0.0727393
-0.0428053
-0.0259033
-0.0163318
-0.0101524
-0.00561388
-0.00269671
-0.000680792
-0.108183
-0.0929484
-0.0633195
-0.0408365
-0.0269531
-0.0181272
-0.0118274
-0.00704917
-0.00358783
-0.00115195
-0.0789458
-0.0756758
-0.0565192
-0.0395815
-0.0277774
-0.0194728
-0.0131399
-0.00820336
-0.00433541
-0.00145059
-0.0588544
-0.0628287
-0.0515591
-0.038582
-0.0281888
-0.02032
-0.0140669
-0.00905782
-0.00491382
-0.00164424
-0.0458291
-0.0535676
-0.0476973
-0.0376118
-0.028277
-0.0208015
-0.0146908
-0.00966609
-0.00534246
-0.00178092
-0.0375849
-0.0471083
-0.0447352
-0.0367589
-0.0282322
-0.0210712
-0.0150991
-0.0100831
-0.00564521
-0.00187974
-0.0327631
-0.0430074
-0.0427277
-0.0361558
-0.028176
-0.0212177
-0.015344
-0.0103425
-0.00583818
-0.00194433
-0.0305327
-0.0410059
-0.0417166
-0.0358589
-0.0281522
-0.0212826
-0.0154571
-0.0104645
-0.00593254
-0.0019746
-0.218584
-0.246481
-0.272261
-0.296204
-0.318698
-0.340248
-0.361472
-0.383016
-0.405382
-0.429225
-0.0679395
-0.0780821
-0.0872468
-0.0956768
-0.103679
-0.111635
-0.120001
-0.129317
-0.140163
-0.15433
-0.0451686
-0.0543505
-0.0631467
-0.0715306
-0.0794646
-0.086904
-0.0938053
-0.100142
-0.10591
-0.111231
-0.0187455
-0.0244656
-0.0299793
-0.0353056
-0.0404664
-0.045485
-0.0503845
-0.0551871
-0.0598927
-0.0643807
-0.0130364
-0.0173924
-0.0216237
-0.0257269
-0.0296983
-0.0335339
-0.03723
-0.0407838
-0.0441756
-0.047374
-0.00798212
-0.0111994
-0.0143574
-0.017455
-0.0204917
-0.0234668
-0.0263801
-0.02923
-0.0320048
-0.0347081
-0.00685859
-0.00939551
-0.0118961
-0.0143564
-0.0167728
-0.0191422
-0.021462
-0.0237298
-0.0259396
-0.0281046
-0.00605766
-0.00811559
-0.010157
-0.0121778
-0.0141743
-0.016143
-0.0180809
-0.0199849
-0.0218517
-0.0236887
-0.00597009
-0.0077448
-0.00951158
-0.0112659
-0.0130037
-0.0147208
-0.016414
-0.0180798
-0.0197163
-0.0213247
-0.00591412
-0.00754012
-0.00916352
-0.0107806
-0.0123877
-0.0139816
-0.0155592
-0.0171176
-0.0186553
-0.0201706
0.168015
0.127028
0.08168
0.0386108
-0.00312758
-0.0440067
-0.0834099
-0.120755
-0.155773
-0.18838
0.117546
0.0916307
0.0648388
0.042
0.0218798
0.00320601
-0.0141044
-0.0298404
-0.0439755
-0.056625
0.0734253
0.0577273
0.0427743
0.0298621
0.0180108
0.00654414
-0.00460883
-0.0153601
-0.0256866
-0.035615
0.0531694
0.0440964
0.0354674
0.0277569
0.0204906
0.013398
0.00648137
-0.000200575
-0.00662656
-0.0128037
0.0376326
0.0316813
0.0259411
0.0206504
0.0155601
0.010539
0.00559399
0.000756335
-0.00396143
-0.00855886
0.027371
0.0234821
0.0196368
0.0159991
0.0124565
0.00894117
0.00545441
0.002013
-0.00137472
-0.00470675
0.0196685
0.01694
0.0141848
0.0115082
0.00886213
0.00621376
0.00356485
0.000926561
-0.00169323
-0.00428969
0.014488
0.012493
0.0104477
0.00841458
0.00637709
0.0043216
0.00225047
0.000171236
-0.00190974
-0.00398755
0.0111574
0.00956251
0.00791856
0.00625483
0.00456653
0.00285054
0.00111073
-0.000646733
-0.00241611
-0.00419223
0.00956133
0.00814071
0.00667675
0.00518369
0.00366092
0.00210949
0.000533733
-0.00106119
-0.00267043
-0.00428951
0.33543
0.33473
0.333181
0.330306
0.325322
0.316991
0.303542
0.282581
0.251473
0.206856
0.245532
0.244416
0.24178
0.237196
0.230325
0.22074
0.207869
0.191053
0.169546
0.142791
0.174701
0.173572
0.170906
0.166381
0.159891
0.151327
0.140501
0.127197
0.111009
0.0920222
0.123092
0.122206
0.120104
0.116541
0.111502
0.10501
0.0970606
0.0876623
0.0767375
0.0646212
0.0867579
0.0861134
0.0845744
0.0819614
0.0782814
0.073587
0.0679123
0.0612954
0.0537167
0.0453849
0.0615788
0.0611154
0.0600068
0.0581247
0.0554822
0.0521305
0.0481113
0.0434687
0.0382201
0.0325119
0.0444275
0.0440889
0.0432788
0.0419035
0.0399747
0.0375327
0.0346113
0.0312431
0.0274475
0.0233087
0.0331419
0.0328851
0.0322706
0.0312275
0.0297652
0.0279152
0.0257042
0.0231573
0.0202949
0.017169
0.0263062
0.0260977
0.0255989
0.0247525
0.0235658
0.0220639
0.0202679
0.0181969
0.0158685
0.0133142
0.0230858
0.0228993
0.022454
0.0216989
0.0206402
0.0192997
0.0176963
0.0158462
0.0137662
0.011479
0.485404
0.487157
0.49349
0.504637
0.520488
0.541348
0.567682
0.600014
0.638882
0.684529
0.483163
0.48489
0.491143
0.502133
0.517736
0.538219
0.563988
0.595483
0.633103
0.676937
0.478733
0.480414
0.486515
0.497202
0.512319
0.53206
0.556719
0.586561
0.621711
0.661961
0.472213
0.47384
0.479729
0.489985
0.504401
0.523067
0.546105
0.573522
0.605029
0.640007
0.463742
0.465319
0.47096
0.480679
0.494211
0.511507
0.532467
0.556756
0.583523
0.611662
0.45349
0.455038
0.460412
0.469513
0.482005
0.497677
0.516165
0.53671
0.557762
0.577663
0.441651
0.443239
0.448366
0.456805
0.468145
0.481991
0.497669
0.513926
0.528424
0.538875
0.428432
0.430247
0.435262
0.443112
0.453327
0.465295
0.477965
0.489445
0.496509
0.496093
0.413902
0.416194
0.421288
0.428674
0.437869
0.448042
0.457693
0.464103
0.462893
0.448813
0.3977
0.400136
0.404803
0.41106
0.418439
0.42599
0.431938
0.433061
0.424596
0.396893
0.3977
0.400136
0.404803
0.41106
0.418439
0.42599
0.431938
0.433061
0.424596
0.396893
0.413902
0.416194
0.421288
0.428674
0.437869
0.448042
0.457693
0.464103
0.462893
0.448813
0.428432
0.430247
0.435262
0.443112
0.453327
0.465295
0.477965
0.489445
0.496509
0.496093
0.441651
0.443239
0.448366
0.456805
0.468145
0.481991
0.497669
0.513926
0.528424
0.538875
0.45349
0.455038
0.460412
0.469513
0.482005
0.497677
0.516165
0.53671
0.557762
0.577663
0.463742
0.465319
0.47096
0.480679
0.494211
0.511507
0.532467
0.556756
0.583523
0.611662
0.472213
0.47384
0.479729
0.489985
0.504401
0.523067
0.546105
0.573522
0.605029
0.640007
0.478733
0.480414
0.486514
0.497202
0.512319
0.53206
0.556719
0.586561
0.621711
0.661961
0.483163
0.48489
0.491143
0.502133
0.517736
0.538219
0.563988
0.595483
0.633103
0.676937
0.485404
0.487157
0.49349
0.504637
0.520488
0.541348
0.567682
0.600014
0.638882
0.684529
0.0230857
0.0228992
0.022454
0.0216989
0.0206401
0.0192997
0.0176963
0.0158461
0.0137661
0.011479
0.0263061
0.0260976
0.0255989
0.0247525
0.0235658
0.0220639
0.0202679
0.0181968
0.0158685
0.0133141
0.0331419
0.0328851
0.0322706
0.0312275
0.0297652
0.0279152
0.0257041
0.0231572
0.0202949
0.017169
0.0444274
0.0440889
0.0432787
0.0419035
0.0399747
0.0375327
0.0346113
0.031243
0.0274475
0.0233086
0.0615787
0.0611153
0.0600068
0.0581246
0.0554821
0.0521305
0.0481113
0.0434686
0.03822
0.0325118
0.0867579
0.0861134
0.0845744
0.0819613
0.0782814
0.073587
0.0679122
0.0612954
0.0537167
0.0453849
0.123092
0.122206
0.120104
0.116541
0.111502
0.10501
0.0970605
0.0876623
0.0767374
0.0646211
0.174701
0.173572
0.170906
0.166381
0.159891
0.151327
0.140501
0.127197
0.111009
0.0920222
0.245532
0.244416
0.24178
0.237196
0.230325
0.22074
0.207869
0.191053
0.169546
0.142791
0.33543
0.33473
0.333181
0.330306
0.325322
0.316991
0.303542
0.282581
0.251473
0.206856
0.0095613
0.00814067
0.00667671
0.00518365
0.00366088
0.00210946
0.000533698
-0.00106122
-0.00267046
-0.00428954
0.0111574
0.00956248
0.00791853
0.00625479
0.00456649
0.0028505
0.0011107
-0.000646767
-0.00241615
-0.00419226
0.014488
0.0124929
0.0104476
0.00841454
0.00637705
0.00432156
0.00225043
0.000171202
-0.00190978
-0.00398759
0.0196684
0.01694
0.0141848
0.0115081
0.0088621
0.00621372
0.00356481
0.000926526
-0.00169326
-0.00428973
0.027371
0.0234821
0.0196368
0.015999
0.0124565
0.00894113
0.00545438
0.00201297
-0.00137476
-0.00470679
0.0376326
0.0316812
0.025941
0.0206504
0.0155601
0.010539
0.00559396
0.000756299
-0.00396146
-0.0085589
0.0531694
0.0440964
0.0354673
0.0277569
0.0204905
0.0133979
0.00648133
-0.000200612
-0.0066266
-0.0128038
0.0734253
0.0577273
0.0427742
0.0298621
0.0180108
0.0065441
-0.00460887
-0.0153602
-0.0256867
-0.035615
0.117546
0.0916306
0.0648387
0.0419999
0.0218798
0.00320597
-0.0141044
-0.0298405
-0.0439756
-0.056625
0.168015
0.127028
0.08168
0.0386108
-0.00312763
-0.0440067
-0.08341
-0.120755
-0.155773
-0.18838
-0.00591416
-0.00754015
-0.00916355
-0.0107806
-0.0123877
-0.0139817
-0.0155593
-0.0171176
-0.0186554
-0.0201706
-0.00597013
-0.00774484
-0.00951162
-0.011266
-0.0130037
-0.0147209
-0.016414
-0.0180799
-0.0197163
-0.0213247
-0.0060577
-0.00811563
-0.010157
-0.0121779
-0.0141743
-0.0161431
-0.018081
-0.019985
-0.0218518
-0.0236887
-0.00685863
-0.00939555
-0.0118962
-0.0143564
-0.0167728
-0.0191422
-0.0214621
-0.0237299
-0.0259396
-0.0281046
-0.00798216
-0.0111995
-0.0143574
-0.017455
-0.0204917
-0.0234669
-0.0263801
-0.02923
-0.0320048
-0.0347081
-0.0130364
-0.0173924
-0.0216237
-0.025727
-0.0296984
-0.0335339
-0.03723
-0.0407838
-0.0441756
-0.047374
-0.0187456
-0.0244656
-0.0299793
-0.0353056
-0.0404664
-0.045485
-0.0503846
-0.0551871
-0.0598927
-0.0643807
-0.0451686
-0.0543505
-0.0631467
-0.0715306
-0.0794647
-0.0869041
-0.0938053
-0.100142
-0.10591
-0.111231
-0.0679395
-0.0780822
-0.0872468
-0.0956768
-0.103679
-0.111635
-0.120001
-0.129317
-0.140163
-0.15433
-0.218584
-0.246481
-0.272261
-0.296204
-0.318698
-0.340248
-0.361472
-0.383016
-0.405382
-0.429225
-0.0305327
-0.0410059
-0.0417167
-0.0358589
-0.0281522
-0.0212826
-0.0154572
-0.0104645
-0.00593259
-0.00197462
-0.0327632
-0.0430075
-0.0427277
-0.0361559
-0.028176
-0.0212178
-0.0153441
-0.0103426
-0.00583822
-0.00194435
-0.0375849
-0.0471083
-0.0447352
-0.0367589
-0.0282322
-0.0210713
-0.0150992
-0.0100832
-0.00564525
-0.00187975
-0.0458292
-0.0535676
-0.0476973
-0.0376119
-0.028277
-0.0208016
-0.0146909
-0.00966617
-0.00534251
-0.00178093
-0.0588544
-0.0628287
-0.0515591
-0.038582
-0.0281889
-0.0203201
-0.014067
-0.00905792
-0.00491388
-0.00164425
-0.0789458
-0.0756758
-0.0565192
-0.0395815
-0.0277775
-0.0194729
-0.0131401
-0.00820348
-0.00433548
-0.00145059
-0.108183
-0.0929484
-0.0633195
-0.0408364
-0.0269531
-0.0181274
-0.0118275
-0.00704932
-0.0035879
-0.00115194
-0.147776
-0.11385
-0.0727393
-0.0428052
-0.0259033
-0.016332
-0.0101526
-0.00561407
-0.00269678
-0.00068075
-0.189191
-0.131709
-0.0821679
-0.0442355
-0.0244775
-0.0141258
-0.00821722
-0.00402236
-0.00176196
-6.00176e-07
-0.247286
-0.140718
-0.0881699
-0.0427767
-0.0227442
-0.0117333
-0.00636823
-0.00253873
-0.00100016
0.000841584
-0.313817
-0.148817
-0.09179
-0.0395219
-0.0222457
-0.0104016
-0.00565171
-0.00179902
-0.000834436
0.00149478
-0.321622
-0.146441
-0.090679
-0.0378205
-0.0217434
-0.00990963
-0.00540701
-0.00160807
-0.00077479
0.00164134
-0.316845
-0.140936
-0.0882301
-0.0359226
-0.0210978
-0.00941193
-0.00515946
-0.00144302
-0.000704031
0.00175245
-0.311142
-0.136921
-0.0864057
-0.0344722
-0.0206064
-0.00900604
-0.00495421
-0.00130257
-0.000641679
0.0018511
-0.30625
-0.134016
-0.0850276
-0.0333042
-0.0202183
-0.00866489
-0.00478211
-0.00118136
-0.000589321
0.00193984
-0.301646
-0.13157
-0.0838329
-0.0323177
-0.0198905
-0.00837505
-0.00463711
-0.00107906
-0.000545417
0.00201589
-0.297461
-0.129514
-0.0828164
-0.0315175
-0.0196222
-0.00813925
-0.00451975
-0.000996622
-0.000509767
0.00207769
-0.29405
-0.127923
-0.0820273
-0.0309174
-0.0194192
-0.00796108
-0.00443125
-0.000934577
-0.000482724
0.00212458
-0.291659
-0.126841
-0.0814919
-0.0305191
-0.0192836
-0.00784192
-0.00437211
-0.000893127
-0.000464568
0.00215612
-0.290428
-0.126293
-0.0812215
-0.0303206
-0.0192158
-0.00778223
-0.0043425
-0.000872368
-0.000455453
0.00217198
)
;

boundaryField
{
    inlet
    {
        type            zeroGradient;
    }
    outlet
    {
        type            fixedValue;
        value           uniform 0;
    }
    cylinder
    {
        type            zeroGradient;
    }
    top
    {
        type            symmetryPlane;
    }
    bottom
    {
        type            symmetryPlane;
    }
    defaultFaces
    {
        type            empty;
    }
}


// ************************************************************************* //
