/*--------------------------------*- C++ -*----------------------------------*\
  =========                 |
  \\      /  F ield         | OpenFOAM: The Open Source CFD Toolbox
   \\    /   O peration     | Website:  https://openfoam.org
    \\  /    A nd           | Version:  6.0
     \\/     M anipulation  |
\*---------------------------------------------------------------------------*/
FoamFile
{
    version     2.0;
    format      ascii;
    class       volScalarField;
    location    "134";
    object      p;
}
// * * * * * * * * * * * * * * * * * * * * * * * * * * * * * * * * * * * * * //

dimensions      [0 2 -2 0 0 0 0];

internalField   nonuniform List<scalar> 
34500
(
1.00665
1.00695
1.00708
1.00704
1.00683
1.00649
1.00605
1.00555
1.005
1.00445
1.00386
1.00337
1.00264
1.00245
1.00243
1.00665
1.00699
1.00719
1.00724
1.00715
1.00694
1.00662
1.00623
1.00578
1.0053
1.00472
1.00425
1.00344
1.00346
1.00327
1.00665
1.00698
1.00714
1.00715
1.007
1.00672
1.00633
1.00587
1.00536
1.00483
1.00424
1.00378
1.00305
1.00332
1.00317
1.00666
1.00697
1.00711
1.00708
1.00689
1.00657
1.00614
1.00564
1.0051
1.00456
1.00397
1.00354
1.00291
1.00336
1.00351
1.00666
1.00698
1.00712
1.0071
1.00693
1.00662
1.00621
1.00573
1.0052
1.00467
1.00411
1.00369
1.00311
1.00364
1.00393
1.00667
1.00699
1.00714
1.00713
1.00698
1.00669
1.0063
1.00584
1.00532
1.00481
1.00425
1.00385
1.00328
1.00385
1.00421
1.00668
1.007
1.00715
1.00715
1.00699
1.0067
1.00631
1.00586
1.00534
1.00483
1.00428
1.00389
1.00335
1.00396
1.00441
1.00669
1.00701
1.00716
1.00715
1.00699
1.0067
1.00631
1.00585
1.00533
1.00483
1.00428
1.00391
1.00341
1.00405
1.00459
1.0067
1.00702
1.00717
1.00716
1.007
1.00671
1.00632
1.00586
1.00535
1.00484
1.00431
1.00395
1.00349
1.00414
1.00474
1.00671
1.00703
1.00718
1.00718
1.00702
1.00673
1.00634
1.00589
1.00538
1.00488
1.00435
1.004
1.00358
1.00422
1.00486
1.00672
1.00705
1.0072
1.0072
1.00704
1.00675
1.00637
1.00591
1.00541
1.00491
1.00439
1.00405
1.00365
1.00429
1.00495
1.00673
1.00707
1.00722
1.00722
1.00706
1.00678
1.00639
1.00594
1.00544
1.00494
1.00443
1.0041
1.00372
1.00434
1.00502
1.00675
1.00708
1.00724
1.00724
1.00708
1.0068
1.00642
1.00597
1.00546
1.00497
1.00446
1.00414
1.00379
1.00438
1.00507
1.00677
1.0071
1.00726
1.00726
1.00711
1.00683
1.00644
1.00599
1.00549
1.005
1.0045
1.00418
1.00385
1.00442
1.0051
1.00678
1.00712
1.00728
1.00728
1.00713
1.00685
1.00647
1.00602
1.00552
1.00503
1.00453
1.00422
1.0039
1.00444
1.00512
1.0068
1.00714
1.0073
1.00731
1.00716
1.00688
1.0065
1.00605
1.00555
1.00506
1.00457
1.00426
1.00396
1.00446
1.00513
1.00682
1.00716
1.00732
1.00733
1.00719
1.00691
1.00653
1.00608
1.00558
1.00509
1.0046
1.00429
1.004
1.00448
1.00513
1.00684
1.00719
1.00735
1.00736
1.00721
1.00694
1.00655
1.0061
1.0056
1.00512
1.00463
1.00433
1.00405
1.00449
1.00512
1.00686
1.00721
1.00737
1.00739
1.00724
1.00697
1.00658
1.00613
1.00563
1.00515
1.00466
1.00435
1.00408
1.00449
1.0051
1.00689
1.00724
1.0074
1.00741
1.00727
1.00699
1.00661
1.00616
1.00566
1.00517
1.00468
1.00438
1.00411
1.00449
1.00507
1.00691
1.00726
1.00742
1.00744
1.00729
1.00702
1.00664
1.00619
1.00568
1.0052
1.00471
1.0044
1.00414
1.00449
1.00504
1.00694
1.00729
1.00745
1.00746
1.00732
1.00705
1.00666
1.00621
1.00571
1.00522
1.00473
1.00442
1.00417
1.00448
1.005
1.00697
1.00732
1.00748
1.00749
1.00735
1.00707
1.00669
1.00623
1.00573
1.00524
1.00475
1.00444
1.00419
1.00447
1.00496
1.007
1.00735
1.00751
1.00752
1.00737
1.0071
1.00671
1.00626
1.00575
1.00526
1.00477
1.00445
1.0042
1.00446
1.00492
1.00703
1.00738
1.00754
1.00755
1.0074
1.00713
1.00674
1.00628
1.00577
1.00528
1.00479
1.00447
1.00422
1.00444
1.00488
1.00706
1.00742
1.00758
1.00759
1.00744
1.00716
1.00677
1.00631
1.00579
1.0053
1.00481
1.00448
1.00423
1.00443
1.00483
1.00709
1.00746
1.00762
1.00763
1.00747
1.00719
1.0068
1.00633
1.00582
1.00532
1.00482
1.00449
1.00424
1.00441
1.00478
1.00713
1.00749
1.00765
1.00767
1.00751
1.00723
1.00683
1.00636
1.00584
1.00534
1.00484
1.0045
1.00425
1.00439
1.00473
1.00716
1.00753
1.0077
1.00771
1.00755
1.00727
1.00687
1.0064
1.00587
1.00536
1.00486
1.00451
1.00426
1.00436
1.00468
1.0072
1.00757
1.00774
1.00775
1.00759
1.00731
1.0069
1.00643
1.0059
1.00538
1.00488
1.00452
1.00426
1.00434
1.00462
1.00724
1.00761
1.00778
1.00779
1.00764
1.00735
1.00694
1.00646
1.00593
1.0054
1.00489
1.00453
1.00426
1.00431
1.00456
1.00728
1.00765
1.00782
1.00784
1.00768
1.00739
1.00698
1.00649
1.00595
1.00542
1.00491
1.00453
1.00425
1.00428
1.0045
1.00732
1.0077
1.00786
1.00788
1.00772
1.00743
1.00701
1.00652
1.00598
1.00544
1.00492
1.00453
1.00425
1.00425
1.00445
1.00736
1.00774
1.00791
1.00792
1.00776
1.00747
1.00705
1.00655
1.006
1.00546
1.00493
1.00453
1.00424
1.00421
1.00438
1.00741
1.00779
1.00795
1.00797
1.00781
1.00751
1.00708
1.00658
1.00602
1.00547
1.00494
1.00453
1.00422
1.00418
1.00432
1.00746
1.00784
1.008
1.00801
1.00785
1.00755
1.00712
1.00661
1.00605
1.00549
1.00494
1.00452
1.00421
1.00414
1.00426
1.0075
1.00789
1.00805
1.00806
1.00789
1.00759
1.00715
1.00664
1.00607
1.0055
1.00495
1.00452
1.00419
1.0041
1.0042
1.00755
1.00794
1.0081
1.00811
1.00794
1.00763
1.00719
1.00667
1.00609
1.00551
1.00495
1.00451
1.00417
1.00406
1.00413
1.0076
1.00799
1.00815
1.00816
1.00799
1.00767
1.00723
1.0067
1.00611
1.00552
1.00495
1.0045
1.00415
1.00402
1.00407
1.00765
1.00804
1.00821
1.00821
1.00803
1.00771
1.00726
1.00673
1.00613
1.00553
1.00495
1.00449
1.00413
1.00398
1.004
1.00771
1.0081
1.00826
1.00827
1.00808
1.00776
1.0073
1.00676
1.00615
1.00554
1.00496
1.00448
1.00411
1.00393
1.00393
1.00776
1.00816
1.00832
1.00832
1.00814
1.0078
1.00734
1.00679
1.00617
1.00556
1.00496
1.00447
1.00408
1.00389
1.00387
1.00782
1.00821
1.00838
1.00838
1.00819
1.00785
1.00738
1.00682
1.0062
1.00557
1.00496
1.00445
1.00406
1.00384
1.0038
1.00788
1.00828
1.00844
1.00844
1.00824
1.0079
1.00742
1.00685
1.00622
1.00558
1.00496
1.00444
1.00403
1.00379
1.00373
1.00794
1.00834
1.0085
1.0085
1.0083
1.00795
1.00747
1.00689
1.00624
1.00559
1.00496
1.00443
1.004
1.00375
1.00366
1.008
1.0084
1.00856
1.00856
1.00836
1.00801
1.00751
1.00692
1.00627
1.0056
1.00496
1.00441
1.00397
1.00369
1.00359
1.00806
1.00847
1.00863
1.00863
1.00842
1.00806
1.00756
1.00696
1.00629
1.00562
1.00495
1.00439
1.00393
1.00364
1.00351
1.00812
1.00853
1.0087
1.00869
1.00848
1.00811
1.0076
1.00699
1.00631
1.00563
1.00495
1.00437
1.0039
1.00359
1.00344
1.00819
1.0086
1.00876
1.00876
1.00854
1.00817
1.00765
1.00703
1.00634
1.00563
1.00495
1.00435
1.00386
1.00353
1.00336
1.00826
1.00867
1.00883
1.00882
1.00861
1.00823
1.0077
1.00706
1.00636
1.00564
1.00494
1.00433
1.00382
1.00347
1.00329
1.00833
1.00874
1.0089
1.00889
1.00867
1.00828
1.00774
1.0071
1.00638
1.00565
1.00493
1.0043
1.00378
1.00341
1.00321
1.0084
1.00882
1.00898
1.00896
1.00873
1.00834
1.00779
1.00713
1.0064
1.00565
1.00492
1.00427
1.00374
1.00335
1.00313
1.00847
1.00889
1.00905
1.00904
1.0088
1.0084
1.00784
1.00717
1.00642
1.00566
1.00491
1.00425
1.00369
1.00329
1.00305
1.00854
1.00897
1.00913
1.00911
1.00887
1.00846
1.00789
1.0072
1.00644
1.00566
1.0049
1.00422
1.00365
1.00323
1.00297
1.00862
1.00905
1.00921
1.00918
1.00894
1.00852
1.00793
1.00724
1.00646
1.00567
1.00489
1.00419
1.0036
1.00316
1.00289
1.0087
1.00913
1.00928
1.00926
1.009
1.00858
1.00798
1.00727
1.00648
1.00567
1.00487
1.00416
1.00355
1.00309
1.0028
1.00877
1.00921
1.00937
1.00934
1.00908
1.00864
1.00803
1.00731
1.00651
1.00568
1.00486
1.00413
1.0035
1.00303
1.00272
1.00886
1.00929
1.00945
1.00942
1.00915
1.0087
1.00809
1.00735
1.00653
1.00568
1.00485
1.00409
1.00345
1.00296
1.00263
1.00894
1.00938
1.00953
1.0095
1.00923
1.00877
1.00814
1.00739
1.00655
1.00569
1.00483
1.00406
1.0034
1.00289
1.00255
1.00902
1.00947
1.00962
1.00958
1.0093
1.00884
1.0082
1.00743
1.00657
1.00569
1.00482
1.00403
1.00334
1.00281
1.00246
1.00911
1.00956
1.00971
1.00967
1.00938
1.00891
1.00825
1.00747
1.0066
1.0057
1.0048
1.00399
1.00329
1.00274
1.00237
1.0092
1.00965
1.0098
1.00976
1.00946
1.00898
1.00831
1.00751
1.00662
1.0057
1.00479
1.00395
1.00323
1.00266
1.00227
1.00929
1.00975
1.0099
1.00985
1.00955
1.00905
1.00837
1.00756
1.00665
1.0057
1.00477
1.00391
1.00317
1.00258
1.00218
1.00938
1.00984
1.00999
1.00994
1.00963
1.00913
1.00843
1.0076
1.00667
1.00571
1.00475
1.00387
1.00311
1.0025
1.00208
1.00948
1.00994
1.01009
1.01003
1.00972
1.0092
1.00849
1.00764
1.00669
1.00571
1.00473
1.00383
1.00305
1.00242
1.00198
1.00958
1.01004
1.01019
1.01013
1.00981
1.00928
1.00855
1.00768
1.00672
1.00571
1.00471
1.00379
1.00298
1.00234
1.00188
1.00968
1.01015
1.01029
1.01023
1.00989
1.00935
1.00861
1.00773
1.00674
1.00571
1.00469
1.00374
1.00291
1.00225
1.00178
1.00978
1.01025
1.01039
1.01033
1.00998
1.00943
1.00867
1.00777
1.00676
1.00571
1.00466
1.00369
1.00285
1.00216
1.00167
1.00988
1.01036
1.0105
1.01043
1.01008
1.00951
1.00874
1.00781
1.00678
1.00571
1.00464
1.00365
1.00278
1.00207
1.00157
1.00999
1.01047
1.01061
1.01053
1.01017
1.00959
1.0088
1.00786
1.00681
1.00571
1.00461
1.0036
1.0027
1.00198
1.00146
1.0101
1.01058
1.01072
1.01064
1.01027
1.00967
1.00887
1.00791
1.00683
1.00571
1.00459
1.00355
1.00263
1.00189
1.00135
1.01021
1.01069
1.01083
1.01074
1.01037
1.00976
1.00894
1.00795
1.00685
1.00571
1.00456
1.0035
1.00256
1.00179
1.00124
1.01032
1.01081
1.01095
1.01085
1.01047
1.00985
1.00901
1.008
1.00688
1.00571
1.00454
1.00345
1.00248
1.0017
1.00112
1.01044
1.01093
1.01106
1.01097
1.01057
1.00994
1.00908
1.00805
1.0069
1.0057
1.00451
1.00339
1.0024
1.0016
1.00101
1.01056
1.01105
1.01118
1.01108
1.01068
1.01003
1.00915
1.0081
1.00693
1.0057
1.00448
1.00334
1.00232
1.00149
1.00089
1.01068
1.01117
1.01131
1.0112
1.01078
1.01012
1.00923
1.00816
1.00696
1.0057
1.00445
1.00328
1.00224
1.00139
1.00076
1.0108
1.0113
1.01143
1.01132
1.01089
1.01022
1.0093
1.00821
1.00698
1.0057
1.00442
1.00322
1.00216
1.00128
1.00064
1.01093
1.01143
1.01156
1.01144
1.01101
1.01031
1.00938
1.00826
1.00701
1.0057
1.00439
1.00316
1.00207
1.00117
1.00051
1.01105
1.01156
1.01169
1.01157
1.01112
1.01041
1.00946
1.00831
1.00703
1.00569
1.00435
1.0031
1.00198
1.00106
1.00038
1.01119
1.0117
1.01182
1.01169
1.01124
1.01051
1.00954
1.00837
1.00706
1.00569
1.00432
1.00303
1.00189
1.00094
1.00025
1.01132
1.01183
1.01196
1.01182
1.01135
1.01061
1.00962
1.00842
1.00709
1.00568
1.00428
1.00297
1.00179
1.00083
1.00011
1.01146
1.01197
1.0121
1.01195
1.01147
1.01072
1.0097
1.00848
1.00711
1.00568
1.00424
1.0029
1.0017
1.00071
0.999973
1.0116
1.01212
1.01224
1.01209
1.0116
1.01082
1.00978
1.00853
1.00714
1.00567
1.00421
1.00283
1.0016
1.00059
0.999833
1.01174
1.01226
1.01238
1.01223
1.01172
1.01093
1.00986
1.00859
1.00716
1.00566
1.00417
1.00276
1.0015
1.00046
0.999689
1.01189
1.01241
1.01253
1.01237
1.01185
1.01104
1.00995
1.00865
1.00719
1.00566
1.00413
1.00269
1.0014
1.00034
0.999543
1.01204
1.01256
1.01268
1.01251
1.01198
1.01115
1.01004
1.00871
1.00722
1.00565
1.00409
1.00262
1.0013
1.00021
0.999393
1.01219
1.01272
1.01283
1.01266
1.01211
1.01126
1.01013
1.00877
1.00725
1.00565
1.00405
1.00254
1.00119
1.00008
0.999241
1.01234
1.01287
1.01299
1.01281
1.01225
1.01138
1.01022
1.00883
1.00728
1.00564
1.00401
1.00247
1.00109
0.99994
0.999084
1.0125
1.01304
1.01315
1.01296
1.01239
1.0115
1.01032
1.0089
1.00731
1.00564
1.00397
1.00239
1.00098
0.999802
0.998924
1.01266
1.0132
1.01331
1.01312
1.01253
1.01163
1.01042
1.00896
1.00734
1.00563
1.00392
1.00231
1.00086
0.999659
0.99876
1.01283
1.01337
1.01348
1.01328
1.01268
1.01175
1.01052
1.00903
1.00737
1.00562
1.00387
1.00222
1.00074
0.999515
0.998594
1.01299
1.01354
1.01365
1.01344
1.01283
1.01188
1.01062
1.0091
1.0074
1.00561
1.00383
1.00214
1.00062
0.999365
0.998422
1.01316
1.01371
1.01382
1.0136
1.01298
1.01201
1.01072
1.00917
1.00743
1.0056
1.00378
1.00205
1.0005
0.999214
0.998249
1.01334
1.01389
1.01399
1.01377
1.01313
1.01214
1.01082
1.00923
1.00746
1.00559
1.00372
1.00196
1.00037
0.999058
0.99807
1.01352
1.01407
1.01417
1.01394
1.01329
1.01228
1.01093
1.0093
1.00749
1.00558
1.00367
1.00186
1.00025
0.9989
0.99789
1.0137
1.01425
1.01436
1.01412
1.01345
1.01241
1.01103
1.00937
1.00752
1.00556
1.00361
1.00177
1.00012
0.998738
0.997704
1.01388
1.01444
1.01454
1.01429
1.01361
1.01255
1.01114
1.00944
1.00755
1.00555
1.00356
1.00167
0.999982
0.998574
0.997516
1.01407
1.01463
1.01473
1.01447
1.01378
1.01269
1.01125
1.00951
1.00758
1.00554
1.0035
1.00157
0.999845
0.998406
0.997323
1.01426
1.01483
1.01492
1.01466
1.01394
1.01283
1.01136
1.00959
1.00761
1.00552
1.00344
1.00147
0.999707
0.998235
0.997127
1.01446
1.01503
1.01512
1.01485
1.01412
1.01298
1.01148
1.00966
1.00764
1.00551
1.00338
1.00137
0.999564
0.998059
0.996926
1.01466
1.01523
1.01532
1.01504
1.01429
1.01313
1.01159
1.00974
1.00768
1.0055
1.00332
1.00126
0.99942
0.997881
0.996721
1.01486
1.01544
1.01553
1.01524
1.01447
1.01329
1.01172
1.00982
1.00771
1.00548
1.00326
1.00115
0.99927
0.997697
0.996511
1.01507
1.01565
1.01574
1.01544
1.01466
1.01345
1.01184
1.0099
1.00774
1.00547
1.00319
1.00104
0.999118
0.99751
0.996298
1.01528
1.01586
1.01595
1.01565
1.01485
1.01361
1.01196
1.00999
1.00778
1.00545
1.00313
1.00093
0.998961
0.997318
0.996079
1.01549
1.01608
1.01617
1.01586
1.01504
1.01377
1.01209
1.01007
1.00781
1.00543
1.00306
1.00081
0.998802
0.997124
0.995857
1.01571
1.01631
1.01639
1.01607
1.01523
1.01394
1.01222
1.01015
1.00785
1.00541
1.00299
1.00069
0.998639
0.996924
0.99563
1.01593
1.01653
1.01662
1.01629
1.01543
1.01411
1.01236
1.01024
1.00788
1.00539
1.00291
1.00057
0.998473
0.996721
0.995399
1.01616
1.01677
1.01685
1.01651
1.01564
1.01428
1.01249
1.01033
1.00791
1.00537
1.00284
1.00044
0.998302
0.996512
0.995161
1.01639
1.017
1.01709
1.01674
1.01585
1.01446
1.01263
1.01042
1.00795
1.00535
1.00276
1.00032
0.998129
0.996301
0.994921
1.01663
1.01725
1.01733
1.01697
1.01606
1.01464
1.01277
1.01051
1.00798
1.00533
1.00268
1.00018
0.99795
0.996084
0.994673
1.01687
1.01749
1.01758
1.01721
1.01627
1.01483
1.01291
1.0106
1.00802
1.00531
1.0026
1.00005
0.997769
0.995863
0.994422
1.01711
1.01774
1.01783
1.01745
1.01649
1.01502
1.01306
1.01069
1.00806
1.00528
1.00252
0.999913
0.997582
0.995635
0.994164
1.01736
1.018
1.01808
1.01769
1.01672
1.01521
1.0132
1.01079
1.00809
1.00526
1.00243
0.999772
0.997391
0.995404
0.993901
1.01761
1.01826
1.01834
1.01794
1.01695
1.0154
1.01336
1.01089
1.00813
1.00523
1.00235
0.999625
0.997195
0.995166
0.993632
1.01787
1.01853
1.01861
1.0182
1.01718
1.0156
1.01351
1.01098
1.00817
1.0052
1.00225
0.999475
0.996994
0.994924
0.993358
1.01813
1.0188
1.01888
1.01846
1.01742
1.01581
1.01367
1.01108
1.0082
1.00517
1.00216
0.99932
0.996787
0.994674
0.993077
1.0184
1.01908
1.01916
1.01873
1.01766
1.01602
1.01382
1.01118
1.00824
1.00514
1.00206
0.999161
0.996576
0.994421
0.992792
1.01867
1.01936
1.01944
1.019
1.01791
1.01623
1.01399
1.01128
1.00827
1.0051
1.00196
0.998997
0.996359
0.994161
0.9925
1.01895
1.01965
1.01972
1.01928
1.01816
1.01644
1.01415
1.01138
1.0083
1.00506
1.00185
0.99883
0.996139
0.993898
0.992204
1.01923
1.01994
1.02002
1.01956
1.01842
1.01666
1.01431
1.01149
1.00833
1.00502
1.00174
0.998658
0.995913
0.993628
0.991901
1.01952
1.02024
1.02032
1.01985
1.01868
1.01688
1.01448
1.01159
1.00837
1.00498
1.00163
0.998483
0.995684
0.993354
0.991593
1.01982
1.02054
1.02062
1.02014
1.01895
1.01711
1.01465
1.01169
1.0084
1.00494
1.00152
0.998304
0.995449
0.993074
0.991278
1.02012
1.02086
1.02093
1.02044
1.01922
1.01734
1.01483
1.0118
1.00843
1.0049
1.0014
0.998123
0.995211
0.992789
0.990959
1.02042
1.02118
1.02125
1.02075
1.0195
1.01758
1.01501
1.01191
1.00846
1.00485
1.00128
0.997937
0.994967
0.992498
0.990632
1.02073
1.0215
1.02158
1.02106
1.01979
1.01782
1.01519
1.01203
1.0085
1.00481
1.00116
0.997748
0.994719
0.992202
0.9903
1.02105
1.02183
1.02191
1.02138
1.02008
1.01807
1.01538
1.01214
1.00853
1.00476
1.00104
0.997553
0.994464
0.991898
0.989959
1.02137
1.02217
1.02225
1.02171
1.02039
1.01832
1.01557
1.01226
1.00857
1.00471
1.00091
0.997355
0.994204
0.991588
0.989612
1.0217
1.02252
1.02259
1.02205
1.02069
1.01858
1.01577
1.01238
1.00861
1.00466
1.00078
0.99715
0.993936
0.99127
0.989257
1.02204
1.02287
1.02295
1.02239
1.021
1.01885
1.01597
1.0125
1.00864
1.00461
1.00064
0.99694
0.993663
0.990946
0.988895
1.02238
1.02323
1.02331
1.02274
1.02132
1.01912
1.01618
1.01263
1.00868
1.00456
1.0005
0.996722
0.993381
0.990614
0.988524
1.02273
1.0236
1.02368
1.0231
1.02165
1.0194
1.01638
1.01275
1.00871
1.0045
1.00036
0.996499
0.993093
0.990274
0.988147
1.02309
1.02397
1.02405
1.02346
1.02198
1.01968
1.01659
1.01287
1.00874
1.00443
1.0002
0.996268
0.992796
0.989926
0.987761
1.02345
1.02435
1.02443
1.02383
1.02232
1.01997
1.01681
1.013
1.00877
1.00437
1.00005
0.996031
0.992493
0.989571
0.987368
1.02382
1.02474
1.02483
1.02421
1.02267
1.02026
1.01702
1.01312
1.0088
1.00429
0.999882
0.995786
0.992181
0.989208
0.986967
1.0242
1.02514
1.02523
1.0246
1.02302
1.02055
1.01724
1.01325
1.00882
1.00422
0.999712
0.995535
0.991864
0.988838
0.986558
1.02459
1.02555
1.02563
1.025
1.02338
1.02085
1.01746
1.01337
1.00884
1.00414
0.999536
0.995276
0.991537
0.988458
0.986141
1.02498
1.02596
1.02605
1.0254
1.02375
1.02116
1.01769
1.0135
1.00886
1.00405
0.999356
0.995012
0.991205
0.988073
0.985717
1.02539
1.02639
1.02648
1.02581
1.02412
1.02148
1.01792
1.01363
1.00888
1.00396
0.999168
0.99474
0.990863
0.987678
0.985283
1.0258
1.02682
1.02691
1.02624
1.02451
1.0218
1.01815
1.01376
1.0089
1.00387
0.998976
0.994463
0.990516
0.987277
0.984843
1.02622
1.02726
1.02736
1.02667
1.0249
1.02212
1.01839
1.01389
1.00891
1.00378
0.998778
0.994177
0.990159
0.986866
0.984393
1.02664
1.02772
1.02781
1.02711
1.0253
1.02246
1.01863
1.01402
1.00893
1.00368
0.998575
0.993885
0.989796
0.986448
0.983935
1.02708
1.02818
1.02828
1.02756
1.02571
1.0228
1.01887
1.01415
1.00894
1.00357
0.998364
0.993585
0.989423
0.986019
0.983467
1.02753
1.02865
1.02875
1.02802
1.02613
1.02314
1.01912
1.01429
1.00895
1.00346
0.998148
0.993278
0.989043
0.985584
0.982992
1.02798
1.02913
1.02924
1.0285
1.02656
1.0235
1.01938
1.01442
1.00896
1.00335
0.997924
0.992961
0.988652
0.985137
0.982505
1.02845
1.02962
1.02974
1.02898
1.027
1.02386
1.01964
1.01456
1.00897
1.00323
0.997694
0.992637
0.988254
0.984682
0.98201
1.02892
1.03013
1.03025
1.02947
1.02744
1.02423
1.0199
1.01469
1.00897
1.00311
0.997455
0.992303
0.987844
0.984216
0.981504
1.02941
1.03064
1.03077
1.02998
1.0279
1.02461
1.02017
1.01483
1.00897
1.00298
0.997208
0.99196
0.987425
0.983741
0.98099
1.0299
1.03117
1.0313
1.0305
1.02837
1.025
1.02044
1.01497
1.00897
1.00284
0.996951
0.991605
0.986995
0.983254
0.980464
1.03041
1.03171
1.03184
1.03102
1.02885
1.02539
1.02071
1.0151
1.00896
1.00269
0.996687
0.991242
0.986555
0.982758
0.979929
1.03093
1.03226
1.0324
1.03157
1.02934
1.02579
1.02099
1.01524
1.00894
1.00254
0.996411
0.990867
0.986103
0.98225
0.979382
1.03146
1.03282
1.03297
1.03212
1.02984
1.0262
1.02127
1.01537
1.00893
1.00238
0.996126
0.990482
0.985641
0.981732
0.978825
1.032
1.03339
1.03355
1.03268
1.03035
1.02661
1.02155
1.0155
1.0089
1.00221
0.99583
0.990084
0.985166
0.981201
0.978257
1.03255
1.03398
1.03414
1.03326
1.03087
1.02703
1.02184
1.01563
1.00887
1.00203
0.995525
0.989676
0.984681
0.98066
0.977679
1.03312
1.03458
1.03475
1.03386
1.0314
1.02746
1.02213
1.01576
1.00884
1.00184
0.995207
0.989255
0.984182
0.980107
0.977088
1.03369
1.0352
1.03538
1.03446
1.03195
1.0279
1.02243
1.01589
1.00879
1.00164
0.994878
0.988823
0.983673
0.979543
0.976488
1.03428
1.03582
1.03602
1.03508
1.0325
1.02835
1.02272
1.01601
1.00874
1.00144
0.994537
0.988377
0.98315
0.978966
0.975875
1.03489
1.03647
1.03667
1.03572
1.03307
1.0288
1.02302
1.01614
1.00869
1.00122
0.994184
0.98792
0.982615
0.978378
0.975251
1.0355
1.03713
1.03734
1.03637
1.03366
1.02927
1.02332
1.01626
1.00862
1.00099
0.993818
0.987447
0.982066
0.977776
0.974614
1.03614
1.0378
1.03803
1.03704
1.03425
1.02974
1.02363
1.01637
1.00855
1.00075
0.993439
0.986963
0.981505
0.977162
0.973967
1.03678
1.03849
1.03873
1.03772
1.03486
1.03022
1.02394
1.01648
1.00847
1.0005
0.993045
0.986463
0.980929
0.976535
0.973306
1.03744
1.0392
1.03945
1.03842
1.03548
1.03071
1.02425
1.01659
1.00838
1.00023
0.992638
0.985949
0.98034
0.975895
0.972635
1.03812
1.03992
1.04019
1.03913
1.03612
1.03121
1.02456
1.01669
1.00828
0.99995
0.992216
0.985419
0.979735
0.97524
0.971949
1.03881
1.04066
1.04094
1.03987
1.03677
1.03171
1.02487
1.01679
1.00817
0.999657
0.991778
0.984874
0.979116
0.974573
0.971252
1.03952
1.04142
1.04172
1.04062
1.03744
1.03223
1.02518
1.01688
1.00804
0.999349
0.991323
0.984313
0.978481
0.973891
0.97054
1.04024
1.0422
1.04251
1.04139
1.03812
1.03275
1.02549
1.01696
1.00791
0.999025
0.990852
0.983735
0.977831
0.973195
0.969817
1.04098
1.04299
1.04333
1.04218
1.03881
1.03328
1.02581
1.01704
1.00776
0.998684
0.990363
0.983139
0.977164
0.972484
0.969079
1.04174
1.04381
1.04416
1.04299
1.03952
1.03382
1.02612
1.0171
1.00759
0.998327
0.989856
0.982527
0.976482
0.971758
0.968328
1.04252
1.04464
1.04502
1.04382
1.04025
1.03436
1.02643
1.01716
1.00741
0.99795
0.98933
0.981895
0.975782
0.971017
0.967562
1.04332
1.0455
1.0459
1.04467
1.04099
1.03492
1.02674
1.01721
1.00722
0.997555
0.988784
0.981245
0.975065
0.97026
0.966784
1.04413
1.04638
1.0468
1.04554
1.04175
1.03548
1.02704
1.01724
1.00701
0.997139
0.988217
0.980574
0.97433
0.969487
0.96599
1.04497
1.04728
1.04772
1.04643
1.04252
1.03605
1.02735
1.01727
1.00677
0.996703
0.987629
0.979885
0.973577
0.968698
0.965183
1.04582
1.0482
1.04867
1.04735
1.04331
1.03662
1.02765
1.01728
1.00652
0.996244
0.987019
0.979174
0.972805
0.967892
0.964359
1.0467
1.04915
1.04964
1.04828
1.04412
1.0372
1.02794
1.01727
1.00625
0.995763
0.986386
0.978443
0.972015
0.96707
0.963522
1.0476
1.05012
1.05064
1.04925
1.04495
1.03779
1.02823
1.01725
1.00596
0.995256
0.98573
0.977688
0.971204
0.96623
0.962669
1.04852
1.05111
1.05167
1.05024
1.04579
1.03838
1.02851
1.01721
1.00564
0.994726
0.985049
0.976913
0.970375
0.965373
0.961801
1.04946
1.05214
1.05272
1.05125
1.04665
1.03898
1.02878
1.01715
1.0053
0.994168
0.984342
0.976113
0.969524
0.964498
0.960917
1.05043
1.05319
1.0538
1.05229
1.04752
1.03958
1.02904
1.01707
1.00494
0.993583
0.983609
0.975291
0.968653
0.963605
0.960018
1.05142
1.05426
1.05492
1.05336
1.04842
1.04019
1.02929
1.01697
1.00454
0.992969
0.982849
0.974443
0.96776
0.962693
0.959101
1.05244
1.05537
1.05606
1.05445
1.04933
1.04079
1.02952
1.01685
1.00412
0.992325
0.982061
0.973572
0.966846
0.961764
0.95817
1.05348
1.05651
1.05724
1.05557
1.05026
1.0414
1.02974
1.0167
1.00366
0.991649
0.981243
0.972673
0.96591
0.960814
0.957222
1.05456
1.05768
1.05844
1.05673
1.05121
1.04201
1.02995
1.01652
1.00317
0.990942
0.980396
0.97175
0.964951
0.959846
0.956258
1.05566
1.05888
1.05969
1.05791
1.05217
1.04261
1.03013
1.01631
1.00265
0.990199
0.979518
0.970798
0.963969
0.958857
0.955276
1.05679
1.06011
1.06097
1.05912
1.05315
1.04322
1.0303
1.01607
1.00209
0.989422
0.978608
0.96982
0.962964
0.95785
0.954278
1.05795
1.06138
1.06228
1.06037
1.05415
1.04381
1.03044
1.0158
1.0015
0.988607
0.977664
0.968812
0.961934
0.956821
0.953262
1.05914
1.06268
1.06364
1.06164
1.05516
1.04441
1.03056
1.01549
1.00086
0.987755
0.976687
0.967776
0.96088
0.955773
0.952231
1.06036
1.06402
1.06503
1.06295
1.05619
1.04499
1.03065
1.01513
1.00018
0.986862
0.975675
0.96671
0.959801
0.954703
0.951181
1.06162
1.06541
1.06647
1.0643
1.05723
1.04556
1.0307
1.01474
0.999455
0.985928
0.974627
0.965614
0.958697
0.953613
0.950114
1.06291
1.06683
1.06795
1.06568
1.05828
1.04612
1.03072
1.0143
0.998684
0.98495
0.973541
0.964486
0.957567
0.952501
0.949029
1.06424
1.06829
1.06947
1.06709
1.05935
1.04667
1.03071
1.01381
0.997865
0.983929
0.972418
0.963328
0.956412
0.951369
0.947927
1.0656
1.0698
1.07104
1.06854
1.06043
1.04719
1.03065
1.01328
0.996993
0.982861
0.971255
0.962136
0.95523
0.950214
0.946807
1.06701
1.07135
1.07266
1.07003
1.06152
1.04769
1.03055
1.01268
0.996068
0.981745
0.970052
0.960912
0.954022
0.949038
0.94567
1.06845
1.07296
1.07433
1.07156
1.06261
1.04817
1.03039
1.01203
0.995087
0.98058
0.968808
0.959655
0.952786
0.94784
0.944513
1.06994
1.07461
1.07605
1.07312
1.06371
1.04861
1.03019
1.01132
0.994047
0.979365
0.967523
0.958364
0.951524
0.946621
0.94334
1.07147
1.07631
1.07783
1.07472
1.06481
1.04902
1.02992
1.01054
0.992945
0.978096
0.966194
0.957039
0.950233
0.945379
0.942148
1.07304
1.07807
1.07966
1.07636
1.06591
1.04939
1.02959
1.00969
0.99178
0.976774
0.964822
0.955679
0.948916
0.944115
0.940939
1.07467
1.07989
1.08156
1.07803
1.067
1.04971
1.02919
1.00877
0.990548
0.975397
0.963405
0.954283
0.947571
0.942829
0.939711
1.07634
1.08177
1.08351
1.07974
1.06809
1.04998
1.02872
1.00777
0.989247
0.973962
0.961944
0.952853
0.946198
0.941521
0.938466
1.07806
1.08371
1.08553
1.08149
1.06916
1.05019
1.02817
1.00669
0.987875
0.972469
0.960436
0.951386
0.944796
0.94019
0.937202
1.07984
1.08572
1.08762
1.08327
1.07022
1.05034
1.02753
1.00552
0.986429
0.970917
0.958881
0.949884
0.943367
0.938837
0.935921
1.08167
1.08779
1.08977
1.08509
1.07125
1.05042
1.02679
1.00426
0.984906
0.969303
0.95728
0.948345
0.941909
0.937462
0.934621
1.08356
1.08995
1.092
1.08693
1.07225
1.05042
1.02596
1.00291
0.983305
0.967628
0.955631
0.946771
0.940424
0.936065
0.933304
1.08551
1.09217
1.0943
1.08881
1.07321
1.05032
1.02502
1.00146
0.981623
0.96589
0.953934
0.945159
0.93891
0.934646
0.931968
1.08752
1.09448
1.09668
1.09071
1.07413
1.05013
1.02397
0.99991
0.979857
0.964088
0.952189
0.943512
0.93737
0.933205
0.930616
1.0896
1.09688
1.09913
1.09263
1.07499
1.04983
1.02279
0.998249
0.978006
0.96222
0.950396
0.941828
0.9358
0.931742
0.929245
1.09176
1.09937
1.10167
1.09457
1.07578
1.04941
1.02149
0.996478
0.976069
0.960288
0.948554
0.940109
0.934204
0.930258
0.927858
1.09398
1.10196
1.10429
1.09652
1.07649
1.04885
1.02005
0.994591
0.974042
0.95829
0.946664
0.938353
0.93258
0.928752
0.926452
1.09628
1.10464
1.107
1.09848
1.07712
1.04816
1.01846
0.992586
0.971926
0.956226
0.944727
0.936563
0.93093
0.927226
0.92503
1.09866
1.10744
1.10978
1.10043
1.07764
1.0473
1.01672
0.990458
0.969718
0.954095
0.942741
0.934737
0.929253
0.925679
0.92359
1.10113
1.11035
1.11266
1.10236
1.07804
1.04628
1.01483
0.988204
0.967419
0.951899
0.940709
0.932877
0.92755
0.924111
0.922135
1.10368
1.11339
1.11562
1.10427
1.0783
1.04508
1.01276
0.985822
0.965026
0.949637
0.938629
0.930983
0.925821
0.922523
0.920662
1.10634
1.11655
1.11866
1.10614
1.07841
1.04368
1.01052
0.98331
0.962541
0.94731
0.936504
0.929057
0.924067
0.920915
0.919173
1.10909
1.11985
1.12179
1.10796
1.07834
1.04207
1.0081
0.980665
0.959963
0.944918
0.934334
0.927097
0.922288
0.919288
0.917668
1.11195
1.1233
1.125
1.1097
1.07808
1.04023
1.0055
0.977887
0.957293
0.942464
0.932121
0.925107
0.920486
0.917642
0.916148
1.11492
1.1269
1.12828
1.11135
1.0776
1.03815
1.0027
0.974973
0.954531
0.939947
0.929864
0.923086
0.91866
0.915977
0.914613
1.11802
1.13066
1.13162
1.11288
1.07687
1.03581
0.999699
0.971926
0.95168
0.93737
0.927567
0.921036
0.916813
0.914295
0.913063
1.12125
1.13459
1.13502
1.11427
1.07588
1.03321
0.996499
0.968744
0.94874
0.934735
0.92523
0.918957
0.914943
0.912594
0.911498
1.12462
1.1387
1.13847
1.1155
1.07459
1.03032
0.993095
0.96543
0.945714
0.932043
0.922856
0.916852
0.913052
0.910877
0.90992
1.12814
1.143
1.14195
1.11652
1.07297
1.02713
0.989485
0.961985
0.942605
0.929297
0.920445
0.91472
0.911141
0.909144
0.908328
1.13182
1.14749
1.14543
1.1173
1.071
1.02363
0.985669
0.958414
0.939415
0.9265
0.918001
0.912566
0.909212
0.907395
0.906723
1.13567
1.15219
1.14891
1.1178
1.06864
1.01981
0.981648
0.954719
0.936149
0.923655
0.915526
0.910388
0.907264
0.905631
0.905105
1.13972
1.15709
1.15234
1.11799
1.06587
1.01567
0.977426
0.950906
0.93281
0.920765
0.913021
0.908189
0.9053
0.903853
0.903475
1.14398
1.16221
1.1557
1.1178
1.06265
1.01119
0.973007
0.946981
0.929402
0.917833
0.91049
0.90597
0.903319
0.902061
0.901833
1.14846
1.16754
1.15896
1.1172
1.05896
1.00637
0.968397
0.94295
0.925932
0.914863
0.907935
0.903735
0.901324
0.900256
0.90018
1.1532
1.17308
1.16205
1.11613
1.05476
1.00121
0.963607
0.93882
0.922403
0.91186
0.905359
0.901482
0.899315
0.89844
0.898517
1.1582
1.17883
1.16493
1.11452
1.05004
0.995721
0.958646
0.9346
0.918823
0.908827
0.902764
0.899216
0.897294
0.896612
0.896843
1.1635
1.18478
1.16755
1.11233
1.04477
0.9899
0.953528
0.930297
0.915196
0.905769
0.900154
0.896937
0.895261
0.894774
0.89516
1.16913
1.19091
1.16983
1.10948
1.03893
0.983763
0.948267
0.925923
0.91153
0.902691
0.897532
0.894648
0.893218
0.892926
0.893468
1.17511
1.19719
1.17169
1.10591
1.0325
0.977324
0.942879
0.921487
0.90783
0.899597
0.8949
0.89235
0.891167
0.89107
0.891767
1.18149
1.20361
1.17305
1.10156
1.02548
0.970607
0.937384
0.916998
0.904105
0.896493
0.892262
0.890045
0.889108
0.889206
0.890059
1.18831
1.21011
1.17381
1.09637
1.01787
0.963637
0.931799
0.912468
0.900361
0.893382
0.889621
0.887734
0.887043
0.887335
0.888343
1.19559
1.21664
1.17386
1.09028
1.00967
0.956445
0.926145
0.907907
0.896606
0.890271
0.886979
0.885421
0.884973
0.885458
0.886621
1.2034
1.22314
1.17309
1.08322
1.00091
0.949069
0.920444
0.903326
0.892848
0.887164
0.884339
0.883106
0.8829
0.883576
0.884893
1.21177
1.2295
1.17137
1.07515
0.991624
0.941549
0.914715
0.898737
0.889094
0.884067
0.881706
0.880792
0.880825
0.88169
0.883159
1.22075
1.23564
1.16857
1.06603
0.981844
0.933929
0.90898
0.894149
0.885352
0.880984
0.87908
0.87848
0.878749
0.879801
0.881419
1.23039
1.24142
1.16455
1.05583
0.971633
0.926257
0.903258
0.889574
0.88163
0.87792
0.876465
0.876173
0.876674
0.87791
0.879675
1.24074
1.24669
1.15916
1.04455
0.961061
0.918582
0.897568
0.885021
0.877936
0.874879
0.873864
0.873871
0.874601
0.876017
0.877927
1.25184
1.25128
1.15225
1.0322
0.950214
0.910952
0.891926
0.880503
0.874279
0.871866
0.871278
0.871578
0.872532
0.874124
0.876175
1.26371
1.25496
1.14368
1.01881
0.939191
0.903414
0.886348
0.876029
0.870664
0.868886
0.868712
0.869296
0.870469
0.872233
0.874421
1.27638
1.2575
1.13329
1.00446
0.9281
0.896012
0.880847
0.871609
0.867101
0.865941
0.866166
0.867026
0.868413
0.870343
0.872664
1.28985
1.2586
1.12097
0.989241
0.917059
0.888782
0.875434
0.867254
0.863596
0.863036
0.863645
0.864772
0.866366
0.868457
0.870905
1.30409
1.25793