/*--------------------------------*- C++ -*----------------------------------*\
  =========                 |
  \\      /  F ield         | OpenFOAM: The Open Source CFD Toolbox
   \\    /   O peration     | Website:  https://openfoam.org
    \\  /    A nd           | Version:  6.0
     \\/     M anipulation  |
\*---------------------------------------------------------------------------*/
FoamFile
{
    version     2.0;
    format      ascii;
    class       surfaceScalarField;
    location    "134";
    object      phi;
}
// * * * * * * * * * * * * * * * * * * * * * * * * * * * * * * * * * * * * * //

dimensions      [0 3 -1 0 0 0 0];

internalField   nonuniform List<scalar> 
68636
(
3.02256e-05
0.00310561
4.67085e-09
6.08392e-05
0.00307072
9.10875e-05
0.00300245
0.000120476
0.00290128
0.000148619
0.00276822
0.000175168
0.00260472
0.00019981
0.00241256
0.000222262
0.00219383
0.000242263
0.0019509
0.000259591
0.00168634
0.000274041
0.00140304
0.000285467
0.00110355
0.000293847
0.000791712
0.000298776
0.00046837
0.000114818
0.000291116
2.99393e-05
0.00307565
1.66438e-08
6.0275e-05
0.00304039
9.02485e-05
0.00297247
0.00011937
0.00287215
0.000147256
0.00274033
0.000173563
0.00257841
0.00019798
0.00238814
0.000220226
0.00217158
0.000240045
0.00193108
0.000257213
0.00166917
0.000271534
0.00138872
0.000282832
0.00109224
0.0002913
0.00078323
0.000295395
0.000464256
0.000120777
0.000289401
2.96553e-05
0.00304597
2.86332e-08
5.97155e-05
0.00301032
8.94171e-05
0.00294277
0.000118274
0.0028433
0.000145908
0.0027127
0.000171975
0.00255235
0.000196171
0.00236395
0.000218214
0.00214954
0.000237853
0.00191144
0.000254864
0.00165216
0.000269057
0.00137452
0.000280221
0.00108108
0.000288608
0.000774845
0.000293161
0.000459706
0.000124438
0.000289507
2.93739e-05
0.00301655
4.04366e-08
5.91614e-05
0.00298054
8.85936e-05
0.00291334
0.000117189
0.0028147
0.000144572
0.00268532
0.000170403
0.00252651
0.000194379
0.00233997
0.000216221
0.00212769
0.000235682
0.00189197
0.000252536
0.00163529
0.000266602
0.00136045
0.000277641
0.00107003
0.00028586
0.000766614
0.000290589
0.000454959
0.000126763
0.000288233
2.90953e-05
0.00298741
5.21032e-08
5.86125e-05
0.00295102
8.77778e-05
0.00288418
0.000116114
0.00278636
0.000143248
0.00265818
0.000168844
0.00250092
0.000192602
0.00231621
0.000214246
0.00210605
0.000233528
0.00187269
0.000250228
0.0016186
0.000264166
0.00134651
0.000275092
0.00105911
0.000283122
0.000758587
0.000287806
0.00045028
0.00012827
0.000286311
2.88192e-05
0.00295852
6.35424e-08
5.80685e-05
0.00292177
8.69692e-05
0.00285527
0.000115048
0.00275828
0.000141936
0.00263129
0.000167299
0.00247555
0.00019084
0.00229267
0.000212287
0.0020846
0.000231394
0.00185358
0.000247939
0.00160205
0.00026175
0.0013327
0.000272573
0.00104828
0.000280431
0.000750718
0.000285027
0.000445669
0.000129119
0.00028415
2.85456e-05
0.0029299
7.47832e-08
5.75294e-05
0.00289279
8.61676e-05
0.00282664
0.000113992
0.00273046
0.000140635
0.00260465
0.000165767
0.00245042
0.000189095
0.00226934
0.000210346
0.00206335
0.000229279
0.00183465
0.000245672
0.00158565
0.000259355
0.00131901
0.000270083
0.00103755
0.000277795
0.00074301
0.000282298
0.000441173
0.000129588
0.000281843
2.82744e-05
0.00290154
8.58375e-08
5.6995e-05
0.00286406
8.53732e-05
0.00279826
0.000112944
0.00270289
0.000139345
0.00257825
0.00016425
0.00242551
0.000187365
0.00224623
0.000208423
0.00204229
0.000227183
0.00181589
0.000243425
0.00156941
0.000256981
0.00130545
0.000267616
0.00102691
0.000275209
0.000735407
0.000279624
0.000436743
0.000129717
0.000279471
2.80058e-05
0.00287344
9.67243e-08
5.64655e-05
0.00283561
8.45859e-05
0.00277014
0.000111907
0.00267557
0.000138068
0.00255209
0.000162746
0.00240084
0.00018565
0.00222332
0.000206516
0.00202142
0.000225105
0.0017973
0.000241198
0.00155332
0.000254627
0.00129203
0.000265171
0.00101637
0.000272664
0.00072792
0.000277006
0.000432407
0.00012965
0.000277088
2.77395e-05
0.00284559
1.07474e-07
5.59406e-05
0.0028074
8.38056e-05
0.00274227
0.000110878
0.00264849
0.000136801
0.00252616
0.000161255
0.00237638
0.000183951
0.00220062
0.000204627
0.00200074
0.000223047
0.00177888
0.000238991
0.00153737
0.000252294
0.00127872
0.000262746
0.00100591
0.000270153
0.000720503
0.000274436
0.000428111
0.000129356
0.000274708
2.74757e-05
0.002818
1.18109e-07
5.54205e-05
0.00277946
8.30322e-05
0.00271466
0.000109859
0.00262167
0.000135546
0.00250048
0.000159777
0.00235215
0.000182268
0.00217813
0.000202755
0.00198026
0.000221007
0.00176063
0.000236804
0.00152157
0.000249981
0.00126555
0.000260341
0.000995555
0.000267671
0.000713179
0.000271906
0.000423884
0.000128948
0.00027233
2.72142e-05
0.00279066
1.28651e-07
5.4905e-05
0.00275177
8.22656e-05
0.0026873
0.000108848
0.00259508
0.000134302
0.00247502
0.000158313
0.00232814
0.000180599
0.00215585
0.0002009
0.00195995
0.000218985
0.00174254
0.000234638
0.00150591
0.000247689
0.00125249
0.000257956
0.000985282
0.000265215
0.00070591
0.000269408
0.000419678
0.000128378
0.000269956
2.69551e-05
0.00276356
1.39119e-07
5.43941e-05
0.00272433
8.15059e-05
0.00266019
0.000107847
0.00256874
0.000133069
0.0024498
0.000156862
0.00230434
0.000178945
0.00213376
0.000199061
0.00193984
0.000216981
0.00172462
0.00023249
0.00149041
0.000245418
0.00123956
0.000255591
0.000975114
0.000262783
0.000698725
0.000266938
0.000415532
0.000127745
0.000267588
2.66983e-05
0.00273672
1.49526e-07
5.38877e-05
0.00269714
8.0753e-05
0.00263332
0.000106854
0.00254264
0.000131848
0.0024248
0.000155424
0.00228077
0.000177306
0.00211188
0.000197239
0.0019199
0.000214996
0.00170686
0.000230363
0.00147504
0.000243168
0.00122675
0.000253246
0.000965029
0.000260373
0.000691589
0.000264493
0.0004114
0.000126991
0.000265227
2.64438e-05
0.00271011
1.59884e-07
5.33859e-05
0.0026702
8.00068e-05
0.0026067
0.000105871
0.00251678
0.000130637
0.00240004
0.000153999
0.00225741
0.000175682
0.0020902
0.000195434
0.00190015
0.000213028
0.00168927
0.000228254
0.00145981
0.000240939
0.00121407
0.000250923
0.00095505
0.000257986
0.000684533
0.000262073
0.000407322
0.000126206
0.000262875
2.61915e-05
0.00268375
1.70196e-07
5.28885e-05
0.0026435
7.92672e-05
0.00258032
0.000104896
0.00249115
0.000129437
0.0023755
0.000152587
0.00223425
0.000174073
0.00206871
0.000193645
0.00188058
0.000211078
0.00167183
0.000226165
0.00144472
0.000238731
0.0012015
0.000248621
0.000945154
0.00025562
0.000677525
0.000259675
0.000403255
0.000125328
0.000260534
2.59415e-05
0.00265763
1.80467e-07
5.23956e-05
0.00261705
7.85343e-05
0.00255419
0.00010393
0.00246575
0.000128248
0.00235118
0.000151187
0.00221132
0.000172478
0.00204742
0.000191872
0.00186119
0.000209146
0.00165456
0.000224095
0.00142978
0.000236543
0.00118906
0.000246339
0.000935362
0.000253277
0.000670595
0.0002573
0.000399241
0.000124441
0.000258206
2.56937e-05
0.00263175
1.90695e-07
5.1907e-05
0.00259083
7.7808e-05
0.00252828
0.000102973
0.00244059
0.00012707
0.00232708
0.000149801
0.00218858
0.000170898
0.00202632
0.000190115
0.00184197
0.000207231
0.00163744
0.000222043
0.00141496
0.000234375
0.00117672
0.000244079
0.000925652
0.000250955
0.000663711
0.000254948
0.000395237
0.000123478
0.000255892
2.54482e-05
0.0026061
2.00878e-07
5.14229e-05
0.00256486
7.70882e-05
0.00250262
0.000102024
0.00241565
0.000125902
0.00230321
0.000148426
0.00216606
0.000169331
0.00200542
0.000188373
0.00182293
0.000205333
0.00162049
0.00022001
0.00140029
0.000232227
0.00116451
0.00024184
0.000916044
0.000248655
0.000656904
0.000252618
0.000391283
0.00012252
0.000253594
2.52048e-05
0.00258068
2.11008e-07
5.09431e-05
0.00253912
7.63749e-05
0.00247719
0.000101084
0.00239094
0.000124745
0.00227954
0.000147064
0.00214374
0.000167779
0.0019847
0.000186648
0.00180406
0.000203453
0.00160368
0.000217995
0.00138574
0.000230099
0.0011524
0.000239622
0.000906516
0.000246377
0.000650141
0.00025031
0.000387339
0.000121498
0.000251312
2.49636e-05
0.0025555
2.21079e-07
5.04676e-05
0.00251362
7.5668e-05
0.00245199
0.000100152
0.00236646
0.000123598
0.0022561
0.000145715
0.00212162
0.000166241
0.00196418
0.000184938
0.00178536
0.00020159
0.00158703
0.000215999
0.00137133
0.000227991
0.00114041
0.000237424
0.000897088
0.00024412
0.000643453
0.000248023
0.000383446
0.000120493
0.000249047
2.47245e-05
0.00253054
2.3108e-07
4.99964e-05
0.00248834
7.49675e-05
0.00242702
9.92292e-05
0.0023422
0.000122462
0.00223286
0.000144377
0.00209971
0.000164717
0.00194383
0.000183244
0.00176683
0.000199743
0.00157053
0.000214021
0.00135705
0.000225902
0.00112853
0.000235247
0.000887736
0.000241884
0.000636809
0.000245758
0.000379561
0.000119432
0.0002468
2.44876e-05
0.00250581
2.41003e-07
4.95295e-05
0.0024633
7.42733e-05
0.00240227
9.83144e-05
0.00231816
0.000121336
0.00220984
0.000143052
0.00207799
0.000163207
0.00192368
0.000181565
0.00174848
0.000197914
0.00155418
0.000212061
0.00134291
0.000223832
0.00111676
0.000233091
0.000878483
0.00023967
0.000630238
0.000243515
0.000375725
0.000118395
0.000244571
2.42529e-05
0.00248131
2.50834e-07
4.90668e-05
0.00243849
7.35854e-05
0.00237775
9.74078e-05
0.00229433
0.00012022
0.00218703
0.000141739
0.00205647
0.00016171
0.00190371
0.000179901
0.00173028
0.0001961
0.00153798
0.000210118
0.00132889
0.000221782
0.00110509
0.000230955
0.000869304
0.000237476
0.000623709
0.000241293
0.000371898
0.000117309
0.00024236
2.40202e-05
0.00245703
2.60566e-07
4.86083e-05
0.0024139
7.29037e-05
0.00235346
9.65094e-05
0.00227073
0.000119114
0.00216443
0.000140437
0.00203515
0.000160227
0.00188392
0.000178252
0.00171226
0.000194304
0.00152193
0.000208193
0.001315
0.00021975
0.00109354
0.000228838
0.000860221
0.000235303
0.000617252
0.000239091
0.00036812
0.000116253
0.000240167
2.37897e-05
0.00243297
2.70186e-07
4.81539e-05
0.00238954
7.22283e-05
0.00232938
9.56192e-05
0.00224734
0.000118018
0.00214203
0.000139147
0.00201402
0.000158757
0.00186431
0.000176618
0.0016944
0.000192523
0.00150602
0.000206286
0.00130123
0.000217737
0.00108208
0.000226741
0.000851211
0.000233151
0.000610835
0.00023691
0.00036435
0.000115153
0.000237992
2.35613e-05
0.00240913
2.79688e-07
4.77037e-05
0.00236539
7.15589e-05
0.00230553
9.47371e-05
0.00222416
0.000116932
0.00211983
0.000137869
0.00199308
0.000157301
0.00184488
0.000174999
0.0016767
0.000190759
0.00149027
0.000204396
0.0012876
0.000215742
0.00107074
0.000224664
0.000842294
0.000231018
0.000604489
0.00023475
0.000360629
0.000114085
0.000235836
2.3335e-05
0.0023855
2.89061e-07
4.72576e-05
0.00234147
7.08956e-05
0.00228189
9.38629e-05
0.00220119
0.000115856
0.00209784
0.000136603
0.00197234
0.000155858
0.00182562
0.000173395
0.00165916
0.000189011
0.00147465
0.000202523
0.00127408
0.000213765
0.0010595
0.000222606
0.000833448
0.000228905
0.000598182
0.000232609
0.000356915
0.000112978
0.000233698
2.31108e-05
0.00236209
2.98302e-07
4.68155e-05
0.00231777
7.02384e-05
0.00225847
9.29967e-05
0.00217843
0.00011479
0.00207605
0.000135348
0.00195178
0.000154428
0.00180654
0.000171805
0.00164179
0.000187279
0.00145918
0.000200668
0.0012607
0.000211807
0.00104836
0.000220567
0.000824694
0.000226812
0.000591944
0.000230488
0.000353249
0.000111906
0.000231579
2.28886e-05
0.0023389
3.07405e-07
4.63775e-05
0.00229428
6.95871e-05
0.00223526
9.21383e-05
0.00215588
0.000113733
0.00205445
0.000134104
0.00193141
0.00015301
0.00178764
0.00017023
0.00162456
0.000185562
0.00144384
0.000198829
0.00124743
0.000209866
0.00103732
0.000218547
0.000816008
0.000224738
0.000585746
0.000228387
0.000349591
0.000110796
0.000229478
2.26685e-05
0.00231591
3.16371e-07
4.59435e-05
0.002271
6.89418e-05
0.00221226
9.12878e-05
0.00213354
0.000112686
0.00203305
0.000132872
0.00191122
0.000151606
0.0017689
0.000168669
0.0016075
0.000183861
0.00142865
0.000197007
0.00123429
0.000207944
0.00102639
0.000216545
0.000807412
0.000222684
0.000579615
0.000226304
0.000345981
0.000109723
0.000227396
2.24504e-05
0.00229314
3.25194e-07
4.55134e-05
0.00224794
6.83023e-05
0.00218947
9.04449e-05
0.00211139
0.000111649
0.00201185
0.000131651
0.00189122
0.000150214
0.00175034
0.000167122
0.00159059
0.000182176
0.00141359
0.000195201
0.00122126
0.000206038
0.00101555
0.000214562
0.000798884
0.000220648
0.000573522
0.000224241
0.000342377
0.000108614
0.000225332
2.22343e-05
0.00227057
3.33877e-07
4.50873e-05
0.00222509
6.76687e-05
0.00216689
8.96097e-05
0.00208945
0.000110621
0.00199084
0.000130441
0.0018714
0.000148835
0.00173195
0.000165589
0.00157384
0.000180505
0.00139868
0.000193412
0.00120836
0.000204151
0.00100481
0.000212597
0.000790444
0.00021863
0.000567496
0.000222197
0.000338822
0.000107543
0.000223286
2.20203e-05
0.00224821
3.42418e-07
4.4665e-05
0.00220244
6.70408e-05
0.00214451
8.87822e-05
0.00206771
0.000109602
0.00197002
0.000129242
0.00185176
0.000147469
0.00171372
0.00016407
0.00155724
0.00017885
0.0013839
0.000191639
0.00119556
0.00020228
0.000994168
0.00021065
0.000782069
0.000216632
0.000561508
0.000220171
0.000335273
0.000106438
0.000221258
2.18082e-05
0.00222605
3.50822e-07
4.42467e-05
0.00218001
6.64187e-05
0.00212234
8.79621e-05
0.00204617
0.000108592
0.00194939
0.000128053
0.0018323
0.000146115
0.00169566
0.000162564
0.00154079
0.000177211
0.00136925
0.000189883
0.00118289
0.000200427
0.000983629
0.000208721
0.000773781
0.000214651
0.000555585
0.000218163
0.000331772
0.000105372
0.000219248
2.1598e-05
0.00220409
3.59087e-07
4.38322e-05
0.00215777
6.58022e-05
0.00210037
8.71495e-05
0.00202482
0.000107592
0.00192895
0.000126876
0.00181301
0.000144773
0.00167776
0.000161073
0.00152449
0.000175586
0.00135474
0.000188142
0.00117033
0.000198591
0.000973176
0.00020681
0.000765556
0.000212689
0.000549699
0.000216174
0.000328277
0.000104273
0.000217256
2.13899e-05
0.00218233
3.67219e-07
4.34214e-05
0.00213574
6.51914e-05
0.0020786
8.63443e-05
0.00200367
0.000106601
0.00190869
0.000125709
0.00179391
0.000143443
0.00166003
0.000159595
0.00150834
0.000173975
0.00134036
0.000186418
0.0011579
0.000196771
0.000962828
0.000204916
0.000757417
0.000210745
0.000543878
0.000214203
0.00032483
0.000103213
0.000215281
2.11837e-05
0.00216077
3.75217e-07
4.30145e-05
0.00211391
6.45861e-05
0.00205703
8.55465e-05
0.00198271
0.000105619
0.00188862
0.000124553
0.00177497
0.000142126
0.00164245
0.00015813
0.00149233
0.00017238
0.00132611
0.000184709
0.00114556
0.000194968
0.000952564
0.00020304
0.000749341
0.000208819
0.000538093
0.000212249
0.00032139
0.000102122
0.000213323
2.09794e-05
0.00213941
3.8309e-07
4.26112e-05
0.00209228
6.39864e-05
0.00203565
8.47559e-05
0.00196194
0.000104645
0.00186873
0.000123408
0.00175621
0.00014082
0.00162504
0.000156679
0.00147648
0.000170799
0.00131199
0.000183016
0.00113335
0.000193182
0.000942403
0.000201181
0.000741348
0.00020691
0.000532372
0.000210313
0.000317997
0.000101071
0.000211383
2.0777e-05
0.00211824
3.90837e-07
4.22117e-05
0.00207084
6.33922e-05
0.00201447
8.39725e-05
0.00194136
0.000103681
0.00184902
0.000122273
0.00173762
0.000139527
0.00160779
0.000155241
0.00146076
0.000169233
0.001298
0.000181338
0.00112124
0.000191412
0.000932324
0.000199339
0.000733416
0.000205018
0.000526686
0.000208395
0.000314611
9.99897e-05
0.000209459
2.05764e-05
0.00209727
3.98466e-07
4.18159e-05
0.0020496
6.28033e-05
0.00199349
8.31963e-05
0.00192097
0.000102725
0.00182949
0.000121148
0.0017192
0.000138245
0.00159069
0.000153816
0.00144519
0.00016768
0.00128414
0.000179676
0.00110925
0.000189659
0.000922346
0.000197514
0.000725566
0.000203145
0.000521064
0.000206494
0.000311272
9.89495e-05
0.000207553
2.03778e-05
0.00207649
4.05979e-07
4.14237e-05
0.00202856
6.22199e-05
0.00197269
8.24271e-05
0.00190076
0.000101778
0.00181014
0.000120033
0.00170094
0.000136975
0.00157375
0.000152405
0.00142976
0.000166142
0.0012704
0.000178029
0.00109736
0.000187921
0.000912449
0.000195706
0.000717776
0.000201288
0.000515476
0.000204611
0.000307939
9.78796e-05
0.000205664
2.0181e-05
0.00205589
4.13385e-07
4.10351e-05
0.0020077
6.16418e-05
0.00195208
8.1665e-05
0.00188073
0.00010084
0.00179097
0.000118929
0.00168285
0.000135716
0.00155696
0.000151006
0.00141447
0.000164618
0.00125679
0.000176396
0.00108559
0.0001862
0.000902651
0.000193915
0.000710066
0.000199448
0.00050995
0.000202744
0.000304653
9.68512e-05
0.000203791
1.9986e-05
0.00203548
4.20685e-07
4.065e-05
0.00198704
6.1069e-05
0.00193166
8.09098e-05
0.00186089
9.99101e-05
0.00177197
0.000117834
0.00166493
0.000134469
0.00154033
0.000149619
0.00139932
0.000163108
0.0012433
0.000174779
0.00107391
0.000184494
0.000892933
0.00019214
0.000702415
0.000197625
0.000504459
0.000200895
0.000301374
9.57935e-05
0.000201936
1.97928e-05
0.00201526
4.2789e-07
4.02685e-05
0.00196657
6.05014e-05
0.00191143
8.01615e-05
0.00184123
9.89888e-05
0.00175314
0.00011675
0.00164717
0.000133233
0.00152384
0.000148246
0.00138431
0.000161612
0.00122993
0.000173177
0.00106235
0.000182804
0.000883311
0.000190381
0.000694844
0.000195819
0.000499029
0.000199062
0.000298141
9.47773e-05
0.000200097
1.96015e-05
0.00199523
4.35003e-07
3.98905e-05
0.00194628
5.99391e-05
0.00189138
7.942e-05
0.00182175
9.80759e-05
0.00173448
0.000115675
0.00162957
0.000132008
0.00150751
0.000146885
0.00136943
0.000160129
0.00121669
0.000171589
0.00105089
0.000181129
0.000873768
0.000188639
0.000687329
0.000194029
0.000493632
0.000197246
0.000294915
9.37321e-05
0.000198275
1.94119e-05
0.00197537
4.42034e-07
3.9516e-05
0.00192617
5.93818e-05
0.00187152
7.86853e-05
0.00180245
9.71713e-05
0.001716
0.00011461
0.00161213
0.000130795
0.00149133
0.000145536
0.00135469
0.00015866
0.00120356
0.000170016
0.00103954
0.00017947
0.000864319
0.000186912
0.000679892
0.000192256
0.000488297
0.000195447
0.000291735
9.27283e-05
0.000196469
1.9224e-05
0.0019557
4.48988e-07
3.91449e-05
0.00190625
5.88297e-05
0.00185183
7.79573e-05
0.00178332
9.6275e-05
0.00169768
0.000113555
0.00159485
0.000129593
0.00147529
0.000144199
0.00134008
0.000157205
0.00119056
0.000168458
0.00102828
0.000177826
0.000854947
0.000185201
0.000672512
0.000190499
0.000482993
0.000193664
0.000288561
9.16958e-05
0.00019468
1.90379e-05
0.00193621
4.55875e-07
3.87772e-05
0.00188651
5.82825e-05
0.00183233
7.7236e-05
0.00176437
9.53869e-05
0.00167953
0.00011251
0.00157773
0.000128401
0.0014594
0.000142875
0.00132561
0.000155762
0.00117767
0.000166913
0.00101713
0.000176197
0.000845668
0.000183507
0.000665208
0.000188758
0.00047775
0.000191897
0.000285433
9.07046e-05
0.000192907
1.88535e-05
0.00191689
4.62699e-07
3.84128e-05
0.00186695
5.77404e-05
0.001813
7.65212e-05
0.00174559
9.45068e-05
0.00166154
0.000111474
0.00156076
0.000127221
0.00144365
0.000141563
0.00131127
0.000154333
0.0011649
0.000165383
0.00100608
0.000174583
0.000836465
0.000181827
0.000657959
0.000187033
0.000472539
0.000190146
0.00028231
8.9685e-05
0.000191149
1.86708e-05
0.00189775
4.6947e-07
3.80518e-05
0.00184757
5.72033e-05
0.00179385
7.58129e-05
0.00172698
9.36347e-05
0.00164372
0.000110448
0.00154395
0.000126051
0.00142805
0.000140263
0.00129706
0.000152917
0.00115225
0.000163867
0.000995134
0.000172984
0.000827353
0.000180163
0.000650785
0.000185323
0.000467386
0.000188411
0.000279234
8.87068e-05
0.000189408
1.84898e-05
0.00187878
4.76192e-07
3.76941e-05
0.00182837
5.6671e-05
0.00177487
7.51111e-05
0.00170854
9.27707e-05
0.00162606
0.000109431
0.00152729
0.000124892
0.00141258
0.000138975
0.00128297
0.000151514
0.00113971
0.000162365
0.00098428
0.000171399
0.000818314
0.000178515
0.000643664
0.00018363
0.000462265
0.000186692
0.000276163
8.77005e-05
0.000187682
1.83104e-05
0.00185999
4.82874e-07
3.73397e-05
0.00180934
5.61436e-05
0.00175607
7.44157e-05
0.00169027
9.19144e-05
0.00160856
0.000108423
0.00151078
0.000123744
0.00139727
0.000137699
0.00126902
0.000150124
0.00112729
0.000160876
0.000973532
0.000169829
0.000809366
0.000176882
0.000636618
0.000181952
0.000457203
0.000184989
0.000273137
8.67357e-05
0.000185972
1.81327e-05
0.00184137
4.89517e-07
3.69885e-05
0.00179048
5.5621e-05
0.00173743
7.37267e-05
0.00167216
9.1066e-05
0.00159122
0.000107424
0.00149442
0.000122606
0.00138208
0.000136434
0.00125519
0.000148747
0.00111497
0.000159401
0.000962874
0.000168274
0.000800489
0.000175263
0.000629624
0.000180289
0.000452171
0.000183301
0.000270117
8.57432e-05
0.000184277
1.79566e-05
0.00182292
4.96129e-07
3.66405e-05
0.0017718
5.51032e-05
0.00171897
7.30439e-05
0.00165422
9.02254e-05
0.00157404
0.000106435
0.00147821
0.000121478
0.00136704
0.000135181
0.00124149
0.000147382
0.00110277
0.00015794
0.000952319
0.000166733
0.000791701
0.00017366
0.000622704
0.000178642
0.000447196
0.000181628
0.000267141
8.47922e-05
0.000182598
1.77821e-05
0.00180463
5.02709e-07
3.62957e-05
0.00175329
5.45901e-05
0.00170068
7.23673e-05
0.00163644
8.93924e-05
0.00155702
0.000105454
0.00146215
0.000120361
0.00135213
0.000133939
0.00122791
0.000146029
0.00109068
0.000156492
0.000941853
0.000165206
0.000782984
0.000172071
0.000615834
0.00017701
0.000442252
0.000179971
0.000264171
8.38139e-05
0.000180934
1.76091e-05
0.00178651
5.09265e-07
3.5954e-05
0.00173494
5.40816e-05
0.00168255
7.16969e-05
0.00161883
8.8567e-05
0.00154015
0.000104483
0.00144624
0.000119254
0.00133736
0.000132709
0.00121446
0.00014469
0.0010787
0.000155058
0.000931489
0.000163693
0.000774353
0.000170497
0.000609036
0.000175393
0.000437364
0.000178329
0.000261246
8.28769e-05
0.000179285
1.74378e-05
0.00176856
5.15793e-07
3.56154e-05
0.00171676
5.35778e-05
0.00166459
7.10327e-05
0.00160137
8.77491e-05
0.00152343
0.00010352
0.00143046
0.000118157
0.00132272
0.00013149
0.00120112
0.000143362
0.00106683
0.000153637
0.000921211
0.000162194
0.000765792
0.000168937
0.000602288
0.00017379
0.000432505
0.000176702
0.000258326
8.1913e-05
0.00017765
1.7268e-05
0.00175077
5.22298e-07
3.52799e-05
0.00169875
5.30786e-05
0.00164679
7.03745e-05
0.00158408
8.69388e-05
0.00150687
0.000102566
0.00141484
0.00011707
0.00130822
0.000130282
0.00118792
0.000142047
0.00105507
0.000152228
0.000911033
0.000160709
0.000757316
0.000167392
0.000595611
0.000172203
0.000427703
0.00017509
0.000255449
8.09901e-05
0.000176031
1.70997e-05
0.00173314
5.28777e-07
3.49475e-05
0.0016809
5.2584e-05
0.00162915
6.97223e-05
0.00156694
8.61358e-05
0.00149045
0.000101621
0.00139935
0.000115994
0.00129385
0.000129085
0.00117482
0.000140743
0.00104341
0.000150833
0.000900941
0.000159238
0.000748908
0.000165861
0.000588983
0.00017063
0.000422928
0.000173492
0.000252578
8.00403e-05
0.000174427
1.6933e-05
0.00171567
5.35232e-07
3.46181e-05
0.00166322
5.20939e-05
0.00161168
6.9076e-05
0.00154996
8.53401e-05
0.00147419
0.000100685
0.00138401
0.000114927
0.00127961
0.0001279
0.00116185
0.000139452
0.00103186
0.000149451
0.000890946
0.00015778
0.000740584
0.000164344
0.000582424
0.000169071
0.00041821
0.00017191
0.00024975
7.9131e-05
0.000172837
1.67678e-05
0.00169836
5.41659e-07
3.42917e-05
0.0016457
5.16082e-05
0.00159436
6.84357e-05
0.00153313
8.45518e-05
0.00145807
9.97567e-05
0.0013688
0.000113869
0.00126549
0.000126725
0.00114899
0.000138173
0.00102041
0.000148081
0.000881034
0.000156335
0.000732326
0.000162841
0.000575914
0.000167527
0.000413519
0.000170341
0.000246927
7.8195e-05
0.000171262
1.6604e-05
0.00168121
5.48061e-07
3.39683e-05
0.00162833
5.11269e-05
0.0015772
6.78012e-05
0.00151646
8.37706e-05
0.0014421
9.88373e-05
0.00135374
0.000112822
0.00125151
0.000125561
0.00113626
0.000136905
0.00100906
0.000146724
0.000871219
0.000154904
0.00072415
0.000161352
0.000569472
0.000165997
0.000408882
0.000168787
0.000244146
7.72992e-05
0.000169702
1.64418e-05
0.00166421
5.5443e-07
3.36478e-05
0.00161113
5.06501e-05
0.0015602
6.71724e-05
0.00149993
8.29966e-05
0.00142628
9.79264e-05
0.00133881
0.000111784
0.00123765
0.000124407
0.00112363
0.000135649
0.00099782
0.000145379
0.000861486
0.000153486
0.00071604
0.000159877
0.000563076
0.000164481
0.000404273
0.000167248
0.000241371
7.63768e-05
0.000168155
1.6281e-05
0.00164737
5.60769e-07
3.33302e-05
0.00159408
5.01776e-05
0.00154335
6.65495e-05
0.00148356
8.22296e-05
0.0014106
9.70237e-05
0.00132402
0.000110755
0.00122392
0.000123264
0.00111113
0.000134404
0.000986683
0.000144047
0.000851847
0.000152081
0.000708011
0.000158415
0.000556748
0.000162979
0.000399717
0.000165722
0.000238637
7.54943e-05
0.000166623
1.61217e-05
0.00163068
5.67069e-07
3.30155e-05
0.00157718
4.97094e-05
0.00152666
6.59322e-05
0.00146734
8.14697e-05
0.00139506
9.61294e-05
0.00130935
0.000109737
0.00121031
0.000122132
0.00109873
0.000133171
0.000975641
0.000142727
0.000842288
0.000150689
0.000700045
0.000156967
0.000550466
0.00016149
0.000395188
0.000164211
0.000235909
7.45856e-05
0.000165105
1.59638e-05
0.00161415
5.73333e-07
3.27037e-05
0.00156044
4.92455e-05
0.00151011
6.53206e-05
0.00145127
8.07168e-05
0.00137967
9.52432e-05
0.00129483
0.000108727
0.00119683
0.00012101
0.00108645
0.00013195
0.000964705
0.00014142
0.000832822
0.00014931
0.000692159
0.000155532
0.00054425
0.000160016
0.000390712
0.000162713
0.000233222
7.37165e-05
0.000163601
1.58073e-05
0.00159776
5.79551e-07
3.23948e-05
0.00154386
4.87858e-05
0.00149372
6.47146e-05
0.00143534
7.99707e-05
0.00136441
9.43652e-05
0.00128043
0.000107727
0.00118347
0.000119899
0.00107427
0.000130739
0.000953861
0.000140124
0.000823435
0.000147944
0.000684336
0.00015411
0.000538079
0.000158555
0.000386262
0.000161229
0.000230539
7.28214e-05
0.00016211
1.56523e-05
0.00158152
5.85723e-07
3.20886e-05
0.00152742
4.83304e-05
0.00147748
6.41141e-05
0.00141955
7.92315e-05
0.00134929
9.34953e-05
0.00126617
0.000106735
0.00117023
0.000118797
0.00106221
0.00012954
0.000943122
0.00013884
0.000814139
0.00014659
0.000676591
0.000152702
0.000531973
0.000157108
0.000381865
0.000159759
0.000227898
7.19657e-05
0.000160633
1.54987e-05
0.00156543
5.91842e-07
3.17853e-05
0.00151113
4.78791e-05
0.00146139
6.35191e-05
0.00140391
7.84991e-05
0.00133431
9.26333e-05
0.00125204
0.000105753
0.00115711
0.000117706
0.00105026
0.000128352
0.000932473
0.000137568
0.00080492
0.000145249
0.000668907
0.000151306
0.000525912
0.000155674
0.000377492
0.000158303
0.000225261
7.10844e-05
0.00015917
1.53465e-05
0.00154948
5.97907e-07
3.14847e-05
0.001495
4.74319e-05
0.00144544
6.29296e-05
0.00138842
7.77733e-05
0.00131947
9.17793e-05
0.00123803
0.000104781
0.00114411
0.000116625
0.00103842
0.000127175
0.000921927
0.000136308
0.00079579
0.00014392
0.000661299
0.000149924
0.000519914
0.000154253
0.000373171
0.00015686
0.000222664
7.0242e-05
0.00015772
1.51957e-05
0.00153369
6.03908e-07
3.11869e-05
0.001479
4.69888e-05
0.00142964
6.23455e-05
0.00137306
7.70543e-05
0.00130476
9.09331e-05
0.00122415
0.000103817
0.00113122
0.000115554
0.00102668
0.000126009
0.00091147
0.00013506
0.000786736
0.000142604
0.000653752
0.000148554
0.000513959
0.000152845
0.000368875
0.00015543
0.000220072
6.93742e-05
0.000156283
1.50462e-05
0.00151803
6.09846e-07
3.08918e-05
0.00146316
4.65498e-05
0.00141398
6.17667e-05
0.00135784
7.63419e-05
0.00129019
9.00947e-05
0.0012104
0.000102861
0.00111846
0.000114493
0.00101505
0.000124853
0.000901112
0.000133823
0.00077777
0.000141299
0.000646281
0.000147197
0.000508067
0.00015145
0.000364629
0.000154013
0.000217519
6.85448e-05
0.00015486
1.48982e-05
0.00150251
6.1571e-07
3.05994e-05
0.00144746
4.61149e-05
0.00139846
6.11933e-05
0.00134276
7.5636e-05
0.00127574
8.92641e-05
0.00119677
0.000101915
0.0011058
0.000113441
0.00100352
0.000123708
0.000890843
0.000132598
0.000768878
0.000140007
0.000638868
0.000145853
0.000502218
0.000150069
0.000360408
0.000152609
0.000214971
6.76901e-05
0.00015345
1.47515e-05
0.00148714
6.21502e-07
3.03097e-05
0.0014319
4.56839e-05
0.00138309
6.06251e-05
0.00132782
7.49366e-05
0.00126143
8.84411e-05
0.00118327
0.000100978
0.00109327
0.0001124
0.000992102
0.000122574
0.000880671
0.000131384
0.000760072
0.000138727
0.000631529
0.000144521
0.00049643
0.0001487
0.000356236
0.000151219
0.000212462
6.68734e-05
0.000152054
1.46061e-05
0.00147191
6.2721e-07
3.00227e-05
0.00141648
4.52569e-05
0.00136786
6.00622e-05
0.00131302
7.42437e-05
0.00124725
8.76257e-05
0.00116989
0.000100049
0.00108084
0.000111368
0.000980782
0.000121451
0.000870586
0.000130181
0.000751339
0.000137459
0.000624248
0.000143201
0.000490684
0.000147344
0.000352088
0.000149841
0.000209957
6.60314e-05
0.00015067
1.44621e-05
0.00145681
6.32834e-07
2.97384e-05
0.00140121
4.48338e-05
0.00135276
5.95045e-05
0.00129835
7.35572e-05
0.0012332
8.68178e-05
0.00115663
9.91285e-05
0.00106854
0.000110345
0.000969567
0.000120337
0.000860597
0.000128989
0.000742691
0.000136202
0.00061704
0.000141893
0.000484998
0.000146
0.000347989
0.000148476
0.000207491
6.52269e-05
0.000149299
1.43195e-05
0.00144186
6.38366e-07
2.94566e-05
0.00138607
4.44147e-05
0.0013378
5.89519e-05
0.00128381
7.2877e-05
0.00121927
8.60174e-05
0.00114349
9.82168e-05
0.00105634
0.000109332
0.00095845
0.000119234
0.000850693
0.000127809
0.000734114
0.000134957
0.000609888
0.000140598
0.000479353
0.000144669
0.000343914
0.000147124
0.000205028
6.43974e-05
0.00014794
1.41782e-05
0.00142703
6.43804e-07
2.91775e-05
0.00137107
4.39994e-05
0.00132298
5.84044e-05
0.00126941
7.22031e-05
0.00120547
8.52244e-05
0.00113047
9.73134e-05
0.00104425
0.000108329
0.000947437
0.000118142
0.000840883
0.000126639
0.00072562
0.000133724
0.000602808
0.000139315
0.000473768
0.00014335
0.000339886
0.000145784
0.000202603
6.36048e-05
0.000146595
1.40382e-05
0.00141235
6.49138e-07
2.89009e-05
0.00135621
4.35879e-05
0.00130829
5.7862e-05
0.00125513
7.15354e-05
0.0011918
8.44388e-05
0.00111756
9.64185e-05
0.00103227
0.000107334
0.00093652
0.000117059
0.000831156
0.000125481
0.000717196
0.000132502
0.000595784
0.000138044
0.000468223
0.000142043
0.000335882
0.000144457
0.000200182
6.27876e-05
0.000145261
1.38995e-05
0.00139779
6.54368e-07
2.8627e-05
0.00134148
4.31803e-05
0.00129374
5.73246e-05
0.00124099
7.08739e-05
0.00117825
8.36604e-05
0.00110478
9.55319e-05
0.0010204
0.000106349
0.000925705
0.000115987
0.000821522
0.000124333
0.000708853
0.000131292
0.000588829
0.000136784
0.000462736
0.000140749
0.000331924
0.000143142
0.000197799
6.2007e-05
0.00014394
1.37622e-05
0.00138337
6.59484e-07
2.83555e-05
0.00132689
4.27764e-05
0.00127932
5.67922e-05
0.00122697
7.02186e-05
0.00116483
8.28893e-05
0.00109211
9.46535e-05
0.00100863
0.000105373
0.000914983
0.000114924
0.000811969
0.000123196
0.00070058