1.45 	0 	0 	-0.291413
2.35 	0 	0 	-0.12667
