1.45 	0 	0 	-0.00757952 	-0.00259823 	3.84109e-21
2.35 	0 	0 	0.0626181 	-0.00667375 	2.3662e-21
