1.45 	0 	0 	-0.00809064 	-0.00259624 	1.65461e-20
2.35 	0 	0 	0.0623289 	-0.0066228 	9.90272e-21
