1.45 	0 	0 	-0.29891
2.35 	0 	0 	-0.132737
