1.45 	0 	0 	-0.302388
2.35 	0 	0 	-0.13428
