1.45 	0 	0 	-0.00504226 	-0.00284236 	1.7242e-20
2.35 	0 	0 	0.0708353 	-0.00689243 	1.06111e-20
