1.45 	0 	0 	-0.291769
2.35 	0 	0 	-0.127095
