1.275 	2.15223e-18 	-2.76991e-20 	-0.034131 	-0.000445463 	-1.97703e-22
1.825 	2.15223e-18 	-1.39322e-20 	-0.00886078 	-0.00276752 	1.77312e-21
2.375 	2.15223e-18 	-2.66896e-23 	0.117028 	-0.00325881 	-7.40196e-22
