1.45 	0 	0 	-0.00813526 	-0.00258537 	1.65342e-20
2.35 	0 	0 	0.0621199 	-0.00662755 	9.88733e-21
