/*--------------------------------*- C++ -*----------------------------------*\
  =========                 |
  \\      /  F ield         | OpenFOAM: The Open Source CFD Toolbox
   \\    /   O peration     | Website:  https://openfoam.org
    \\  /    A nd           | Version:  6.0
     \\/     M anipulation  |
\*---------------------------------------------------------------------------*/
FoamFile
{
    version     2.0;
    format      ascii;
    class       volScalarField;
    location    "179";
    object      p;
}
// * * * * * * * * * * * * * * * * * * * * * * * * * * * * * * * * * * * * * //

dimensions      [0 2 -2 0 0 0 0];

internalField   nonuniform List<scalar> 
34500
(
1.00584
1.00592
1.00583
1.00558
1.0052
1.00473
1.00419
1.00362
1.00304
1.00248
1.00195
1.0015
1.00105
1.00081
1.00072
1.00584
1.00596
1.00592
1.00575
1.00546
1.00507
1.00461
1.00409
1.00353
1.00297
1.0024
1.0019
1.00137
1.00112
1.00094
1.00584
1.00595
1.00589
1.00568
1.00535
1.00493
1.00443
1.00388
1.00331
1.00274
1.00218
1.0017
1.00121
1.00103
1.00084
1.00585
1.00594
1.00587
1.00563
1.00527
1.00481
1.00429
1.00372
1.00314
1.00257
1.00203
1.00157
1.00112
1.001
1.00088
1.00585
1.00595
1.00588
1.00565
1.00529
1.00484
1.00431
1.00375
1.00317
1.0026
1.00206
1.00161
1.00116
1.00106
1.00096
1.00586
1.00596
1.0059
1.00568
1.00533
1.00489
1.00437
1.00381
1.00322
1.00266
1.00211
1.00165
1.00121
1.0011
1.00101
1.00587
1.00597
1.00591
1.00569
1.00535
1.00491
1.00439
1.00383
1.00325
1.00268
1.00213
1.00166
1.00122
1.00112
1.00104
1.00588
1.00598
1.00592
1.00571
1.00537
1.00492
1.0044
1.00384
1.00325
1.00268
1.00214
1.00167
1.00124
1.00113
1.00106
1.00589
1.00599
1.00593
1.00572
1.00538
1.00494
1.00442
1.00386
1.00327
1.0027
1.00215
1.00169
1.00125
1.00114
1.00108
1.0059
1.00601
1.00595
1.00574
1.0054
1.00496
1.00445
1.00388
1.0033
1.00272
1.00217
1.0017
1.00127
1.00115
1.00109
1.00592
1.00602
1.00596
1.00576
1.00542
1.00498
1.00447
1.0039
1.00332
1.00274
1.00218
1.00171
1.00128
1.00115
1.00109
1.00593
1.00604
1.00598
1.00577
1.00544
1.005
1.00449
1.00392
1.00333
1.00275
1.00219
1.00172
1.00128
1.00114
1.00108
1.00595
1.00606
1.006
1.00579
1.00546
1.00502
1.0045
1.00393
1.00334
1.00276
1.0022
1.00172
1.00129
1.00114
1.00107
1.00597
1.00607
1.00602
1.00581
1.00548
1.00504
1.00452
1.00395
1.00335
1.00276
1.0022
1.00172
1.00129
1.00113
1.00106
1.00598
1.00609
1.00604
1.00583
1.0055
1.00506
1.00453
1.00396
1.00336
1.00277
1.00221
1.00172
1.00129
1.00112
1.00104
1.00601
1.00611
1.00606
1.00586
1.00552
1.00508
1.00455
1.00398
1.00337
1.00278
1.00221
1.00173
1.0013
1.00111
1.00103
1.00603
1.00614
1.00609
1.00588
1.00554
1.0051
1.00457
1.004
1.00339
1.0028
1.00222
1.00173
1.0013
1.0011
1.00101
1.00605
1.00616
1.00611
1.00591
1.00557
1.00513
1.0046
1.00402
1.00341
1.00281
1.00224
1.00174
1.00131
1.00109
1.00099
1.00607
1.00619
1.00614
1.00594
1.0056
1.00516
1.00463
1.00404
1.00343
1.00283
1.00225
1.00175
1.00131
1.00108
1.00096
1.0061
1.00621
1.00617
1.00597
1.00563
1.00519
1.00466
1.00407
1.00345
1.00285
1.00226
1.00175
1.00131
1.00106
1.00093
1.00613
1.00624
1.00619
1.006
1.00566
1.00522
1.00468
1.00409
1.00347
1.00286
1.00227
1.00175
1.0013
1.00105
1.00091
1.00616
1.00627
1.00622
1.00603
1.00569
1.00525
1.00471
1.00412
1.00349
1.00287
1.00227
1.00175
1.0013
1.00103
1.00087
1.00618
1.0063
1.00626
1.00606
1.00572
1.00527
1.00473
1.00414
1.00351
1.00288
1.00228
1.00175
1.00129
1.00101
1.00084
1.00622
1.00633
1.00629
1.00609
1.00575
1.0053
1.00476
1.00416
1.00352
1.00289
1.00228
1.00174
1.00128
1.00098
1.00081
1.00625
1.00637
1.00632
1.00612
1.00578
1.00533
1.00478
1.00418
1.00353
1.0029
1.00228
1.00174
1.00127
1.00096
1.00078
1.00628
1.0064
1.00636
1.00615
1.00581
1.00536
1.00481
1.0042
1.00355
1.0029
1.00228
1.00173
1.00126
1.00094
1.00074
1.00632
1.00644
1.00639
1.00619
1.00585
1.00539
1.00483
1.00422
1.00356
1.00291
1.00228
1.00173
1.00125
1.00092
1.00071
1.00635
1.00647
1.00643
1.00623
1.00588
1.00542
1.00486
1.00424
1.00358
1.00292
1.00229
1.00172
1.00123
1.00089
1.00067
1.00639
1.00651
1.00647
1.00626
1.00592
1.00545
1.00489
1.00426
1.0036
1.00293
1.00229
1.00172
1.00122
1.00087
1.00063
1.00643
1.00655
1.00651
1.0063
1.00595
1.00549
1.00492
1.00428
1.00361
1.00294
1.00229
1.00171
1.0012
1.00084
1.0006
1.00647
1.0066
1.00655
1.00634
1.00599
1.00552
1.00495
1.00431
1.00363
1.00295
1.00229
1.0017
1.00119
1.00081
1.00056
1.00651
1.00664
1.00659
1.00639
1.00603
1.00556
1.00498
1.00433
1.00364
1.00296
1.00229
1.00169
1.00117
1.00078
1.00052
1.00655
1.00669
1.00664
1.00643
1.00607
1.00559
1.00501
1.00436
1.00366
1.00297
1.00229
1.00168
1.00115
1.00075
1.00048
1.0066
1.00673
1.00669
1.00648
1.00612
1.00563
1.00504
1.00438
1.00368
1.00297
1.00229
1.00167
1.00114
1.00072
1.00044
1.00665
1.00678
1.00673
1.00652
1.00616
1.00567
1.00507
1.00441
1.0037
1.00298
1.00229
1.00166
1.00112
1.00069
1.00039
1.00669
1.00683
1.00678
1.00657
1.0062
1.00571
1.00511
1.00443
1.00372
1.00299
1.00229
1.00165
1.0011
1.00066
1.00035
1.00674
1.00688
1.00683
1.00662
1.00625
1.00576
1.00515
1.00446
1.00374
1.003
1.00229
1.00164
1.00107
1.00063
1.00031
1.00679
1.00693
1.00689
1.00667
1.0063
1.0058
1.00518
1.00449
1.00375
1.00301
1.00229
1.00163
1.00105
1.00059
1.00026
1.00685
1.00699
1.00694
1.00673
1.00635
1.00584
1.00522
1.00452
1.00377
1.00302
1.00228
1.00161
1.00103
1.00056
1.00022
1.0069
1.00704
1.00699
1.00678
1.0064
1.00589
1.00526
1.00455
1.00379
1.00303
1.00228
1.0016
1.001
1.00052
1.00017
1.00695
1.0071
1.00705
1.00683
1.00645
1.00593
1.00529
1.00458
1.00381
1.00303
1.00228
1.00158
1.00097
1.00048
1.00012
1.00701
1.00716
1.00711
1.00689
1.0065
1.00597
1.00533
1.0046
1.00383
1.00304
1.00227
1.00156
1.00095
1.00044
1.00007
1.00707
1.00722
1.00716
1.00694
1.00655
1.00602
1.00537
1.00463
1.00384
1.00304
1.00226
1.00155
1.00092
1.0004
1.00002
1.00713
1.00728
1.00722
1.007
1.0066
1.00607
1.0054
1.00466
1.00386
1.00305
1.00226
1.00153
1.00089
1.00036
0.99997
1.00719
1.00734
1.00729
1.00706
1.00666
1.00611
1.00544
1.00469
1.00388
1.00305
1.00225
1.00151
1.00086
1.00032
0.999918
1.00725
1.0074
1.00735
1.00712
1.00671
1.00616
1.00548
1.00472
1.00389
1.00306
1.00224
1.00149
1.00082
1.00028
0.999865
1.00732
1.00747
1.00741
1.00718
1.00677
1.00621
1.00552
1.00475
1.00391
1.00306
1.00223
1.00147
1.00079
1.00023
0.999811
1.00738
1.00754
1.00748
1.00725
1.00683
1.00626
1.00556
1.00478
1.00393
1.00307
1.00223
1.00145
1.00076
1.00019
0.999756
1.00745
1.00761
1.00755
1.00731
1.00689
1.00632
1.00561
1.00481
1.00395
1.00307
1.00222
1.00143
1.00072
1.00014
0.9997
1.00752
1.00768
1.00762
1.00738
1.00695
1.00637
1.00565
1.00484
1.00397
1.00308
1.00221
1.0014
1.00069
1.0001
0.999642
1.00759
1.00775
1.00769
1.00745
1.00701
1.00643
1.0057
1.00488
1.00399
1.00309
1.0022
1.00138
1.00065
1.00005
0.999583
1.00766
1.00783
1.00776
1.00752
1.00708
1.00648
1.00575
1.00491
1.00401
1.00309
1.00219
1.00136
1.00061
0.999998
0.999523
1.00774
1.0079
1.00784
1.00759
1.00715
1.00654
1.00579
1.00495
1.00403
1.0031
1.00218
1.00133
1.00058
0.999947
0.999461
1.00781
1.00798
1.00792
1.00767
1.00721
1.0066
1.00584
1.00498
1.00405
1.0031
1.00217
1.00131
1.00053
0.999894
0.999398
1.00789
1.00806
1.008
1.00774
1.00728
1.00666
1.00589
1.00502
1.00408
1.00311
1.00216
1.00128
1.00049
0.99984
0.999333
1.00797
1.00815
1.00808
1.00782
1.00735
1.00673
1.00594
1.00505
1.0041
1.00311
1.00215
1.00125
1.00045
0.999784
0.999267
1.00805
1.00823
1.00816
1.0079
1.00743
1.00679
1.00599
1.00509
1.00412
1.00312
1.00214
1.00122
1.00041
0.999727
0.9992
1.00814
1.00832
1.00824
1.00798
1.0075
1.00685
1.00605
1.00513
1.00414
1.00312
1.00212
1.00119
1.00036
0.999668
0.99913
1.00822
1.0084
1.00833
1.00806
1.00758
1.00692
1.0061
1.00517
1.00416
1.00313
1.00211
1.00116
1.00031
0.999608
0.99906
1.00831
1.00849
1.00842
1.00815
1.00765
1.00698
1.00615
1.0052
1.00418
1.00313
1.0021
1.00113
1.00027
0.999547
0.998988
1.0084
1.00859
1.00851
1.00823
1.00773
1.00705
1.00621
1.00524
1.0042
1.00313
1.00208
1.00109
1.00022
0.999485
0.998914
1.00849
1.00868
1.0086
1.00832
1.00781
1.00712
1.00626
1.00528
1.00423
1.00314
1.00207
1.00106
1.00017
0.99942
0.998838
1.00858
1.00878
1.00869
1.00841
1.00789
1.0072
1.00632
1.00533
1.00425
1.00314
1.00205
1.00103
1.00012
0.999355
0.998761
1.00868
1.00887
1.00879
1.0085
1.00798
1.00727
1.00638
1.00537
1.00427
1.00314
1.00203
1.00099
1.00006
0.999287
0.998682
1.00878
1.00897
1.00889
1.0086
1.00806
1.00734
1.00644
1.00541
1.0043
1.00315
1.00202
1.00096
1.00001
0.999218
0.998601
1.00888
1.00908
1.00899
1.00869
1.00815
1.00742
1.0065
1.00546
1.00432
1.00315
1.002
1.00092
0.999953
0.999147
0.998518
1.00898
1.00918
1.00909
1.00879
1.00824
1.0075
1.00657
1.0055
1.00435
1.00315
1.00198
1.00088
0.999895
0.999074
0.998433
1.00908
1.00929
1.00919
1.00889
1.00833
1.00758
1.00663
1.00555
1.00437
1.00316
1.00196
1.00084
0.999836
0.998999
0.998345
1.00919
1.0094
1.0093
1.00899
1.00843
1.00766
1.0067
1.00559
1.0044
1.00316
1.00194
1.0008
0.999776
0.998923
0.998256
1.00929
1.00951
1.00941
1.0091
1.00852
1.00774
1.00676
1.00564
1.00442
1.00316
1.00192
1.00076
0.999713
0.998844
0.998165
1.0094
1.00962
1.00952
1.0092
1.00862
1.00783
1.00683
1.00569
1.00445
1.00316
1.0019
1.00071
0.999649
0.998764
0.998072
1.00951
1.00974
1.00963
1.00931
1.00872
1.00791
1.0069
1.00573
1.00447
1.00317
1.00188
1.00067
0.999584
0.998681
0.997976
1.00963
1.00985
1.00975
1.00942
1.00882
1.008
1.00697
1.00578
1.0045
1.00317
1.00185
1.00062
0.999517
0.998597
0.997879
1.00975
1.00997
1.00987
1.00954
1.00892
1.00809
1.00704
1.00583
1.00452
1.00317
1.00183
1.00057
0.999448
0.998511
0.997778
1.00986
1.0101
1.00999
1.00965
1.00903
1.00818
1.00711
1.00588
1.00455
1.00317
1.00181
1.00052
0.999378
0.998423
0.997676
1.00999
1.01022
1.01011
1.00977
1.00914
1.00827
1.00718
1.00594
1.00458
1.00317
1.00178
1.00047
0.999306
0.998332
0.997572
1.01011
1.01035
1.01024
1.00989
1.00925
1.00837
1.00726
1.00599
1.0046
1.00317
1.00176
1.00042
0.999232
0.99824
0.997465
1.01024
1.01048
1.01037
1.01001
1.00936
1.00846
1.00734
1.00604
1.00463
1.00317
1.00173
1.00037
0.999157
0.998145
0.997355
1.01037
1.01061
1.0105
1.01014
1.00947
1.00856
1.00742
1.0061
1.00466
1.00317
1.0017
1.00032
0.99908
0.998048
0.997243
1.0105
1.01075
1.01063
1.01027
1.00959
1.00867
1.0075
1.00615
1.00469
1.00317
1.00168
1.00026
0.999
0.997949
0.997128
1.01063
1.01089
1.01077
1.0104
1.00971
1.00877
1.00758
1.00621
1.00472
1.00317
1.00165
1.00021
0.998919
0.997847
0.99701
1.01077
1.01103
1.01091
1.01053
1.00983
1.00888
1.00766
1.00627
1.00475
1.00317
1.00162
1.00015
0.998835
0.997743
0.996889
1.01091
1.01118
1.01105
1.01067
1.00996
1.00898
1.00775
1.00633
1.00478
1.00317
1.00159
1.00009
0.99875
0.997636
0.996766
1.01105
1.01132
1.01119
1.01081
1.01008
1.00909
1.00784
1.00639
1.00481
1.00317
1.00155
1.00003
0.998662
0.997526
0.99664
1.0112
1.01147
1.01134
1.01095
1.01021
1.0092
1.00793
1.00645
1.00484
1.00317
1.00152
0.999965
0.998572
0.997414
0.99651
1.01135
1.01163
1.01149
1.01109
1.01035
1.00932
1.00802
1.00651
1.00487
1.00317
1.00149
0.9999
0.998479
0.997299
0.996378
1.0115
1.01178
1.01164
1.01124
1.01048
1.00944
1.00811
1.00658
1.00491
1.00317
1.00145
0.999833
0.998385
0.997181
0.996243
1.01165
1.01194
1.0118
1.01139
1.01062
1.00955
1.0082
1.00664
1.00494
1.00317
1.00141
0.999765
0.998288
0.997061
0.996104
1.01181
1.01211
1.01196
1.01154
1.01076
1.00967
1.0083
1.00671
1.00497
1.00316
1.00138
0.999695
0.998189
0.996938
0.995962
1.01197
1.01227
1.01212
1.0117
1.0109
1.0098
1.0084
1.00678
1.005
1.00316
1.00134
0.999622
0.998087
0.996811
0.995817
1.01213
1.01244
1.01229
1.01186
1.01105
1.00992
1.0085
1.00684
1.00504
1.00316
1.0013
0.999549
0.997983
0.996683
0.995669
1.0123
1.01261
1.01246
1.01202
1.0112
1.01005
1.0086
1.00691
1.00507
1.00315
1.00126
0.999473
0.997876
0.99655
0.995517
1.01247
1.01279
1.01263
1.01219
1.01135
1.01018
1.0087
1.00698
1.0051
1.00315
1.00122
0.999396
0.997767
0.996415
0.995362
1.01264
1.01297
1.01281
1.01236
1.0115
1.01032
1.00881
1.00706
1.00514
1.00314
1.00117
0.999316
0.997655
0.996277
0.995203
1.01282
1.01315
1.01299
1.01253
1.01166
1.01045
1.00891
1.00713
1.00517
1.00314
1.00113
0.999235
0.997541
0.996135
0.995041
1.013
1.01334
1.01317
1.01271
1.01182
1.01059
1.00902
1.0072
1.00521
1.00314
1.00108
0.999151
0.997423
0.99599
0.994874
1.01319
1.01353
1.01336
1.01289
1.01199
1.01074
1.00914
1.00728
1.00525
1.00313
1.00104
0.999066
0.997303
0.995842
0.994704
1.01337
1.01372
1.01355
1.01307
1.01216
1.01088
1.00925
1.00736
1.00528
1.00312
1.00099
0.998977
0.99718
0.995689
0.994529
1.01356
1.01392
1.01375
1.01326
1.01233
1.01103
1.00937
1.00744
1.00532
1.00312
1.00094
0.998887
0.997054
0.995534
0.994351
1.01376
1.01412
1.01395
1.01345
1.0125
1.01118
1.00949
1.00752
1.00536
1.00311
1.00089
0.998793
0.996924
0.995374
0.994169
1.01396
1.01433
1.01415
1.01365
1.01268
1.01133
1.00961
1.0076
1.00539
1.0031
1.00083
0.998698
0.996791
0.995211
0.993982
1.01416
1.01454
1.01436
1.01385
1.01286
1.01149
1.00973
1.00768
1.00543
1.00309
1.00078
0.998599
0.996655
0.995044
0.993791
1.01437
1.01475
1.01457
1.01405
1.01305
1.01165
1.00986
1.00777
1.00547
1.00308
1.00072
0.998499
0.996516
0.994873
0.993596
1.01458
1.01497
1.01479
1.01426
1.01324
1.01181
1.00998
1.00785
1.00551
1.00307
1.00066
0.998395
0.996373
0.994698
0.993396
1.01479
1.01519
1.01501
1.01447
1.01343
1.01198
1.01012
1.00794
1.00555
1.00306
1.0006
0.998289
0.996227
0.994519
0.993192
1.01501
1.01542
1.01523
1.01469
1.01363
1.01215
1.01025
1.00803
1.00559
1.00305
1.00054
0.99818
0.996077
0.994336
0.992983
1.01524
1.01565
1.01546
1.01491
1.01383
1.01232
1.01038
1.00812
1.00563
1.00303
1.00047
0.998069
0.995924
0.994148
0.99277
1.01546
1.01588
1.01569
1.01513
1.01404
1.0125
1.01052
1.00821
1.00567
1.00302
1.00041
0.997954
0.995766
0.993956
0.992552
1.0157
1.01613
1.01593
1.01536
1.01425
1.01268
1.01066
1.0083
1.00571
1.00301
1.00034
0.997836
0.995605
0.99376
0.992328
1.01593
1.01637
1.01617
1.0156
1.01446
1.01286
1.01081
1.0084
1.00575
1.00299
1.00027
0.997715
0.99544
0.993559
0.9921
1.01617
1.01662
1.01642
1.01584
1.01468
1.01305
1.01095
1.00849
1.00579
1.00297
1.0002
0.997591
0.995271
0.993353
0.991866
1.01642
1.01688
1.01668
1.01608
1.0149
1.01324
1.0111
1.00859
1.00583
1.00296
1.00012
0.997464
0.995098
0.993143
0.991627
1.01667
1.01714
1.01693
1.01633
1.01513
1.01344
1.01125
1.00869
1.00587
1.00294
1.00004
0.997333
0.99492
0.992927
0.991383
1.01693
1.0174
1.0172
1.01658
1.01537
1.01364
1.01141
1.00879
1.00591
1.00292
0.999964
0.997198
0.994738
0.992706
0.991133
1.01719
1.01767
1.01747
1.01684
1.0156
1.01384
1.01157
1.00889
1.00595
1.0029
0.999882
0.997059
0.994551
0.992481
0.990878
1.01745
1.01795
1.01774
1.01711
1.01584
1.01405
1.01173
1.009
1.00599
1.00287
0.999796
0.996917
0.99436
0.992249
0.990617
1.01773
1.01823
1.01802
1.01738
1.01609
1.01426
1.01189
1.0091
1.00604
1.00285
0.999708
0.996771
0.994164
0.992013
0.99035
1.018
1.01852
1.01831
1.01766
1.01634
1.01448
1.01206
1.00921
1.00608
1.00282
0.999617
0.996621
0.993963
0.991771
0.990077
1.01828
1.01881
1.0186
1.01794
1.0166
1.0147
1.01222
1.00932
1.00612
1.00279
0.999523
0.996467
0.993757
0.991524
0.989799
1.01857
1.01911
1.0189
1.01823
1.01687
1.01492
1.0124
1.00943
1.00616
1.00276
0.999426
0.996308
0.993546
0.991271
0.989514
1.01887
1.01941
1.0192
1.01852
1.01713
1.01515
1.01257
1.00954
1.0062
1.00273
0.999326
0.996146
0.99333
0.991012
0.989223
1.01916
1.01973
1.01951
1.01882
1.01741
1.01538
1.01275
1.00965
1.00624
1.0027
0.999222
0.995978
0.993108
0.990747
0.988925
1.01947
1.02004
1.01983
1.01912
1.01769
1.01562
1.01293
1.00977
1.00628
1.00267
0.999116
0.995807
0.992882
0.990476
0.988621
1.01978
1.02037
1.02015
1.01944
1.01797
1.01587
1.01312
1.00988
1.00632
1.00263
0.999005
0.99563
0.992649
0.990198
0.988309
1.0201
1.0207
1.02048
1.01976
1.01826
1.01611
1.01331
1.01
1.00636
1.00259
0.998891
0.995449
0.99241
0.989914
0.987991
1.02042
1.02104
1.02082
1.02008
1.01856
1.01637
1.0135
1.01012
1.0064
1.00255
0.998773
0.995262
0.992165
0.989623
0.987666
1.02075
1.02138
1.02116
1.02042
1.01887
1.01663
1.0137
1.01024
1.00644
1.00251
0.99865
0.99507
0.991914
0.989325
0.987334
1.02109
1.02173
1.02151
1.02075
1.01918
1.01689
1.0139
1.01036
1.00648
1.00246
0.998523
0.994872
0.991656
0.98902
0.986995
1.02143
1.02209
1.02187
1.0211
1.01949
1.01716
1.0141
1.01049
1.00652
1.00241
0.998393
0.994668
0.991393
0.988709
0.986648
1.02178
1.02246
1.02224
1.02146
1.01982
1.01743
1.01431
1.01061
1.00655
1.00236
0.998257
0.994459
0.991122
0.98839
0.986293
1.02214
1.02283
1.02261
1.02182
1.02015
1.01771
1.01452
1.01074
1.00659
1.0023
0.998116
0.994244
0.990844
0.988064
0.985932
1.0225
1.02321
1.023
1.02219
1.02048
1.018
1.01473
1.01087
1.00662
1.00224
0.997971
0.994022
0.99056
0.98773
0.985562
1.02287
1.0236
1.02339
1.02257
1.02083
1.01829
1.01495
1.011
1.00666
1.00218
0.997821
0.993795
0.990268
0.987388
0.985184
1.02325
1.024
1.02378
1.02295
1.02118
1.01858
1.01517
1.01113
1.00669
1.00212
0.997665
0.993561
0.989969
0.987039
0.984798
1.02364
1.0244
1.02419
1.02335
1.02154
1.01888
1.01539
1.01126
1.00672
1.00205
0.997504
0.99332
0.989663
0.986682
0.984404
1.02403
1.02482
1.02461
1.02375
1.02191
1.01919
1.01562
1.01139
1.00675
1.00198
0.997338
0.993072
0.989348
0.986316
0.984001
1.02444
1.02524
1.02503
1.02416
1.02228
1.01951
1.01585
1.01152
1.00678
1.0019
0.997166
0.992817
0.989026
0.985942
0.98359
1.02485
1.02567
1.02546
1.02458
1.02266
1.01983
1.01609
1.01166
1.0068
1.00182
0.996987
0.992554
0.988695
0.985558
0.98317
1.02527
1.02611
1.02591
1.02501
1.02305
1.02015
1.01632
1.01179
1.00683
1.00173
0.996802
0.992284
0.988356
0.985167
0.982741
1.0257
1.02656
1.02636
1.02545
1.02345
1.02049
1.01657
1.01193
1.00685
1.00164
0.99661
0.992005
0.988007
0.984765
0.982302
1.02613
1.02702
1.02682
1.0259
1.02386
1.02083
1.01681
1.01207
1.00687
1.00155
0.996411
0.991719
0.98765
0.984355
0.981854
1.02658
1.02749
1.0273
1.02636
1.02428
1.02117
1.01706
1.0122
1.00688
1.00145
0.996204
0.991423
0.987284
0.983935
0.981397
1.02704
1.02797
1.02778
1.02682
1.0247
1.02153
1.01732
1.01234
1.0069
1.00134
0.995991
0.991119
0.986908
0.983506
0.98093
1.0275
1.02846
1.02827
1.0273
1.02514
1.02189
1.01758
1.01248
1.00691
1.00123
0.995769
0.990805
0.986522
0.983066
0.980453
1.02798
1.02897
1.02878
1.02779
1.02558
1.02225
1.01784
1.01261
1.00692
1.00111
0.995539
0.990483
0.986127
0.982617
0.979967
1.02846
1.02948
1.0293
1.02829
1.02603
1.02263
1.0181
1.01275
1.00692
1.00098
0.9953
0.99015
0.985721
0.982157
0.97947
1.02896
1.03
1.02982
1.02881
1.0265
1.02301
1.01837
1.01289
1.00692
1.00085
0.995053
0.989808
0.985305
0.981687
0.978962
1.02946
1.03054
1.03036
1.02933
1.02697
1.02339
1.01864
1.01302
1.00691
1.00071
0.994796
0.989455
0.984877
0.981205
0.978444
1.02998
1.03108
1.03092
1.02986
1.02745
1.02379
1.01892
1.01316
1.0069
1.00057
0.994531
0.989092
0.984439
0.980713
0.977916
1.03051
1.03164
1.03148
1.03041
1.02795
1.02419
1.0192
1.01329
1.00689
1.00041
0.994254
0.988717
0.983989
0.980209
0.977375
1.03105
1.03221
1.03206
1.03097
1.02845
1.0246
1.01948
1.01343
1.00687
1.00025
0.993968
0.988331
0.983528
0.979694
0.976825
1.0316
1.0328
1.03265
1.03154
1.02897
1.02502
1.01976
1.01356
1.00684
1.00008
0.99367
0.987933
0.983054
0.979166
0.976262
1.03217
1.03339
1.03325
1.03213
1.02949
1.02545
1.02005
1.01369
1.00681
0.999896
0.993362
0.987523
0.982568
0.978627
0.975689
1.03274
1.034
1.03387
1.03273
1.03003
1.02588
1.02034
1.01382
1.00677
0.999705
0.993041
0.9871
0.982069
0.978075
0.975102
1.03333
1.03463
1.0345
1.03334
1.03058
1.02632
1.02064
1.01394
1.00673
0.999504
0.992709
0.986665
0.981558
0.977511
0.974505
1.03393
1.03526
1.03515
1.03397
1.03114
1.02677
1.02093
1.01406
1.00667
0.999292
0.992364
0.986215
0.981032
0.976934
0.973895
1.03455
1.03592
1.03581
1.03461
1.03171
1.02723
1.02123
1.01418
1.00661
0.999069
0.992005
0.985753
0.980494
0.976344
0.973273
1.03518
1.03659
1.03649
1.03527
1.0323
1.02769
1.02153
1.0143
1.00654
0.998834
0.991633
0.985275
0.979941
0.97574
0.972638
1.03582
1.03727
1.03719
1.03594
1.0329
1.02816
1.02184
1.01441
1.00647
0.998586
0.991247
0.984783
0.979374
0.975123
0.971991
1.03648
1.03797
1.0379
1.03663
1.03351
1.02864
1.02214
1.01451
1.00638
0.998325
0.990846
0.984276
0.978792
0.974491
0.97133
1.03715
1.03869
1.03863
1.03733
1.03414
1.02913
1.02244
1.01462
1.00628
0.998051
0.99043
0.983753
0.978195
0.973846
0.970657
1.03784
1.03942
1.03937
1.03806
1.03478
1.02963
1.02275
1.01471
1.00617
0.997762
0.989997
0.983214
0.977581
0.973186
0.96997
1.03855
1.04017
1.04014
1.0388
1.03543
1.03013
1.02306
1.0148
1.00605
0.997458
0.989548
0.982658
0.976953
0.972511
0.969269
1.03927
1.04094
1.04092
1.03955
1.03609
1.03064
1.02336
1.01488
1.00591
0.997137
0.989081
0.982084
0.976307
0.97182
0.968554
1.04
1.04172
1.04172
1.04033
1.03678
1.03116
1.02367
1.01495
1.00576
0.9968
0.988597
0.981494
0.975645
0.971114
0.967826
1.04076
1.04253
1.04255
1.04112
1.03747
1.03169
1.02397
1.01502
1.0056
0.996445
0.988093
0.980884
0.974965
0.970392
0.967083
1.04153
1.04335
1.04339
1.04193
1.03818
1.03222
1.02428
1.01507
1.00542
0.996072
0.98757
0.980255
0.974267
0.969655
0.966325
1.04232
1.0442
1.04425
1.04277
1.03891
1.03276
1.02458
1.01512
1.00523
0.995679
0.987027
0.979606
0.973551
0.9689
0.965553
1.04313
1.04507
1.04514
1.04362
1.03965
1.03331
1.02488
1.01515
1.00502
0.995267
0.986463
0.978938
0.972817
0.968129
0.964766
1.04396
1.04595
1.04605
1.04449
1.0404
1.03386
1.02517
1.01517
1.00479
0.994832
0.985877
0.978249
0.972064
0.967341
0.963964
1.04481
1.04686
1.04698
1.04539
1.04118
1.03442
1.02546
1.01518
1.00454
0.994376
0.985269
0.977538
0.971291
0.966535
0.963147
1.04568
1.0478
1.04793
1.04631
1.04196
1.03499
1.02575
1.01517
1.00427
0.993896
0.984637
0.976805
0.970498
0.965712
0.962314
1.04657
1.04875
1.04892
1.04725
1.04277
1.03556
1.02602
1.01514
1.00397
0.993393
0.983981
0.976051
0.969686
0.964871
0.961466
1.04748
1.04973
1.04992
1.04821
1.04359
1.03614
1.02629
1.0151
1.00366
0.992863
0.9833
0.975272
0.968852
0.964012
0.960601
1.04841
1.05074
1.05096
1.0492
1.04443
1.03672
1.02656
1.01504
1.00332
0.992308
0.982593
0.97447
0.967997
0.963134
0.959721
1.04937
1.05177
1.05202
1.05022
1.04528
1.0373
1.02681
1.01496
1.00295
0.991724
0.981859
0.973643
0.96712
0.962237
0.958824
1.05035
1.05283
1.05311
1.05126
1.04615
1.03789
1.02705
1.01486
1.00256
0.991111
0.981098
0.972791
0.966221
0.961322
0.957912
1.05136
1.05392
1.05423
1.05232
1.04703
1.03848
1.02728
1.01473
1.00214
0.990468
0.980307
0.971912
0.965299
0.960386
0.956982
1.05239
1.05504
1.05537
1.05342
1.04794
1.03907
1.02749
1.01458
1.00168
0.989793
0.979487
0.971008
0.964355
0.959432
0.956036
1.05345
1.05618
1.05656
1.05454
1.04886
1.03966
1.02769
1.0144
1.0012
0.989085
0.978636
0.970076
0.963387
0.958457
0.955072
1.05454
1.05736
1.05777
1.05569
1.04979
1.04024
1.02787
1.01419
1.00068
0.988343
0.977753
0.969116
0.962395
0.957462
0.954092
1.05566
1.05857
1.05902
1.05686
1.05074
1.04083
1.02802
1.01395
1.00012
0.987565
0.976837
0.968127
0.961378
0.956446
0.953095
1.0568
1.05981
1.0603
1.05807
1.05171
1.04141
1.02816
1.01368
0.999526
0.986749
0.975888
0.967109
0.960337
0.95541
0.95208
1.05798
1.06109
1.06162
1.05931
1.05269
1.04198
1.02827
1.01337
0.998891
0.985895
0.974903
0.966061
0.959271
0.954353
0.951047
1.05918
1.06241
1.06298
1.06058
1.05369
1.04255
1.02835
1.01302
0.998214
0.985
0.973883
0.964983
0.958179
0.953275
0.949998
1.06042
1.06376
1.06438
1.06189
1.05469
1.0431
1.0284
1.01263
0.997492
0.984063
0.972825
0.963873
0.957061
0.952175
0.94893
1.06169
1.06515
1.06582
1.06322
1.05572
1.04364
1.02842
1.01219
0.996724
0.983083
0.971731
0.962732
0.955918
0.951054
0.947845
1.063
1.06658
1.0673
1.06459
1.05675
1.04417
1.0284
1.01171
0.995907
0.982058
0.970596
0.961558
0.954747
0.949911
0.946742
1.06435
1.06805
1.06882
1.066
1.05779
1.04468
1.02835
1.01117
0.995038
0.980987
0.969423
0.960351
0.953551
0.948747
0.945621
1.06573
1.06957
1.0704
1.06744
1.05884
1.04516
1.02824
1.01059
0.994116
0.979866
0.968208
0.959111
0.952326
0.94756
0.944481
1.06715
1.07114
1.07202
1.06891
1.0599
1.04562
1.02809
1.00994
0.993138
0.978697
0.966952
0.957837
0.951075
0.946352
0.943324
1.06861
1.07275
1.07368
1.07042
1.06097
1.04606
1.02789
1.00924
0.992101
0.977476
0.965653
0.956529
0.949796
0.945121
0.942149
1.07011
1.07441
1.07541
1.07197
1.06203
1.04645
1.02763
1.00847
0.991003
0.976202
0.964311
0.955186
0.948489
0.943867
0.940955
1.07166
1.07612
1.07718
1.07355
1.0631
1.04682
1.02731
1.00763
0.989841
0.974874
0.962924
0.953807
0.947154
0.942591
0.939743
1.07325
1.07789
1.07901
1.07516
1.06416
1.04713
1.02692
1.00672
0.988613
0.97349
0.961493
0.952393
0.945791
0.941293
0.938514
1.0749
1.07972
1.0809
1.07681
1.06521
1.0474
1.02646
1.00573
0.987317
0.972049
0.960015
0.950942
0.944399
0.939972
0.937265
1.07659
1.0816
1.08285
1.0785
1.06626
1.04761
1.02592
1.00466
0.985949
0.970549
0.958492
0.949455
0.942979
0.938629
0.935999
1.07833
1.08355
1.08486
1.08022
1.06728
1.04777
1.0253
1.00351
0.984507
0.968989
0.95692
0.947932
0.94153
0.937263
0.934715
1.08012
1.08557
1.08694
1.08197
1.06829
1.04785
1.02458
1.00227
0.98299
0.967368
0.955302
0.946372
0.940053
0.935875
0.933413
1.08198
1.08765
1.08909
1.08376
1.06926
1.04786
1.02377
1.00094
0.981394
0.965684
0.953634
0.944775
0.938548
0.934465
0.932092
1.08389
1.08981
1.0913
1.08557
1.0702
1.04778
1.02286
0.999509
0.979717
0.963938
0.951919
0.943141
0.937014
0.933032
0.930754
1.08586
1.09204
1.09359
1.0874
1.0711
1.0476
1.02184
0.997977
0.977957
0.962126
0.950154
0.94147
0.935452
0.931577
0.929398
1.08789
1.09436
1.09595
1.08926
1.07195
1.04733
1.0207
0.99634
0.976112
0.96025
0.948341
0.939763
0.933861
0.9301
0.928025
1.09
1.09676
1.09839
1.09114
1.07274
1.04694
1.01943
0.994593
0.974181
0.958307
0.946478
0.938018
0.932243
0.928601
0.926634
1.09217
1.09925
1.1009
1.09303
1.07345
1.04642
1.01803
0.992732
0.972161
0.956298
0.944567
0.936238
0.930597
0.927081
0.925226
1.09442
1.10184
1.1035
1.09492
1.07408
1.04577
1.01649
0.990754
0.97005
0.954222
0.942606
0.93442
0.928924
0.92554
0.9238
1.09674
1.10453
1.10618
1.09681
1.07462
1.04498
1.0148
0.988655
0.967849
0.95208
0.940596
0.932568
0.927224
0.923978
0.922358
1.09915
1.10733
1.10894
1.0987
1.07505
1.04401
1.01296
0.986431
0.965555
0.94987
0.938538
0.930679
0.925497
0.922395
0.9209
1.10164
1.11024
1.11178
1.10056
1.07534
1.04288
1.01095
0.984081
0.963168
0.947594
0.936433
0.928757
0.923744
0.920792
0.919425
1.10422
1.11327
1.1147
1.10239
1.0755
1.04156
1.00878
0.9816
0.960687
0.94525
0.93428
0.9268
0.921966
0.919169
0.917934
1.1069
1.11643
1.1177
1.10417
1.07549
1.04003
1.00642
0.978987
0.958113
0.942842
0.932081
0.92481
0.920163
0.917527
0.916428
1.10968
1.11972
1.12078
1.10589
1.0753
1.03829
1.00389
0.97624
0.955446
0.940367
0.929836
0.922787
0.918336
0.915865
0.914907
1.11257
1.12316
1.12393
1.10754
1.07491
1.03632
1.00116
0.973359
0.952685
0.93783
0.927547
0.920733
0.916485
0.914186
0.913372
1.11557
1.12674
1.12715
1.10908
1.07429
1.0341
0.998235
0.970342
0.949833
0.935229
0.925215
0.918648
0.914611
0.912489
0.911821
1.1187
1.13049
1.13043
1.11049
1.07342
1.03161
0.995112
0.967191
0.94689
0.932568
0.922842
0.916535
0.912716
0.910775
0.910258
1.12196
1.1344
1.13375
1.11176
1.07227
1.02886
0.991786
0.963905
0.943859
0.929847
0.920429
0.914393
0.9108
0.909043
0.90868
1.12536
1.13849
1.13712
1.11285
1.07081
1.02581
0.988254
0.960487
0.940742
0.92707
0.917978
0.912225
0.908864
0.907297
0.90709
1.12891
1.14276
1.1405
1.11372
1.06902
1.02246
0.984516
0.956939
0.937541
0.924238
0.915491
0.910031
0.906908
0.905535
0.905487
1.13262
1.14721
1.14389
1.11435
1.06687
1.0188
0.980571
0.953265
0.93426
0.921354
0.91297
0.907814
0.904935
0.903759
0.903873
1.13651
1.15187
1.14725
1.11468
1.06433
1.01482
0.976421
0.949468
0.930901
0.918421
0.910417
0.905575
0.902945
0.901969
0.902247
1.14059
1.15672
1.15057
1.11469
1.06136
1.0105
0.972071
0.945554
0.92747
0.915443
0.907835
0.903315
0.90094
0.900166
0.90061
1.14488
1.16178
1.1538
1.11431
1.05794
1.00585
0.967524
0.941529
0.923971
0.912422
0.905226
0.901037
0.898919
0.898352
0.898963
1.1494
1.16705
1.1569
1.1135
1.05403
1.00086
0.96279
0.937399
0.920408
0.909363
0.902594
0.898742
0.896886
0.896526
0.897307
1.15417
1.17252
1.15983
1.11221
1.04962
0.995528
0.957877
0.933171
0.916786
0.906268
0.89994
0.896432
0.894841
0.89469
0.895641
1.1592
1.17818
1.16254
1.11037
1.04467
0.989861
0.952797
0.928855
0.913111
0.903144
0.897269
0.89411
0.892785
0.892844
0.893967
1.16453
1.18404
1.16497
1.10793
1.03916
0.983868
0.947563
0.924457
0.90939
0.899993
0.894582
0.891776
0.890719
0.890991
0.892285
1.17019
1.19006
1.16704
1.10482
1.03308
0.97756
0.94219
0.919989
0.905627
0.896821
0.891883
0.889433
0.888646
0.88913
0.890597
1.1762
1.19622
1.16867
1.10098
1.02641
0.970955
0.936695
0.915459
0.90183
0.893633
0.889175
0.887084
0.886567
0.887262
0.888901
1.1826
1.2025
1.16979
1.09635
1.01914
0.964076
0.931096
0.910878
0.898005
0.890432
0.886463
0.88473
0.884482
0.885389
0.887201
1.18942
1.20884
1.17028
1.09085
1.01128
0.95695
0.925413
0.906255
0.894159
0.887225
0.883748
0.882374
0.882394
0.883513
0.885496
1.19672
1.2152
1.17005
1.08444
1.00284
0.949611
0.919665
0.9016
0.8903
0.884017
0.881034
0.880017
0.880305
0.881633
0.883787
1.20452
1.22149
1.16897
1.07706
0.993839
0.942096
0.913874
0.896924
0.886434
0.880813
0.878325
0.877662
0.878214
0.879751
0.882074
1.21288
1.22764
1.16692
1.06865
0.984307
0.934447
0.908059
0.892236
0.88257
0.877618
0.875624
0.875311
0.876126
0.877869
0.88036
1.22183
1.23353
1.16376
1.05918
0.974295
0.92671
0.902241
0.887547
0.878715
0.874438
0.872935
0.872966
0.87404
0.875988
0.878644
1.23142
1.23904
1.15936
1.04862
0.96386
0.918932
0.896438
0.882866
0.874877
0.871279
0.87026
0.87063
0.87196
0.874109
0.876928
1.2417
1.244
1.15356
1.03698
0.953079
0.911163
0.890666
0.878203
0.871065
0.868146
0.867603
0.868306
0.869886
0.872234
0.875212
1.2527
1.24825
1.14621
1.02426
0.942039
0.90345
0.884941
0.873568
0.867287
0.865043
0.864968
0.865994
0.867822
0.870364
0.873497
1.26445
1.25156
1.13718
1.01051
0.930842
0.895839
0.879276
0.86897
0.863551
0.861978
0.862358
0.8637
0.865768
0.868501
0.871784
1.27695
1.25367
1.1263
0.995801
0.9196
0.888372
0.873682
0.86442
0.859867
0.858955
0.859775
0.861424
0.863729
0.866646