/*--------------------------------*- C++ -*----------------------------------*\
  =========                 |
  \\      /  F ield         | OpenFOAM: The Open Source CFD Toolbox
   \\    /   O peration     | Website:  https://openfoam.org
    \\  /    A nd           | Version:  6.0
     \\/     M anipulation  |
\*---------------------------------------------------------------------------*/
FoamFile
{
    version     2.0;
    format      ascii;
    class       volScalarField;
    location    "6";
    object      p;
}
// * * * * * * * * * * * * * * * * * * * * * * * * * * * * * * * * * * * * * //

dimensions      [0 2 -2 0 0 0 0];

internalField   nonuniform List<scalar> 
62000
(
0.0640991
0.0633649
0.0621883
0.0606217
0.0587386
0.0566297
0.0543959
0.0521412
0.0499647
0.0479539
0.0461792
0.0446898
0.0435122
0.0426498
0.042085
0.0417821
0.0416927
0.0417584
0.0419181
0.0421098
0.042277
0.0423692
0.0423464
0.0421775
0.0418431
0.0413325
0.0406455
0.0397882
0.038774
0.0376195
0.0363457
0.0349739
0.033527
0.0320265
0.0304931
0.0289457
0.0274011
0.0258738
0.0243762
0.0229184
0.0215087
0.0201531
0.0188565
0.0176218
0.0164511
0.0153455
0.014305
0.0133293
0.0124175
0.0115684
0.0107807
0.0100532
0.00938509
0.00877594
0.0082269
0.00774167
0.00733214
0.00702454
0.00703475
0.007841
0.0642807
0.0635666
0.0624282
0.0609139
0.0590916
0.0570468
0.0548758
0.0526786
0.050552
0.0485829
0.0468426
0.0453832
0.0442349
0.043406
0.0428839
0.0426378
0.0426227
0.0427832
0.0430588
0.0433872
0.0437092
0.0439711
0.0441272
0.0441413
0.0439872
0.0436489
0.0431194
0.0424003
0.0414997
0.0404315
0.0392135
0.037866
0.0364108
0.0348701
0.0332653
0.0316171
0.0299442
0.0282637
0.0265904
0.0249374
0.0233154
0.0217333
0.0201985
0.0187163
0.017291
0.0159258
0.0146224
0.0133821
0.0122054
0.0110924
0.0100428
0.00905641
0.00813338
0.00727451
0.0064825
0.00576364
0.00513274
0.00462158
0.00431851
0.00413702
0.0646237
0.0638996
0.0627426
0.0611969
0.0593255
0.0572086
0.0549378
0.0526096
0.0503184
0.0481501
0.0461777
0.0444566
0.0430225
0.0418908
0.041057
0.0404988
0.04018
0.0400531
0.0400645
0.0401573
0.0402762
0.0403695
0.0403921
0.0403066
0.0400848
0.0397073
0.0391635
0.0384505
0.0375727
0.0365397
0.0353658
0.0340678
0.0326651
0.0311775
0.0296251
0.0280274
0.0264026
0.0247677
0.0231379
0.0215266
0.0199454
0.0184041
0.0169114
0.0154739
0.0140972
0.012786
0.0115437
0.0103735
0.00927763
0.00825846
0.00731829
0.0064598
0.00568657
0.0050037
0.00441864
0.00394295
0.00359454
0.0034
0.00338524
0.00348169
0.0651246
0.0643853
0.0632025
0.0616171
0.0596875
0.0574894
0.0551101
0.0526419
0.0501763
0.0477982
0.0455809
0.0435825
0.0418435
0.0403858
0.0392127
0.0383107
0.0376524
0.0371996
0.0369062
0.0367225
0.0365983
0.036486
0.0363427
0.0361315
0.0358236
0.0353975
0.0348398
0.0341444
0.0333117
0.0323474
0.0312617
0.0300682
0.0287827
0.0274221
0.0260041
0.0245461
0.023065
0.0215764
0.0200947
0.0186329
0.0172025
0.0158133
0.014474
0.0131919
0.011973
0.0108224
0.00974427
0.0087421
0.00781903
0.00697769
0.00622076
0.00555104
0.00497175
0.00448706
0.00410215
0.00382409
0.00366086
0.00362389
0.00370528
0.00388639
0.06579
0.0650461
0.0638598
0.0622686
0.0603271
0.0581063
0.0556884
0.0531608
0.0506105
0.0481194
0.0457593
0.0435885
0.0416497
0.0399691
0.0385557
0.0374024
0.0364893
0.0357861
0.0352536
0.0348487
0.034527
0.0342446
0.0339622
0.0336441
0.0332621
0.0327935
0.0322238
0.0315439
0.0307517
0.0298495
0.0288446
0.0277469
0.0265695
0.0253263
0.0240328
0.0227039
0.0213549
0.0199999
0.0186521
0.0173235
0.016025
0.014766
0.0135547
0.0123983
0.0113024
0.0102722
0.00931165
0.00842398
0.00761203
0.00687795
0.00622378
0.00565134
0.00516254
0.00475969
0.00444533
0.00422264
0.00409398
0.00406428
0.00412818
0.00427021
0.0666263
0.0658912
0.0647273
0.063169
0.0612664
0.0590854
0.0567025
0.0541988
0.0516556
0.0491498
0.0467494
0.0445111
0.0424773
0.0406761
0.0391202
0.0378069
0.0367221
0.0358418
0.0351327
0.0345581
0.0340784
0.0336545
0.0332504
0.0328326
0.0323741
0.0318526
0.0312526
0.0305641
0.0297826
0.0289085
0.0279463
0.0269037
0.0257909
0.0246198
0.0234036
0.0221552
0.0208882
0.0196153
0.0183486
0.0170991
0.0158769
0.0146908
0.0135486
0.0124572
0.0114219
0.0104477
0.00953837
0.008697
0.00792623
0.007228
0.00660406
0.00605588
0.00558493
0.00519289
0.00488143
0.00465264
0.0045072
0.00445056
0.00447493
0.00458619
0.0676322
0.0669212
0.0658001
0.0643028
0.0624755
0.0603787
0.0580825
0.055661
0.0531887
0.0507364
0.0483672
0.0461343
0.0440786
0.0422283
0.040598
0.039188
0.0379885
0.0369808
0.0361368
0.035425
0.034811
0.0342599
0.0337395
0.0332188
0.0326728
0.0320801
0.0314254
0.030698
0.0298925
0.0290078
0.0280466
0.0270148
0.0259208
0.0247743
0.0235869
0.02237
0.0211358
0.0198955
0.0186605
0.0174408
0.0162458
0.0150841
0.013963
0.012889
0.0118676
0.0109036
0.0100008
0.00916245
0.00839122
0.00768923
0.00705836
0.0065002
0.00601635
0.00560847
0.00527811
0.00502707
0.00485569
0.00476902
0.00476453
0.00483558
0.0688124
0.068134
0.0670678
0.0656477
0.0639161
0.0619283
0.0597475
0.0574408
0.0550754
0.0527154
0.0504185
0.0482335
0.0461987
0.0443418
0.042678
0.0412095
0.03993
0.0388248
0.0378706
0.0370405
0.0363048
0.0356328
0.0349959
0.0343662
0.0337208
0.0330398
0.0323085
0.0315164
0.0306578
0.0297306
0.0287365
0.0276799
0.0265679
0.0254089
0.0242129
0.0229902
0.0217517
0.0205078
0.019269
0.0180446
0.0168437
0.0156742
0.0145434
0.0134578
0.0124228
0.0114432
0.010523
0.00966572
0.00887422
0.0081509
0.00749788
0.00691701
0.00641003
0.00597867
0.00562439
0.0053488
0.00515174
0.0050388
0.00500377
0.00505223
0.070169
0.069525
0.0685189
0.0671822
0.065554
0.0636843
0.0616299
0.0594506
0.0572066
0.0549553
0.0527488
0.0506313
0.0486381
0.0467956
0.0451191
0.0436122
0.0422712
0.0410848
0.0400336
0.0390952
0.0382438
0.0374531
0.0366977
0.0359531
0.0351985
0.0344158
0.0335915
0.0327157
0.0317826
0.0307898
0.0297383
0.0286317
0.0274761
0.0262787
0.0250486
0.023795
0.022528
0.0212572
0.0199922
0.0187421
0.0175154
0.0163198
0.0151624
0.0140496
0.012987
0.0119793
0.0110309
0.0101454
0.00932585
0.00857492
0.00789493
0.00728785
0.00675552
0.00629958
0.00592133
0.0056221
0.00540137
0.00526389
0.00520708
0.00522363
0.0716987
0.0710878
0.070142
0.068888
0.0673619
0.0656089
0.0636795
0.0616269
0.0595045
0.0573634
0.0552502
0.0532046
0.0512591
0.0494384
0.0477574
0.0462208
0.0448268
0.0435672
0.042426
0.0413845
0.040421
0.0395126
0.0386377
0.0377745
0.0369046
0.0360121
0.0350846
0.0341129
0.0330918
0.0320187
0.0308944
0.0297218
0.0285063
0.0272545
0.0259745
0.0246747
0.0233645
0.0220529
0.020749
0.0194612
0.0181979
0.0169665
0.0157739
0.0146265
0.0135298
0.0124889
0.0115079
0.0105908
0.00974078
0.00896059
0.00825268
0.00761905
0.00706147
0.00658149
0.00618011
0.00585844
0.00561538
0.00545588
0.00537394
0.00537277
0.0733945
0.072815
0.0719267
0.0707502
0.0693195
0.0676752
0.0658621
0.0639273
0.061918
0.0598796
0.0578536
0.0558756
0.053975
0.0521751
0.0504903
0.0489258
0.0474818
0.0461523
0.0449244
0.0437828
0.0427093
0.0416844
0.0406897
0.0397063
0.0387182
0.0377112
0.0366745
0.0356
0.0344828
0.0333206
0.032114
0.0308658
0.0295806
0.0282647
0.0269252
0.0255703
0.0242085
0.0228482
0.0214981
0.0201664
0.0188608
0.0175887
0.0163568
0.0151715
0.0140382
0.012962
0.0119472
0.0109977
0.0101168
0.00930734
0.00857175
0.00791199
0.00732974
0.00682633
0.00640252
0.00605912
0.0057947
0.00561339
0.00551255
0.00548359
0.07525
0.0746996
0.0738641
0.0727578
0.0714127
0.0698656
0.0681562
0.0663262
0.0644172
0.0624695
0.0605198
0.0586003
0.0567375
0.0549531
0.0532613
0.0516675
0.0501733
0.0487749
0.0474621
0.0462226
0.0450411
0.0439015
0.0427882
0.0416849
0.040578
0.0394552
0.038307
0.0371264
0.035909
0.0346532
0.0333593
0.0320301
0.0306698
0.0292841
0.02788
0.0264647
0.0250464
0.0236331
0.0222329
0.0208536
0.0195028
0.0181875
0.0169143
0.0156895
0.0145184
0.0134061
0.012357
0.0113748
0.010463
0.0096244
0.00886134
0.00817569
0.00756898
0.00704235
0.00659631
0.00623144
0.00594588
0.00574388
0.00562003
0.00557515
0.0772594
0.0767346
0.0759466
0.0749019
0.0736317
0.0721691
0.0705493
0.0688094
0.0669861
0.0651151
0.0632291
0.0613569
0.0595227
0.0577468
0.0560428
0.0544164
0.0528705
0.0514031
0.0500062
0.0486703
0.0473827
0.0461303
0.0449
0.0436782
0.0424532
0.0412145
0.0399541
0.038666
0.0373467
0.0359947
0.0346107
0.0331972
0.0317585
0.0302997
0.0288273
0.0273484
0.0258705
0.0244013
0.0229484
0.0215193
0.0201213
0.0187612
0.0174454
0.0161801
0.0149705
0.0138216
0.0127377
0.0117227
0.0107799
0.00991203
0.00912142
0.00840979
0.00777853
0.00722857
0.00676018
0.00637375
0.00606711
0.0058439
0.0057019
0.00563092
0.0794162
0.0789142
0.0781681
0.0771767
0.0759704
0.0745795
0.0730354
0.0713708
0.0696186
0.0678103
0.0659751
0.0641388
0.0623235
0.0605483
0.0588263
0.0571636
0.0555639
0.0540267
0.0525463
0.0511153
0.0497235
0.0483605
0.0470154
0.045677
0.0443354
0.042982
0.04161
0.0402145
0.0387926
0.0373434
0.0358678
0.0343684
0.032849
0.0313149
0.0297721
0.0282273
0.0266876
0.0251603
0.0236527
0.0221721
0.0207253
0.0193189
0.0179593
0.0166524
0.0154034
0.0142171
0.0130978
0.0120494
0.0110751
0.0101774
0.00935881
0.00862074
0.00796445
0.00739071
0.00689955
0.0064912
0.00616317
0.00591922
0.00575481
0.00566832
0.081714
0.0812328
0.0805233
0.0795773
0.0784246
0.0770933
0.0756116
0.0740087
0.0723136
0.0705545
0.0687577
0.0669463
0.0651406
0.0633586
0.0616129
0.0599097
0.0582538
0.0566458
0.055082
0.0535569
0.0520626
0.0505907
0.0491328
0.0476795
0.0462229
0.0447558
0.0432728
0.04177
0.0402453
0.0386981
0.0371298
0.0355428
0.0339411
0.0323297
0.0307144
0.0291014
0.0274978
0.0259104
0.0243462
0.0228121
0.0213148
0.0198607
0.0184559
0.0171061
0.0158165
0.0145918
0.0134362
0.0123535
0.0113468
0.0104188
0.00957139
0.0088062
0.00812425
0.00752611
0.00701164
0.0065809
0.00623117
0.00596571
0.00578303
0.00567105
0.0841485
0.0836865
0.0830088
0.0821007
0.0809925
0.0797099
0.0782785
0.0767246
0.075074
0.0733521
0.0715823
0.0697856
0.0679807
0.0661847
0.0644098
0.0626622
0.0609476
0.0592678
0.0576204
0.056002
0.0544063
0.0528273
0.0512583
0.0496919
0.0481218
0.0465422
0.044949
0.0433392
0.0417115
0.0400658
0.0384038
0.036728
0.0350425
0.033352
0.0316622
0.0299791
0.0283096
0.0266599
0.0250371
0.0234476
0.0218979
0.0203942
0.0189425
0.0175483
0.0162167
0.0149523
0.0137592
0.012641
0.011601
0.0106414
0.00976434
0.00897113
0.00826267
0.00763936
0.00710088
0.00664717
0.00627521
0.00598844
0.0057833
0.00565562
0.0867157
0.0862715
0.0856211
0.0847445
0.0836723
0.0824287
0.0810369
0.0795207
0.0779033
0.0762075
0.0744545
0.0726633
0.0708512
0.0690346
0.0672252
0.0654294
0.0636535
0.0619004
0.060169
0.0584575
0.0567613
0.0550762
0.0533972
0.0517188
0.050036
0.0483446
0.0466415
0.0449246
0.0431933
0.0414482
0.0396911
0.037925
0.0361537
0.0343821
0.0326156
0.0308601
0.0291222
0.027408
0.0257243
0.0240771
0.0224729
0.0209177
0.0194172
0.0179769
0.0166016
0.015296
0.0140639
0.012909
0.0118344
0.0108422
0.0099344
0.00911219
0.00837635
0.00772708
0.00716389
0.00668659
0.00629197
0.00598303
0.00575913
0.00560605
0.0894132
0.0889856
0.0883585
0.0875078
0.0864643
0.0852511
0.0838895
0.0824011
0.0808069
0.0791275
0.0773821
0.0755881
0.0737615
0.0719181
0.0700694
0.0682217
0.0663819
0.0645539
0.0627378
0.060933
0.0591366
0.057346
0.055558
0.0537682
0.0519735
0.0501706
0.0483575
0.0465332
0.0446978
0.0428522
0.0409987
0.0391405
0.0372816
0.0354267
0.0335812
0.0317511
0.0299424
0.0281613
0.0264141
0.024707
0.0230461
0.0214371
0.0198857
0.0183973
0.0169766
0.0156281
0.0143555
0.0131624
0.0120517
0.0110256
0.010086
0.0092337
0.00846948
0.00779337
0.0072047
0.00670316
0.00628529
0.00595423
0.00570749
0.00553822
0.0922383
0.0918265
0.0912193
0.0903893
0.0893681
0.0881778
0.0868381
0.0853687
0.0837889
0.0821171
0.0803711
0.0785668
0.076719
0.0748432
0.0729505
0.0710473
0.0691409
0.0672361
0.065334
0.0634353
0.0615385
0.0596425
0.0577453
0.0558444
0.0539375
0.0520228
0.0500992
0.0481666
0.0462257
0.0442781
0.0423265
0.0403741
0.0384252
0.0364846
0.0345576
0.03265
0.0307679
0.0289171
0.027104
0.0253343
0.0236142
0.0219492
0.0203448
0.0188063
0.0173381
0.0159448
0.0146301
0.0133973
0.0122492
0.011188
0.0102152
0.00933184
0.0085383
0.0078345
0.00721961
0.0066932
0.00625162
0.00589759
0.00563139
0.00543647
0.0951902
0.0947935
0.094203
0.0933894
0.092385
0.091211
0.089886
0.088428
0.0868546
0.0851829
0.083429
0.0816075
0.0797325
0.0778189
0.0758778
0.0739153
0.0719395
0.0699558
0.0679663
0.0659727
0.0639749
0.061973
0.0599665
0.0579539
0.0559346
0.0539074
0.0518725
0.0498304
0.0477827
0.0457314
0.0436796
0.041631
0.0395897
0.0375609
0.0355498
0.033562
0.0316037
0.0296807
0.0277989
0.0259641
0.0241823
0.0224588
0.0207991
0.0192083
0.0176907
0.0162509
0.0148922
0.013618
0.0124311
0.0113333
0.0103263
0.00941066
0.00858678
0.00785441
0.00721252
0.00666059
0.00619469
0.00581768
0.0055281
0.00531627
0.0982676
0.0978853
0.0973088
0.0965078
0.0955152
0.0943519
0.0930351
0.0915817
0.0900078
0.0883292
0.0865607
0.0847158
0.0828078
0.0808515
0.0788576
0.0768322
0.074784
0.0727191
0.0706402
0.0685503
0.0664502
0.0643414
0.0622246
0.0600995
0.0579665
0.0558256
0.0536779
0.0515247
0.0493682
0.0472111
0.0450568
0.0429092
0.040773
0.038653
0.0365549
0.0344841
0.0324467
0.0304484
0.0284951
0.0265925
0.0247464
0.022962
0.0212445
0.0195992
0.0180302
0.0165419
0.0151375
0.0138204
0.0125932
0.0114575
0.010415
0.00946605
0.0086109
0.00784913
0.00717955
0.00660149
0.00611083
0.00571004
0.00540021
0.00516226
0.101471
0.101102
0.100537
0.0997457
0.0987607
0.097603
0.0962888
0.094834
0.0932534
0.0915617
0.0897725
0.0878985
0.0859523
0.0839484
0.0818975
0.0798057
0.077682
0.0755332
0.0733628
0.0711748
0.0689709
0.0667537
0.0645253
0.0622864
0.0600383
0.0577823
0.0555201
0.053254
0.0509867
0.0487215
0.0464622
0.0442132
0.0419791
0.0397653
0.0375772
0.0354204
0.033301
0.0312246
0.029197
0.0272238
0.0253107
0.0234628
0.0216854
0.0199833
0.0183608
0.016822
0.0153702
0.0140085
0.0127394
0.0115646
0.0104853
0.00950197
0.00861457
0.00782255
0.00712454
0.00651974
0.00600377
0.00557915
0.00524534
0.00498973
0.1048
0.104444
0.103889
0.103103
0.102122
0.100965
0.0996489
0.0981872
0.0965944
0.0948838
0.0930685
0.09116
0.0891705
0.0871144
0.0850023
0.0828403
0.0806378
0.0784023
0.0761379
0.0738495
0.0715397
0.0692123
0.0668704
0.0645158
0.0621508
0.0597775
0.0573987
0.0550172
0.0526365
0.0502605
0.0478935
0.04554
0.0432051
0.0408943
0.0386131
0.0363672
0.0341627
0.032005
0.0299003
0.0278537
0.0258709
0.023957
0.0221171
0.020356
0.0186779
0.0170868
0.0155857
0.0141778
0.0128654
0.0116501
0.0105329
0.00951411
0.00859357
0.00777054
0.00704345
0.00641138
0.00586971
0.00542056
0.00506577
0.00478354
0.108255
0.107912
0.107365
0.106583
0.105602
0.104443
0.103119
0.101646
0.100035
0.0983009
0.0964541
0.0945062
0.0924686
0.0903558
0.0881785
0.0859425
0.0836578
0.0813325
0.0789713
0.0765801
0.0741621
0.0717223
0.0692648
0.0667923
0.0643082
0.0618154
0.0593175
0.0568182
0.0543216
0.0518321
0.0493543
0.0468935
0.0444548
0.0420438
0.0396664
0.0373283
0.0350356
0.0327938
0.0306089
0.028486
0.0264309
0.0244484
0.0225437
0.0207214
0.0189855
0.0173401
0.015788
0.0143323
0.0129752
0.0117179
0.0105617
0.00950639
0.00855179
0.00769696
0.00694014
0.00628026
0.00571243
0.00523875
0.00485947
0.00455892
0.111837
0.111507
0.110965
0.110184
0.109201
0.108035
0.106701
0.105211
0.103579
0.101815
0.0999326
0.0979403
0.09585
0.0936762
0.0914294
0.0891156
0.0867452
0.0843268
0.0818658
0.0793687
0.0768398
0.0742849
0.0717091
0.0691161
0.0665102
0.0638952
0.0612755
0.0586554
0.0560398
0.0534336
0.050842
0.0482704
0.0457245
0.0432101
0.0407332
0.0382995
0.0359154
0.0335863
0.0313182
0.0291162
0.026986
0.0249323
0.0229603
0.0210745
0.0192789
0.0175772
0.0159724
0.0144673
0.0130639
0.0117635
0.0105671
0.00947432
0.00848484
0.00759753
0.00681043
0.00612231
0.00552801
0.00502924
0.00462843
0.00430089
0.115547
0.115229
0.114692
0.113911
0.112923
0.111747
0.110398
0.108888
0.107229
0.105433
0.103509
0.101468
0.0993205
0.0970813
0.094761
0.0923655
0.0899056
0.0873907
0.0848265
0.0822206
0.0795777
0.0769048
0.074208
0.0714916
0.0687611
0.0660209
0.0632763
0.0605324
0.0577947
0.0550686
0.0523599
0.0496744
0.047018
0.0443969
0.0418171
0.0392846
0.036806
0.0343865
0.0320321
0.0297482
0.0275401
0.0254127
0.0233709
0.0214195
0.0195619
0.0178021
0.0161428
0.0145866
0.0131356
0.0117909
0.010553
0.00942184
0.00839663
0.00747614
0.0066582
0.00594141
0.00532031
0.00479655
0.00437095
0.00402471
0.119387
0.119081
0.118547
0.117763
0.116767
0.115579
0.114212
0.112678
0.110989
0.109155
0.107186
0.105092
0.102883
0.100574
0.0981759
0.0956946
0.0931414
0.0905262
0.0878554
0.085137
0.0823769
0.0795827
0.0767614
0.0739184
0.0710599
0.0681912
0.0653184
0.0624472
0.0595839
0.0567344
0.053905
0.0511019
0.0483314
0.0455999
0.0429138
0.0402791
0.0377025
0.0351894
0.0327458
0.0303769
0.0280882
0.0258844
0.0237705
0.021751
0.0198295
0.0180097
0.0162941
0.0146854
0.0131854
0.011795
0.0105148
0.00934426
0.0082826
0.00732835
0.00647913
0.00573335
0.00508529
0.00453613
0.00408877
0.00371544
0.123358
0.123064
0.122533
0.121745
0.120739
0.119535
0.118147
0.116586
0.114862
0.112986
0.110968
0.108817
0.106542
0.104159
0.101679
0.0991083
0.0964579
0.0937387
0.0909574
0.088123
0.085242
0.0823229
0.0793738
0.0764007
0.0734108
0.0704101
0.0674055
0.0644036
0.061411
0.0584345
0.0554808
0.0525566
0.0496684
0.046823
0.044027
0.0412868
0.0386089
0.035999
0.0334631
0.0310063
0.0286343
0.0263516
0.0241631
0.0220734
0.0200858
0.018204
0.0164305
0.0147677
0.0132173
0.01178
0.0104564
0.00924558
0.0081467
0.00715809
0.00627713
0.00550207
0.00482687
0.00425259
0.00378046
0.00338845
0.127462
0.127179
0.12665
0.125856
0.124838
0.123617
0.122204
0.120612
0.118851
0.11693
0.114858
0.112645
0.1103
0.10784
0.105274
0.102609
0.0998569
0.0970295
0.0941338
0.0911794
0.0881736
0.0851258
0.0820449
0.0789378
0.0758126
0.072676
0.0695358
0.0663991
0.0632734
0.060166
0.057084
0.0540346
0.0510249
0.0480619
0.0451524
0.0423029
0.0395203
0.0368102
0.0341788
0.0316312
0.029173
0.0268087
0.0245432
0.022381
0.0203253
0.0183798
0.0165466
0.0148282
0.0132261
0.0117408
0.0103728
0.0091209
0.00798417
0.00696072
0.00604771
0.00524321
0.00454086
0.00394124
0.00344752
0.00302867
0.131701
0.13143
0.130902
0.1301
0.129069
0.127828
0.126388
0.124762
0.12296
0.12099
0.118861
0.116582
0.114164
0.11162
0.108964
0.106201
0.103344
0.100404
0.0973895
0.0943111
0.0911764
0.0879958
0.0847791
0.081534
0.0782694
0.0749929
0.071713
0.0684376
0.0651747
0.0619323
0.0587182
0.0555399
0.0524048
0.0493203
0.0462936
0.0433313
0.0404406
0.0376271
0.034897
0.0322556
0.0297084
0.02726
0.024915
0.0226781
0.0205523
0.0185411
0.0166466
0.0148711
0.0132159
0.0116815
0.010268
0.0089743
0.00779904
0.00674024
0.00579485
0.00496073
0.00423122
0.00360673
0.00308868
0.0026517
0.136076
0.135818
0.135289
0.134479
0.133433
0.132169
0.1307
0.129037
0.12719
0.125167
0.122978
0.12063
0.118133
0.115503
0.112753
0.109887
0.106919
0.103863
0.100726
0.0975186
0.0942506
0.0909327
0.0875758
0.0841883
0.08078
0.0773591
0.0739351
0.0705165
0.0671121
0.0637305
0.0603798
0.0570683
0.0538037
0.0505937
0.0474459
0.0443671
0.0413647
0.0384443
0.0356124
0.0328741
0.030235
0.0276997
0.0252729
0.0229591
0.0207611
0.0186824
0.016725
0.0148909
0.0131815
0.0115968
0.010137
0.00880067
0.00758634
0.00649182
0.00551384
0.00465008
0.00389357
0.00324419
0.00270522
0.00224219
0.14059
0.140344
0.139815
0.138996
0.137932
0.136644
0.135144
0.133441
0.131547
0.129469
0.127215
0.124794
0.122214
0.119494
0.116645
0.113672
0.11059
0.107412
0.104147
0.100807
0.0974009
0.0939413
0.0904396
0.0869051
0.0833484
0.0797787
0.0762061
0.0726398
0.0690895
0.0655642
0.0620727
0.0586238
0.0552255
0.0518861
0.0486133
0.0454143
0.0422965
0.0392658
0.0363289
0.0334907
0.030757
0.0281322
0.0256211
0.0232281
0.0209559
0.018808
0.0167859
0.0148919
0.0131269
0.0114909
0.00998387
0.00860417
0.00735017
0.00621952
0.0052087
0.00431524
0.00353184
0.00285824
0.0022959
0.00181603
0.145244
0.14501
0.144481
0.143651
0.142569
0.141255
0.13972
0.137976
0.136032
0.133894
0.131573
0.129074
0.126409
0.123594
0.120641
0.117556
0.114355
0.111052
0.107654
0.104176
0.100627
0.097021
0.0933696
0.0896832
0.0859732
0.0822497
0.0785236
0.0748048
0.0711037
0.06743
0.0637931
0.0602022
0.0566659
0.0531928
0.0497909
0.0464677
0.0432308
0.0400863
0.0370409
0.0340997
0.0312685
0.0285516
0.0259538
0.0234793
0.021131
0.0189119
0.0168237
0.0148683
0.0130466
0.0113583
0.00980321
0.00837949
0.00708536
0.00591827
0.0048745
0.00395139
0.00314139
0.00244371
0.00186174
0.00135738
0.15004
0.14982
0.149289
0.148448
0.147347
0.146005
0.144435
0.142647
0.140649
0.13845
0.136057
0.133478
0.130722
0.127808
0.124747
0.121547
0.118222
0.114787
0.111253
0.107632
0.103935
0.100177
0.0963705
0.092527
0.0886588
0.0847764
0.0808917
0.0770156
0.0731589
0.069332
0.065545
0.0618076
0.0581289
0.0545178
0.0509827
0.0475313
0.0441717
0.0409099
0.0377528
0.0347055
0.0317738
0.0289622
0.0262752
0.0237171
0.0212906
0.0189987
0.0168428
0.0148246
0.0129449
0.0112033
0.0095993
0.0081309
0.00679612
0.00559224
0.00451531
0.00356254
0.00272608
0.0020051
0.00140127
0.000882443
0.154979
0.154772
0.154239
0.153387
0.152265
0.150895
0.149288
0.147453
0.1454
0.143137
0.140669
0.138006
0.135156
0.132138
0.128965
0.125644
0.12219
0.118619
0.114942
0.111173
0.107323
0.103408
0.0994411
0.0954352
0.0914032
0.0873566
0.083308
0.0792691
0.0752516
0.0712665
0.0673244
0.0634356
0.0596097
0.0558561
0.0521835
0.0485999
0.0451136
0.0417308
0.0384585
0.0353019
0.032267
0.0293578
0.0265792
0.0239354
0.0214287
0.0190622
0.016837
0.0147548
0.0128161
0.0110202
0.00936655
0.00785289
0.00647706
0.00523613
0.00412596
0.00314356
0.00228088
0.00153679
0.000915198
0.000374489
0.160064
0.15987
0.159336
0.158472
0.15733
0.15593
0.154284
0.152402
0.150291
0.14796
0.145415
0.142663
0.139715
0.13659
0.1333
0.129853
0.126266
0.122554
0.118729
0.114806
0.110797
0.106719
0.102586
0.0984124
0.0942111
0.0899947
0.0857768
0.0815698
0.0773862
0.0732376
0.0691354
0.0650904
0.0611126
0.057212
0.0533975
0.0496777
0.0460608
0.0425534
0.0391626
0.0358935
0.0327523
0.029743
0.0268704
0.0241386
0.0215498
0.019107
0.016811
0.0146634
0.0126645
0.0108134
0.0091094
0.00754989
0.00613253
0.00485423
0.00371058
0.00269846
0.0018096
0.00104303
0.000401376
-0.000150886
0.165295
0.165113
0.164579
0.163703
0.16254
0.16111
0.159424
0.157493
0.155322
0.152921
0.150295
0.147452
0.144401
0.141164
0.137753
0.134175
0.130449
0.12659
0.122612
0.118529
0.114356
0.110109
0.105805
0.101457
0.0970804
0.0926883
0.0882952
0.0839143
0.0795589
0.0752414
0.0709737
0.0667673
0.0626327
0.0585803
0.0546194
0.0507589
0.0470075
0.0433716
0.0398587
0.036474
0.0332235
0.0301113
0.0271422
0.0243203
0.0216475
0.0191267
0.0167585
0.0145442
0.0124842
0.0105771
0.00882205
0.00721618
0.00575697
0.00444106
0.00326381
0.00222187
0.00130683
0.000517685
-0.000140593
-0.000711996
0.170674
0.170507
0.169971
0.169084
0.1679
0.16644
0.164714
0.162731
0.1605
0.158025
0.155316
0.152378
0.149221
0.145867
0.14233
0.138616
0.134745
0.130735
0.126597
0.12235
0.118006
0.113584
0.109102
0.104574
0.100016
0.095442
0.0908679
0.0863072
0.0817743
0.0772823
0.0728437
0.0684707
0.0641742
0.0599652
0.0558535
0.051848
0.047958
0.0441899
0.0405514
0.0370478
0.0336851
0.0304674
0.0273995
0.0244852
0.0217265
0.019126
0.0166841
0.0144021
0.0122798
0.0103159
0.00850912
0.0068564
0.00535491
0.0040011
0.00278996
0.00171795
0.000776444
-3.53875e-05
-0.000713577
-0.00129376
0.176204
0.17605
0.175514
0.174616
0.173412
0.171921
0.170154
0.168119
0.165824
0.163274
0.160478
0.157441
0.154174
0.150699
0.147031
0.143177
0.139156
0.134987
0.130684
0.126265
0.121745
0.117142
0.112476
0.107761
0.103015
0.0982531
0.0934915
0.0887449
0.0840284
0.0793559
0.0747408
0.0701956
0.065732
0.0613614
0.0570939
0.0529391
0.0489062
0.045002
0.0412344
0.0376085
0.0341306
0.0308047
0.0276354
0.0246267
0.0217801
0.0190984
0.0165815
0.0142305
0.0120452
0.0100237
0.00816465
0.00646467
0.00492067
0.00352875
0.00228355
0.00118123
0.000212856
-0.000622645
-0.00131811
-0.00192108
0.181887
0.181748
0.181213
0.180305
0.17908
0.177559
0.17575
0.173662
0.171301
0.168674
0.165788
0.162649
0.159268
0.155667
0.151864
0.147863
0.143686
0.139354
0.13488
0.130283
0.125579
0.120788
0.115931
0.111023
0.106083
0.101126
0.0961709
0.0912321
0.0863259
0.081467
0.0766694
0.0719466
0.0673106
0.0627733
0.0583454
0.0540366
0.0498567
0.0458125
0.0419121
0.0381607
0.0345646
0.0311278
0.0278548
0.0247495
0.0218133
0.0190487
0.0164555
0.0140344
0.0117851
0.0097053
0.00779348
0.00604587
0.00445904
0.00302876
0.00174923
0.00061621
-0.00037967
-0.00123958
-0.00195888
-0.00257713
0.187726
0.187602
0.187068
0.18615
0.184906
0.183354
0.181503
0.17936
0.176932
0.174225
0.171247
0.168002
0.164502
0.160772
0.156827
0.152674
0.148336
0.143834
0.139182
0.134401
0.129507
0.124522
0.119466
0.114358
0.109217
0.104059
0.0989025
0.0937648
0.0886624
0.0836108
0.0786247
0.0737183
0.0689043
0.064195
0.0596017
0.0551343
0.050803
0.0466148
0.0425779
0.0386976
0.0349803
0.0314298
0.0280507
0.0248468
0.0218192
0.0189702
0.0162993
0.0138072
0.011493
0.00935447
0.00738949
0.005594
0.00396423
0.0024955
0.00118152
1.75509e-05
-0.00100638
-0.00189227
-0.00263397
-0.00328312
0.193724
0.193617
0.193085
0.192159
0.190896
0.189313
0.187419
0.185221
0.182724
0.179935
0.176861
0.173506
0.169884
0.166019
0.161928
0.157618
0.153112
0.148434
0.143598
0.138626
0.133534
0.128347
0.123087
0.117772
0.112422
0.107055
0.101691
0.096348
0.0910428
0.085792
0.0806114
0.0755156
0.0705179
0.0656314
0.0608676
0.0562369
0.0517499
0.0474136
0.0432366
0.0392241
0.0353825
0.0317157
0.0282281
0.0249235
0.0218027
0.0188678
0.0161182
0.013554
0.0111743
0.00897631
0.0069578
0.00511422
0.00344134
0.00193407
0.000585506
-0.000609702
-0.0016622
-0.00257476
-0.00334455
-0.00401486
0.199884
0.199793
0.199265
0.198331
0.197049
0.195437
0.193499
0.191244
0.188677
0.185804
0.18263
0.179163
0.175414
0.171409
0.167166
0.162693
0.158014
0.153153
0.148126
0.142955
0.13766
0.132264
0.126791
0.121261
0.115695
0.110112
0.104534
0.0989773
0.0934623
0.0880058
0.082624
0.0773326
0.0721454
0.067076
0.0621365
0.0573377
0.0526904
0.0482021
0.0438811
0.0397329
0.0357641
0.0319782
0.0283798
0.0249725
0.0217567
0.0187346
0.015905
0.0132679
0.010822
0.00856434
0.00649214
0.00460042
0.00288453
0.00133882
-4.42572e-05
-0.00127071
-0.002352
-0.00329211
-0.00408645
-0.0047914
0.20621
0.206139
0.205615
0.204675
0.203375
0.201732
0.199751
0.197438
0.194799
0.191838
0.188563
0.184979
0.181098
0.176949
0.17255
0.167907
0.163048
0.157998
0.152772
0.147396
0.141889
0.136276
0.130583
0.124831
0.119041
0.113235
0.107434
0.101658
0.0959261
0.0902569
0.0846676
0.0791743
0.0737917
0.0685339
0.0634135
0.0584417
0.0536297
0.048985
0.0445163
0.0402292
0.03613
0.0322225
0.028511
0.0249989
0.0216866
0.0185758
0.0156651
0.0129543
0.0104418
0.00812399
0.00599792
0.00405807
0.00229925
0.000715235
-0.000702241
-0.0019599
-0.00307005
-0.00403747
-0.00486087
-0.00558818
0.212703
0.212651
0.212134
0.211188
0.209871
0.208198
0.206173
0.203801
0.201088
0.198038
0.194658
0.190954
0.186938
0.182639
0.178077
0.17326
0.168214
0.162967
0.157536
0.151947
0.14622
0.140383
0.134462
0.128478
0.122458
0.11642
0.110389
0.104385
0.098429
0.09254
0.0867362
0.0810346
0.0754504
0.0699984
0.0646916
0.0595418
0.0545604
0.0497551
0.0451349
0.0407053
0.0364728
0.032441
0.0286139
0.0249952
0.0215847
0.018384
0.0153913
0.0126062
0.0100266
0.00764857
0.00546872
0.00348094
0.00167953
5.75856e-05
-0.0013939
-0.0026824
-0.00382108
-0.00481586
-0.00566419
-0.00642482
0.219369
0.219339
0.21883
0.217879
0.216546
0.214843
0.212774
0.210343
0.207554
0.204413
0.200925
0.197096
0.19294
0.188486
0.183756
0.178757
0.173518
0.168068
0.162424
0.156614
0.150659
0.144589
0.138432
0.13221
0.125949
0.119672
0.113403
0.107164
0.100976
0.0948602
0.0888351
0.0829186
0.0771265
0.0714745
0.065976
0.060643
0.0554876
0.0505176
0.0457421
0.0411666
0.0367977
0.0326389
0.0286942
0.0249669
0.0214567
0.0181649
0.0150893
0.0122292
0.00958216
0.00714382
0.00491027
0.00287485
0.00103117
-0.000628267
-0.00211332
-0.00343223
-0.00459899
-0.0056203
-0.00649684
-0.00727704
0.226207
0.226201
0.225701
0.224747
0.223399
0.221667
0.219553
0.217062
0.214196
0.21096
0.207361
0.203405
0.199104
0.19449
0.189586
0.184399
0.17896
0.173298
0.167433
0.161394
0.155204
0.148893
0.14249
0.136021
0.129512
0.122987
0.116472
0.109989
0.103562
0.0972116
0.0909579
0.0848196
0.0788133
0.0729551
0.0672592
0.0617379
0.0564037
0.0512646
0.0463299
0.0416051
0.0370969
0.0328084
0.0287438
0.0249061
0.0212947
0.0179107
0.0147515
0.011816
0.00910141
0.00660288
0.00431598
0.00223338
0.000348078
-0.00134818
-0.00286607
-0.00421463
-0.00540866
-0.00645594
-0.00735512
-0.00816644
0.233222
0.233243
0.232754
0.231799
0.230437
0.228676
0.226518
0.223966
0.221022
0.21769
0.213977
0.209888
0.205437
0.200658
0.195574
0.190192
0.184546
0.178665
0.172572
0.166295
0.159861
0.153299
0.146644
0.139918
0.133152
0.126371
0.119601
0.112866
0.106192
0.0995994
0.0931099
0.086743
0.0805159
0.0744455
0.0685465
0.0628318
0.0573141
0.0520015
0.0469038
0.0420262
0.0373756
0.032955
0.0287683
0.0248186
0.0211046
0.0176274
0.0143838
0.0113725
0.00859035
0.00603179
0.00369191
0.0015627
-0.000363617
-0.00209598
-0.00364595
-0.00502334
-0.00624376
-0.00731557
-0.00824044
-0.00906879
0.240415
0.240463
0.239988
0.239033
0.237659
0.235871
0.233669
0.231054
0.22803
0.224599
0.220769
0.216544
0.21194
0.20699
0.201719
0.196136
0.190274
0.184167
0.177837
0.171314
0.164626
0.157806
0.150888
0.143897
0.136865
0.129818
0.122785
0.11579
0.10886
0.102017
0.0952844
0.0886816
0.082227
0.0759382
0.0698303
0.0639167
0.0582106
0.0527202
0.0474555
0.0424218
0.0376258
0.0330705
0.0287597
0.024696
0.0208783
0.0173069
0.0139785
0.0108913
0.00804167
0.00542349
0.00303126
0.000856175
-0.00111022
-0.00287771
-0.00445872
-0.00586384
-0.00710945
-0.00820478
-0.00915012
-0.0100059
0.24779
0.247869
0.24741
0.246458
0.245072
0.243258
0.241012
0.238335
0.23523
0.231698
0.227747
0.223382
0.218619
0.213493
0.208029
0.202237
0.196153
0.189812
0.183235
0.176458
0.169508
0.162419
0.155229
0.147964
0.140656
0.133335
0.126029
0.118765