/*--------------------------------*- C++ -*----------------------------------*\
  =========                 |
  \\      /  F ield         | OpenFOAM: The Open Source CFD Toolbox
   \\    /   O peration     | Website:  https://openfoam.org
    \\  /    A nd           | Version:  6.0
     \\/     M anipulation  |
\*---------------------------------------------------------------------------*/
FoamFile
{
    version     2.0;
    format      ascii;
    class       surfaceScalarField;
    location    "6";
    object      phi;
}
// * * * * * * * * * * * * * * * * * * * * * * * * * * * * * * * * * * * * * //

dimensions      [0 3 -1 0 0 0 0];

internalField   nonuniform List<scalar> 
123526
(
8.84367e-06
0.000514671
2.45195e-08
1.78024e-05
0.000514201
2.68574e-05
0.000513348
3.59847e-05
0.000512147
4.51434e-05
0.000510618
5.43073e-05
0.000508755
6.34544e-05
0.000506559
7.25666e-05
0.000504031
8.16302e-05
0.000501175
9.06348e-05
0.000497989
9.95729e-05
0.000494475
0.000108439
0.000490631
0.000117232
0.000486456
0.000125951
0.000481944
0.00013459
0.000477102
0.000143147
0.000471924
0.000151625
0.000466403
0.000160014
0.00046055
0.000168314
0.000454358
0.000176519
0.000447832
0.000184622
0.000440979
0.000192621
0.000433797
0.000200502
0.000426303
0.000208263
0.000418496
0.000215893
0.000410391
0.000223387
0.000401994
0.000230734
0.000393318
0.000237928
0.000384371
0.000244962
0.000375163
0.000251829
0.000365704
0.000258522
0.000356005
0.000265036
0.000346073
0.000271364
0.000335918
0.000277503
0.000325546
0.000283445
0.000314969
0.00028919
0.000304189
0.00029473
0.000293218
0.000300063
0.00028206
0.000305184
0.000270723
0.000310091
0.000259213
0.00031478
0.000247537
0.000319247
0.000235703
0.000323491
0.000223715
0.000327508
0.000211582
0.000331295
0.00019931
0.000334851
0.000186906
0.000338171
0.000174377
0.000341256
0.000161731
0.000344101
0.000148975
0.000346705
0.000136115
0.000349066
0.000123161
0.000351182
0.000110118
0.000353051
9.69937e-05
0.00035467
8.37959e-05
0.000356037
7.05307e-05
0.000357148
5.72041e-05
0.000357991
4.38233e-05
0.00035857
3.03736e-05
0.000358585
1.70181e-05
4.11791e-06
0.000357123
8.72193e-06
0.000505998
-4.61742e-08
1.74764e-05
0.000505449
2.63187e-05
0.00050451
3.52268e-05
0.000503242
4.41622e-05
0.000501687
5.31016e-05
0.000499819
6.20256e-05
0.000497638
7.09192e-05
0.000495141
7.97715e-05
0.000492325
8.85746e-05
0.000489188
9.73232e-05
0.000485728
0.000106014
0.000481942
0.000114645
0.000477825
0.000123216
0.000473372
0.000131722
0.000468596
0.000140159
0.000463485
0.000148528
0.000458032
0.000156819
0.000452257
0.000165027
0.000446146
0.000173147
0.000439708
0.000181167
0.000432953
0.000189086
0.000425874
0.000196887
0.000418495
0.000204568
0.000410809
0.000212116
0.000402837
0.000219524
0.000394579
0.000226784
0.000386052
0.000233889
0.000377259
0.00024083
0.000368215
0.000247603
0.000358925
0.000254199
0.000349402
0.000260615
0.00033965
0.000266845
0.000329682
0.000272885
0.0003195
0.000278729
0.000309119
0.000284375
0.000298537
0.000289818
0.00028777
0.000295056
0.000276817
0.000300084
0.00026569
0.000304901
0.000254393
0.000309502
0.000242932
0.000313885
0.000231316
0.000318048
0.000219548
0.000321988
0.000207639
0.000325702
0.000195593
0.000329189
0.000183417
0.000332444
0.000171119
0.000335468
0.000158705
0.000338258
0.000146183
0.000340811
0.00013356
0.000343125
0.000120843
0.0003452
0.000108041
0.000347033
9.51585e-05
0.000348622
8.22046e-05
0.000349965
6.9186e-05
0.000351057
5.61097e-05
0.000351891
4.29875e-05
0.000352445
2.98155e-05
0.000352791
1.66745e-05
3.80528e-06
0.000353096
8.5053e-06
0.000497556
-6.12025e-08
1.70266e-05
0.000496931
2.56372e-05
0.000495902
3.4318e-05
0.000494564
4.30342e-05
0.000492974
5.17651e-05
0.000491091
6.04937e-05
0.000488912
6.92065e-05
0.000486431
7.78934e-05
0.000483641
8.65466e-05
0.000480537
9.51602e-05
0.000477116
0.00010373
0.000473374
0.000112251
0.000469305
0.000120724
0.0004649
0.000129139
0.000460182
0.000137491
0.000455134
0.000145778
0.000449745
0.000153988
0.000444047
0.000162116
0.000438019
0.000170154
0.00043167
0.00017809
0.000425017
0.000185919
0.000418043
0.000193629
0.000410785
0.000201213
0.000403224
0.000208661
0.000395389
0.000215966
0.000387273
0.000223119
0.000378898
0.000230113
0.000370263
0.000236943
0.000361384
0.000243602
0.000352265
0.000250085
0.000342919
0.000256386
0.000333347
0.000262502
0.000323566
0.000268429
0.000313573
0.000274161
0.000303386
0.000279698
0.000293001
0.000285033
0.000282434
0.000290166
0.000271685
0.000295092
0.000260764
0.000299809
0.000249676
0.000304315
0.000238427
0.000308606
0.000227025
0.00031268
0.000215474
0.000316535
0.000203785
0.000320168
0.00019196
0.000323577
0.000180008
0.000326759
0.000167937
0.000329713
0.000155751
0.000332436
0.00014346
0.000334926
0.00013107
0.000337182
0.000118588
0.0003392
0.000106023
0.000340979
9.33803e-05
0.000342515
8.06689e-05
0.000343805
6.78963e-05
0.000344844
5.50711e-05
0.000345626
4.2206e-05
0.000346145
2.92997e-05
0.000346425
1.6392e-05
3.72628e-06
0.000346507
8.28896e-06
0.00048931
-4.01447e-08
1.66144e-05
0.000488608
2.50321e-05
0.000487488
3.35255e-05
0.000486075
4.20618e-05
0.000484441
5.06222e-05
0.000482535
5.91906e-05
0.000480348
6.77542e-05
0.000477871
7.63027e-05
0.000475096
8.48277e-05
0.000472016
9.33223e-05
0.000468625
0.00010178
0.00046492
0.000110197
0.000460891
0.000118569
0.000456531
0.000126885
0.000451868
0.00013514
0.000446883
0.000143329
0.000441558
0.00015144
0.000435939
0.000159466
0.000429995
0.000167399
0.00042374
0.000175226
0.000417192
0.000182944
0.000410328
0.000190539
0.000403193
0.000198005
0.00039576
0.000205332
0.000388064
0.000212514
0.000380093
0.000219543
0.000371871
0.000226412
0.000363395
0.000233117
0.000354682
0.000239651
0.000345732
0.000246009
0.000336563
0.000252187
0.00032717
0.000258181
0.000317574
0.000263989
0.000307767
0.000269604
0.000297772
0.000275026
0.00028758
0.00028025
0.000277211
0.000285275
0.000266662
0.000290096
0.000255944
0.000294712
0.000245062
0.00029912
0.000234021
0.000303317
0.000222831
0.0003073
0.000211492
0.000311069
0.000200018
0.000314619
0.000188412
0.000317949
0.00017668
0.000321056
0.000164831
0.000323938
0.00015287
0.000326594
0.000140806
0.00032902
0.000128645
0.000331215
0.000116395
0.000333177
0.000104063
0.000334902
9.16561e-05
0.000336388
7.91835e-05
0.000337632
6.66529e-05
0.000338631
5.40731e-05
0.000339382
4.14568e-05
0.000339882
2.88001e-05
0.000340138
1.61408e-05
3.71939e-06
0.000340142
8.08817e-06
0.000481234
-1.0255e-08
1.62468e-05
0.000480452
2.45006e-05
0.000479237
3.28341e-05
0.000477744
4.12159e-05
0.000476062
4.9628e-05
0.000474126
5.80549e-05
0.000471924
6.64838e-05
0.000469445
7.49039e-05
0.000466679
8.33063e-05
0.000463616
9.1683e-05
0.000460251
0.000100027
0.000456579
0.000108331
0.00045259
0.000116592
0.000448273
0.000124798
0.000443666
0.00013294
0.000438743
0.000141016
0.000433486
0.000149011
0.000427947
0.000156918
0.000422091
0.00016473
0.000415931
0.000172433
0.000409491
0.000180024
0.000402739
0.00018749
0.00039573
0.000194826
0.000388427
0.000202021
0.000380871
0.000209071
0.000373046
0.000215968
0.000364977
0.000222706
0.000356659
0.00022928
0.000348111
0.000235685
0.00033933
0.000241916
0.000330335
0.00024797
0.000321119
0.000253841
0.000311705
0.000259529
0.000302082
0.000265029
0.000292276
0.000270338
0.000282274
0.000275452
0.0002721
0.00028037
0.000261747
0.000285089
0.000251228
0.000289606
0.000240548
0.000293919
0.00022971
0.000298025
0.000218727
0.000301922
0.000207598
0.000305607
0.000196336
0.000309079
0.000184943
0.000312334
0.000173427
0.00031537
0.000161797
0.000318186
0.000150056
0.00032078
0.000138215
0.000323148
0.000126279
0.00032529
0.000114255
0.000327202
0.000102152
0.000328883
8.9977e-05
0.00033033
7.7738e-05
0.000331541
6.54435e-05
0.000332514
5.31022e-05
0.000333246
4.0726e-05
0.000333739
2.83115e-05
0.000333988
1.58922e-05
3.71902e-06
0.000333991
7.89927e-06
0.00047331
2.72506e-08
1.59094e-05
0.000472445
2.40169e-05
0.000471133
3.22067e-05
0.000469558
4.04483e-05
0.000467824
4.87242e-05
0.000465854
5.7019e-05
0.000463633
6.53197e-05
0.000461148
7.36151e-05
0.000458387
8.18956e-05
0.000455339
9.01524e-05
0.000451998
9.83773e-05
0.000448358
0.000106563
0.000444407
0.000114705
0.000440135
0.00012279
0.000435584
0.00013081
0.000430726
0.000138761
0.000425538
0.000146629
0.000420082
0.000154407
0.000414316
0.000162087
0.000408255
0.000169657
0.000401925
0.000177114
0.000395287
0.000184444
0.000388403
0.000191643
0.000381231
0.000198702
0.000373815
0.000205617
0.000366135
0.000212379
0.000358219
0.000218984
0.000350057
0.000225427
0.000341672
0.000231703
0.000333057
0.000237808
0.000324233
0.000243739
0.000315192
0.000249491
0.000305956
0.000255062
0.000296514
0.000260449
0.000286893
0.000265648
0.000277078
0.000270657
0.000267094
0.000275473
0.000256933
0.000280094
0.00024661
0.000284517
0.000236128
0.00028874
0.00022549
0.00029276
0.000214711
0.000296575
0.000203786
0.000300182
0.000192731
0.00030358
0.000181548
0.000306765
0.000170244
0.000309737
0.000158828
0.000312492
0.000147303
0.000315029
0.00013568
0.000317345
0.000123964
0.000319439
0.000112163
0.000321308
0.000100285
0.000322951
8.83357e-05
0.000324365
7.63253e-05
0.000325549
6.42613e-05
0.0003265
5.21524e-05
0.000327217
4.00103e-05
0.0003277
2.78303e-05
0.000327949
1.56482e-05
3.70705e-06
0.000327959
7.72079e-06
0.000465517
7.42326e-08
1.55961e-05
0.000464572
2.35694e-05
0.000463162
3.16262e-05
0.000461504
3.97367e-05
0.000459717
4.78835e-05
0.000457709
5.60512e-05
0.000455468
6.42265e-05
0.000452976
7.23979e-05
0.000450218
8.05551e-05
0.000447185
8.86888e-05
0.000443867
9.67901e-05
0.000440259
0.000104852
0.000436348
0.000112867
0.000432122
0.000120824
0.00042763
0.000128714
0.000422839
0.000136533
0.000417722
0.000144267
0.000412351
0.000151909
0.000406677
0.000159451
0.000400716
0.000166883
0.000394496
0.0001742
0.000387972
0.000181391
0.000381215
0.000188452
0.000374173
0.000195374
0.000366897
0.000202152
0.00035936
0.00020878
0.000351594
0.000215254
0.000343587
0.000221568
0.000335362
0.000227718
0.00032691
0.0002337
0.000318254
0.000239511
0.000309384
0.000245147
0.000300324
0.000250606
0.000291059
0.000255883
0.000281619
0.000260977
0.000271987
0.000265885
0.00026219
0.000270604
0.000252217
0.000275132
0.000242086
0.000279465
0.000231797
0.000283603
0.000221356
0.000287541
0.000210775
0.000291279
0.000200051
0.000294813
0.0001892
0.000298141
0.000178222
0.000301262
0.000167126
0.000304173
0.00015592
0.000306871
0.000144606
0.000309356
0.000133198
0.000311624
0.000121698
0.000313674
0.000110115
0.000315504
9.84563e-05
0.000317113
8.67291e-05
0.000318497
7.49424e-05
0.000319656
6.31039e-05
0.000320588
5.12221e-05
0.000321292
3.93082e-05
0.000321768
2.73578e-05
0.000322014
1.54028e-05
3.6913e-06
0.000322032
7.5522e-06
0.000457842
1.25022e-07
1.5302e-05
0.000456824
2.3149e-05
0.000455318
3.10793e-05
0.000453576
3.90638e-05
0.000451735
4.70851e-05
0.000449691
5.51278e-05
0.000447428
6.31782e-05
0.000444928
7.12246e-05
0.000442175
7.92563e-05
0.000439156
8.72634e-05
0.000435863
9.52369e-05
0.000432289
0.000103169
0.00042842
0.000111053
0.000424241
0.000118877
0.000419809
0.000126632
0.000415087
0.000134313
0.000410044
0.000141909
0.00040476
0.000149411
0.000399178
0.000156813
0.000393317
0.000164104
0.000387208
0.000171281
0.000380799
0.000178333
0.000374167
0.000185256
0.000367254
0.000192041
0.000360115
0.000198685
0.000352719
0.000205181
0.000345101
0.000211526
0.000337246
0.000217713
0.000329178
0.000223741
0.000320886
0.000229604
0.000312395
0.000235299
0.000303692
0.000240823
0.000294803
0.000246174
0.000285712
0.000251347
0.00027645
0.000256341
0.000266996
0.000261152
0.000257382
0.000265778
0.000247594
0.000270217
0.00023765
0.000274465
0.000227552
0.000278522
0.000217303
0.000282383
0.000206917
0.000286047
0.000196389
0.000289512
0.000185738
0.000292775
0.000174961
0.000295835
0.000164069
0.000298688
0.000153069
0.000301333
0.000141963
0.000303769
0.000130764
0.000305992
0.000119476
0.000308002
0.000108107
0.000309795
9.66642e-05
0.000311372
8.51542e-05
0.000312729
7.35867e-05
0.000313865
6.19689e-05
0.000314779
5.03093e-05
0.000315471
3.86186e-05
0.000315939
2.68913e-05
0.000316185
1.51603e-05
3.66858e-06
0.000316207
7.39454e-06
0.00045029
1.58728e-07
1.50229e-05
0.000449198
2.27476e-05
0.000447595
3.05548e-05
0.000445771
3.84157e-05
0.000443877
4.63129e-05
0.000441796
5.42308e-05
0.000439513
6.21556e-05
0.000437006
7.00753e-05
0.000434258
7.7979e-05
0.000431255
8.58566e-05
0.000427988
9.36988e-05
0.000424449
0.000101498
0.000420623
0.000109247
0.000416494
0.000116934
0.000412125
0.000124551
0.000407473
0.000132093
0.000402504
0.000139548
0.000397307
0.00014691
0.000391819
0.000154171
0.000386059
0.000161322
0.00038006
0.00016836
0.000373764
0.000175273
0.000367256
0.00018206
0.00036047
0.000188711
0.000353466
0.000195224
0.00034621
0.000201592
0.000338737
0.000207811
0.00033103
0.000213876
0.000323115
0.000219785
0.000314981
0.000225533
0.000306651
0.000231117
0.000298111
0.000236533
0.00028939
0.00024178
0.000280468
0.000246853
0.00027138
0.00025175
0.000262102
0.000256469
0.000252666
0.000261006
0.00024306
0.00026536
0.000233299
0.000269527
0.000223387
0.000273506
0.000213327
0.000277293
0.000203132
0.000280888
0.000192797
0.000284287
0.000182341
0.000287488
0.000171762
0.000290489
0.00016107
0.000293288
0.000150272
0.000295883
0.00013937
0.000298272
0.000128378
0.000300453
0.000117297
0.000302424
0.000106137
0.000304183
9.49063e-05
0.000305729
8.36095e-05
0.000307061
7.22567e-05
0.000308176
6.08552e-05
0.000309074
4.9413e-05
0.000309753
3.79405e-05
0.000310215
2.64322e-05
0.000310459
1.49176e-05
3.64457e-06
0.000310484
7.24502e-06
0.000442856
1.91207e-07
1.47546e-05
0.000441691
2.2359e-05
0.000439993
3.00445e-05
0.000438089
3.77824e-05
0.000436142
4.55554e-05
0.000434026
5.33479e-05
0.000431723
6.11458e-05
0.000429211
6.89371e-05
0.000426469
7.67107e-05
0.000423484
8.44566e-05
0.000420245
9.21653e-05
0.000416743
9.9829e-05
0.000412962
0.000107441
0.000408885
0.000114991
0.000404579
0.000122468
0.000399998
0.000129871
0.000395105
0.000137185
0.000389996
0.000144407
0.000384601
0.000151528
0.000378941
0.000158541
0.000373051
0.000165441
0.000366867
0.00017222
0.000360481
0.000178873
0.00035382
0.000185394
0.000346949
0.000191779
0.000339828
0.000198022
0.000332497
0.000204119
0.000324936
0.000210067
0.000317171
0.000215861
0.00030919
0.000221498
0.000301017
0.000226975
0.000292637
0.000232287
0.000284081
0.000237434
0.000275325
0.00024241
0.000266407
0.000247215
0.0002573
0.000251844
0.00024804
0.000256297
0.000238611
0.000260569
0.00022903
0.000264658
0.000219301
0.000268562
0.000209425
0.000272279
0.000199418
0.000275807
0.000189272
0.000279143
0.000179008
0.000282284
0.000168623
0.000285229
0.000158127
0.000287976
0.000147527
0.000290523
0.000136825
0.000292867
0.000126035
0.000295007
0.000115159
0.000296942
0.000104205
0.000298669
9.31811e-05
0.000300186
8.20933e-05
0.000301493
7.09511e-05
0.000302588
5.97615e-05
0.00030347
4.85323e-05
0.000304139
3.72736e-05
0.000304594
2.59787e-05
0.000304836
1.46783e-05
3.61691e-06
0.000304863
7.10251e-06
0.000435541
2.13464e-07
1.44942e-05
0.0004343
2.19788e-05
0.00043251
2.95427e-05
0.000430527
3.71574e-05
0.000428529
4.48056e-05
0.00042638
5.24715e-05
0.000424059
6.01414e-05
0.000421543
6.78028e-05
0.00041881
7.54449e-05
0.000415844
8.30576e-05
0.000412634
9.06317e-05
0.00040917
9.81593e-05
0.000405436
0.000105634
0.000401411
0.000113045
0.00039717
0.000120384
0.000392661
0.000127648
0.000387844
0.000134823
0.000382822
0.000141907
0.00037752
0.000148891
0.000371959
0.000155767
0.000366177
0.000162533
0.000360103
0.00016918
0.000353837
0.000175704
0.000347299
0.000182097
0.000340557
0.000188358
0.00033357
0.000194481
0.000326378
0.000200461
0.000318958
0.000206294
0.000311341
0.000211978
0.000303509
0.000217507
0.000295491
0.00022288
0.000287267
0.000228093
0.000278871
0.000233143
0.000270277
0.000238026
0.000261526
0.000242742
0.000252587
0.000247285
0.000243499
0.000251655
0.000234244
0.000255849
0.00022484
0.000259863
0.000215289
0.000263696
0.000205594
0.000267345
0.000195771
0.000270808
0.000185811
0.000274082
0.000175736
0.000277166
0.000165541
0.000280058
0.000155237
0.000282754
0.000144832
0.000285255
0.000134327
0.000287556
0.000123735
0.000289657
0.000113059
0.000291556
0.000102307
0.000293252
9.14871e-05
0.000294742
8.06045e-05
0.000296025
6.96688e-05
0.000297101
5.8687e-05
0.000297968
4.76666e-05
0.000298626
3.66171e-05
0.000299074
2.55324e-05
0.000299313
1.444e-05
3.58866e-06
0.000299342
6.96498e-06
0.000428341
2.3709e-07
1.42393e-05
0.000427028
2.16041e-05
0.000425148
2.90459e-05
0.000423087
3.65368e-05
0.00042104
4.40593e-05
0.00041886
5.15978e-05
0.000416523
5.91385e-05
0.000414004
6.66692e-05
0.000411281
7.4179e-05
0.000408337
8.16581e-05
0.000405157
8.90972e-05
0.000401734
9.64888e-05
0.000398048
0.000103827
0.000394076
0.000111101
0.000389899
0.000118302
0.000385463
0.000125428
0.000380721
0.000132467
0.000375786
0.000139415
0.000370575
0.000146264
0.000365112
0.000153008
0.000359436
0.000159643
0.000353471
0.000166161
0.000347323
0.000172559
0.000340904
0.00017883
0.00033429
0.000184971
0.000327432
0.000190976
0.000320376
0.000196842
0.000313095
0.000202565
0.000305621
0.000208141
0.000297935
0.000213567
0.000290068
0.00021884
0.000281997
0.000223956
0.000273759
0.000228913
0.000265323
0.000233706
0.000256735
0.000238335
0.000247961
0.000242796
0.000239042
0.000247086
0.000229956
0.000251203
0.000220725
0.000255145
0.000211351
0.000258908
0.000201833
0.000262491
0.000192191
0.000265892
0.000182413
0.000269107
0.000172523
0.000272136
0.000162515
0.000274975
0.0001524
0.000277623
0.000142186
0.000280078
0.000131874
0.000282338
0.000121477
0.000284402
0.000110997
0.000286267
0.000100443
0.000287932
8.98235e-05
0.000289395
7.91421e-05
0.000290656
6.84092e-05
0.000291713
5.76312e-05
0.000292566
4.68154e-05
0.000293213
3.59714e-05
0.000293654
2.50918e-05
0.000293891
1.42053e-05
3.55841e-06
0.000293921
6.83276e-06
0.000421263
2.4663e-07
1.39887e-05
0.000419873
2.1233e-05
0.000417905
2.85522e-05
0.000415769
3.59185e-05
0.000413676
4.33147e-05
0.000411465
5.07252e-05
0.000409114
5.81362e-05
0.000406595
6.55359e-05
0.000403883
7.29133e-05
0.000400961
8.02588e-05
0.000397813
8.75635e-05
0.000394431
9.482e-05
0.000390793
0.000102023
0.000386875
0.00010916
0.000382763
0.000116226
0.000378398
0.000123217
0.000373731
0.000130122
0.000368883
0.000136937
0.000363763
0.000143656
0.000358395
0.00015027
0.000352824
0.000156778
0.000346965
0.000163171
0.000340932
0.000169446
0.000334631
0.000175598
0.00032814
0.000181622
0.00032141
0.000187513
0.000314486
0.000193269
0.000307341
0.000198885
0.000300008
0.000204358
0.000292465
0.000209683
0.000284745
0.000214859
0.000276823
0.000219881
0.000268739
0.000224747
0.000260459
0.000229454
0.000252031
0.000233999
0.000243418
0.000238379
0.000234664
0.000242592
0.000225745
0.000246635
0.000216685
0.000250506
0.000207482
0.000254202
0.000198139
0.000257721
0.000188674
0.000261061
0.000179075
0.000264219
0.000169367
0.000267193
0.000159543
0.000269982
0.000149613
0.000272582
0.000139587
0.000274994
0.000129464
0.000277214
0.000119258
0.00027924
0.000108972
0.000281072
9.86127e-05
0.000282708
8.81892e-05
0.000284145
7.77054e-05
0.000285384
6.71713e-05
0.000286423
5.65933e-05
0.000287261
4.59783e-05
0.000287898
3.53356e-05
0.000288334
2.46581e-05
0.000288567
1.39723e-05
3.52753e-06
0.000288598
6.70321e-06
0.0004143
2.61182e-07
1.37411e-05
0.000412837
2.08646e-05
0.000410783
2.80607e-05
0.000408575
3.5302e-05
0.000406436
4.25715e-05
0.000404198
4.98537e-05
0.000401834
5.71351e-05
0.000399315
6.44038e-05
0.000396617
7.16493e-05
0.000393717
7.88621e-05
0.000390603
8.60334e-05
0.000387262
9.31562e-05
0.000383672
0.000100225
0.000379809
0.000107229
0.000375762
0.000114162
0.000371468
0.000121021
0.000366875
0.000127795
0.000362112
0.00013448
0.00035708
0.00014107
0.000351808
0.000147558
0.000346338
0.000153943
0.000340583
0.000160214
0.000334663
0.000166371
0.000328477
0.000172406
0.000322108
0.000178317
0.000315502
0.000184099
0.000308708
0.000189748
0.000301695
0.000195259
0.000294499
0.000200631
0.000287096
0.000205859
0.00027952
0.00021094
0.000271745
0.000215871
0.000263811
0.000220649
0.000255684
0.000225271
0.000247412
0.000229735
0.000238958
0.000234036
0.000230365
0.000238174
0.00022161
0.000242145
0.000212716
0.000245947
0.000203683
0.000249577
0.000194511
0.000253033
0.00018522
0.000256314
0.000175797
0.000259416
0.000166267
0.000262338
0.000156623
0.000265077
0.000146876
0.000267632
0.000137034
0.00027
0.000127097
0.000272181
0.000117079
0.000274172
0.000106982
0.000275971
9.68145e-05
0.000277578
8.65836e-05
0.000278991
7.62938e-05
0.000280208
6.59549e-05
0.00028123
5.55731e-05
0.000282054
4.51552e-05
0.000282681
3.47102e-05
0.000283109
2.42304e-05
0.00028334
1.3743e-05
3.49551e-06
0.000283372
6.57707e-06
0.000407457
2.66625e-07
1.34962e-05
0.000405919
2.04986e-05
0.000403782
2.75714e-05
0.000401504
3.46876e-05
0.000399321
4.18304e-05
0.000397056
4.89846e-05
0.000394681
5.61367e-05
0.000392164
6.32752e-05
0.000389479
7.03897e-05
0.000386604
7.7471e-05
0.000383523
8.45105e-05
0.000380224
9.15015e-05
0.000376683
9.84386e-05
0.000372873
0.000105312
0.00036889
0.000112114
0.000364667
0.000118843
0.000360148
0.000125489
0.000355467
0.000132048
0.000350524
0.000138513
0.000345344
0.000144879
0.000339974
0.000151143
0.000334321
0.000157296
0.000328511
0.000163337
0.000322437
0.00016926
0.000316187
0.000175061
0.000309703
0.000180735
0.000303035
0.00018628
0.000296152
0.00019169
0.00028909
0.000196964
0.000281824
0.000202097
0.000274389
0.000207086
0.000266757
0.000211928
0.000258971
0.00021662
0.000250993
0.000221159
0.000242875
0.000225543
0.000234576
0.000229768
0.000226142
0.000233832
0.000217548
0.000237733
0.000208817
0.000241468
0.00019995
0.000245034
0.000190947
0.000248429
0.000181827
0.000251652
0.000172576
0.000254699
0.000163221
0.000257569
0.000153754
0.00026026
0.000144186
0.00026277
0.000134526
0.000265097
0.000124771
0.000267239
0.000114938
0.000269195
0.000105028
0.000270963
9.50474e-05
0.000272542
8.50058e-05
0.00027393
7.49063e-05
0.000275127
6.47591e-05
0.000276131
5.45699e-05
0.000276941
4.43455e-05
0.000277558
3.40944e-05
0.00027798
2.38094e-05
0.000278208
1.35156e-05
3.46267e-06
0.000278241
6.45286e-06
0.000400729
2.76447e-07
1.32536e-05
0.00039912
2.01349e-05
0.000396902
2.70846e-05
0.000394556
3.4076e-05
0.000392332
4.10925e-05
0.000390041
4.81192e-05
0.000387656
5.5143e-05
0.000385143
6.21524e-05
0.000382472
6.91372e-05
0.000379621
7.60886e-05
0.000376574
8.29982e-05
0.000373316
8.98594e-05
0.000369824
9.66673e-05
0.000366068
0.000103412
0.000362148
0.000110087
0.000357995
0.000116689
0.000353547
0.00012321
0.000348949
0.000129645
0.000344091
0.000135989
0.000339002
0.000142235
0.000333731
0.000148381
0.000328177
0.00015442
0.000322475
0.000160349
0.000316511
0.000166161
0.000310377
0.000171855
0.000304011
0.000177425
0.000297467
0.000182868
0.000290711
0.00018818
0.00028378
0.000193359
0.000276648
0.000198398
0.000269352
0.000203298
0.00026186
0.000208053
0.000254219
0.000212662
0.000246387
0.00021712
0.00023842
0.000221426
0.000230272
0.000225576
0.000221994
0.000229568
0.000213558
0.0002334
0.000204988
0.000237068
0.000196284
0.000240572
0.000187445
0.000243907
0.000178493
0.000247073
0.000169412
0.000250067
0.000160229
0.000252887
0.000150936
0.000255531
0.000141544
0.000257996
0.000132062
0.000260283
0.000122486
0.000262387
0.000112835
0.000264309
0.000103107
0.000266046
9.33113e-05
0.000267598
8.34555e-05
0.000268962
7.3543e-05
0.000270138
6.35839e-05
0.000271125
5.35838e-05
0.000271922
4.35492e-05
0.000272529
3.34888e-05
0.000272945
2.33943e-05
0.00027317
1.3292e-05
3.42927e-06
0.000273203
6.33163e-06
0.000394123
2.74903e-07
1.30134e-05
0.000392439
1.9774e-05
0.000390142
2.66009e-05
0.00038773
3.34681e-05
0.000385465
4.03592e-05
0.000383151
4.72595e-05
0.000380756
5.4156e-05
0.000378247
6.10377e-05
0.000375591
6.78946e-05
0.000372765
7.47179e-05
0.000369751
8.14997e-05
0.000366536
8.82335e-05
0.000363091
9.49144e-05
0.000359388
0.000101533
0.000355531
0.000108083
0.000351446
0.000114562
0.00034707
0.00012096
0.000342552
0.000127275
0.000337778
0.0001335
0.000332778
0.00013963
0.000327603
0.000145662
0.000322147
0.000151588
0.00031655
0.000157407
0.000310693
0.000163113
0.000304673
0.000168702
0.000298423
0.00017417
0.000292001
0.000179515
0.000285369
0.00018473
0.000278566
0.000189815
0.000271565
0.000194764
0.000264404
0.000199576
0.00025705
0.000204246
0.00024955
0.000208773
0.000241862
0.000213152
0.000234042
0.000217381
0.000226044
0.000221458
0.000217919
0.00022538
0.000209637
0.000229144
0.000201225
0.000232748
0.000192681
0.00023619
0.000184005
0.000239467
0.000175218
0.000242578
0.000166303
0.000245519
0.000157289
0.000248289
0.000148167
0.000250887
0.000138948
0.000253309
0.00012964
0.000255556
0.000120241
0.000257624
0.000110768
0.000259512
0.00010122
0.000261219
9.1605e-05
0.000262743
8.19317e-05
0.000264084
7.22028e-05
0.000265241
6.24284e-05
0.000266211
5.2614e-05
0.000266995
4.27659e-05
0.000267592
3.28924e-05
0.000268002
2.29857e-05
0.000268224
1.30703e-05
3.39479e-06
0.000268258
6.21122e-06
0.000387631
2.82238e-07
1.27756e-05
0.000385876
1.94162e-05
0.000383503
2.61213e-05
0.000381026
3.28652e-05
0.000378723
3.96319e-05
0.000376386
4.6407e-05
0.000373983
5.31778e-05
0.000371478
5.99334e-05
0.000368837
6.66642e-05
0.000366036
7.33615e-05
0.000363056
8.00177e-05
0.000359881
8.66264e-05
0.000356485
9.3183e-05
0.000352833
9.9678e-05
0.000349038
0.000106106
0.00034502
0.000112464
0.000340714
0.000118743
0.000336275
0.00012494
0.000331584
0.00013105
0.00032667
0.000137065
0.000321589
0.000142986
0.000316228
0.000148803
0.000310735
0.000154515
0.000304983
0.000160116
0.000299074
0.000165603
0.000292938
0.000170972
0.000286634
0.00017622
0.000280123
0.000181341
0.000273447
0.000186334
0.000266574
0.000191195
0.000259545
0.000195921
0.000252326
0.000200508
0.000244966
0.000204954
0.000237418
0.000209255
0.000229743
0.00021341
0.000221891
0.000217415
0.000213916
0.000221268
0.000205786
0.000224966
0.000197529
0.000228507
0.000189142
0.000231888
0.000180625
0.000235108
0.000172
0.000238164
0.000163248
0.000241054
0.000154401
0.000243776
0.000145447
0.000246328
0.000136397
0.000248708
0.000127261
0.000250915
0.000118035
0.000252947
0.000108737
0.000254802
9.93655e-05
0.00025648
8.99285e-05
0.000257978
8.04344e-05
0.000259296
7.08858e-05
0.000260433
6.12928e-05
0.000261387
5.16607e-05
0.000262158
4.19956e-05
0.000262745
3.23059e-05
0.000263149
2.25829e-05
0.000263368
1.28522e-05
3.36013e-06
0.000263403
6.09295e-06
0.000381256
2.82348e-07
1.25403e-05
0.000379429
1.9062e-05
0.000376982
2.56462e-05
0.000374442
3.22681e-05
0.000372101
3.89118e-05
0.000369743
4.55633e-05
0.000367332
5.22101e-05
0.000364832
5.88415e-05
0.000362207
6.54482e-05
0.000359431
7.20217e-05
0.000356483
7.85545e-05
0.00035335
8.50406e-05
0.00035
9.14753e-05
0.0003464
9.78496e-05
0.000342665
0.000104158
0.000338713
0.000110398
0.000334475
0.00011656
0.000330113
0.000122642
0.000325503
0.000128639
0.000320675
0.000134544
0.000315685
0.000140355
0.000310418
0.000146065
0.000305026
0.000151673
0.000299376
0.000157172
0.000293576
0.000162559
0.000287551
0.000167831
0.000281364
0.000172983
0.000274972
0.000178013
0.000268418
0.000182917
0.000261672
0.00018769
0.000254773
0.000192332
0.000247686
0.000196837
0.000240461
0.000201205
0.000233052
0.00020543
0.000225519
0.000209512
0.000217811
0.000213446
0.000209983
0.000217231
0.000202002
0.000220864
0.000193897
0.000224343
0.000185664
0.000227665
0.000177304
0.000230828
0.000168838
0.000233831
0.000160247
0.00023667
0.000151563
0.000239344
0.000142773
0.000241852
0.000133891
0.000244191
0.000124923
0.000246359
0.000115867
0.000248356
0.000106741
0.000250179
9.75429e-05
0.000251827
8.82805e-05
0.0002533
7.89624e-05
0.000254595
6.95909e-05
0.000255713
6.0176e-05
0.000256651
5.07229e-05
0.000257409
4.12376e-05
0.000257987
3.17281e-05
0.000258385
2.21863e-05
0.000258601
1.2636e-05
3.32414e-06
0.000258636
5.97583e-06
0.000374992
2.89814e-07
1.23079e-05
0.000373098
1.87118e-05
0.00037058
2.51766e-05
0.000367979
3.16778e-05
0.000365602
3.82002e-05
0.000363222
4.47297e-05
0.000360804
5.12543e-05
0.000358308
5.77635e-05
0.000355699
6.42482e-05
0.000352948
7.07002e-05
0.000350033
7.7112e-05
0.00034694
8.34778e-05
0.000343636
8.97932e-05
0.000340086
9.60492e-05
0.000336411
0.000102241
0.000332524
0.000108365
0.000328352
0.000114414
0.000324067
0.000120383
0.000319535
0.000126269
0.000314791
0.000132065
0.000309891
0.00013777
0.000304715
0.000143376
0.000299422
0.000148881
0.000293873
0.00015428
0.000288179
0.00015957
0.000282263
0.000164746
0.000276189
0.000169806
0.000269914
0.000174745
0.000263481
0.000179561
0.000256858
0.00018425
0.000250086
0.000188809
0.000243129
0.000193234
0.000236038
0.000197524
0.000228764
0.000201675
0.00022137
0.000205685
0.000213803
0.00020955
0.000206119
0.000213268
0.000198286
0.000216837
0.000190329
0.000220255
0.000182248
0.000223519
0.000174042
0.000226627
0.000165732
0.000229577
0.000157298
0.000232367
0.000148775
0.000234994
0.000140147
0.000237458
0.000131428
0.000239756
0.000122626
0.000241887
0.000113738
0.000243849
0.000104781
0.00024564
9.57522e-05
0.00024726
8.66614e-05
0.000248708
7.75162e-05
0.000249981
6.83185e-05
0.000251079
5.90785e-05
0.000252002
4.98012e-05
0.000252748
4.04924e-05
0.000253317
3.11601e-05
0.000253708
2.17955e-05
0.000253921
1.24233e-05
3.28825e-06
0.000253957
5.8615e-06
0.000368843
2.86606e-07
1.20786e-05
0.000366881
1.8366e-05
0.000364292
2.47129e-05
0.000361632
3.10952e-05
0.000359219
3.74978e-05
0.000356819
4.39073e-05
0.000354395
5.03117e-05
0.000351904
5.67008e-05
0.00034931
6.30657e-05
0.000346583
6.93983e-05
0.000343701
7.56914e-05
0.000340647
8.19394e-05
0.000337389
8.81379e-05
0.000333888
9.42782e-05
0.000330271
0.000100355
0.000326448
0.000106366
0.000322342
0.000112303
0.00031813
0.000118163
0.000313676
0.000123941
0.000309014
0.000129631
0.000304202
0.000135231