/*--------------------------------*- C++ -*----------------------------------*\
  =========                 |
  \\      /  F ield         | OpenFOAM: The Open Source CFD Toolbox
   \\    /   O peration     | Website:  https://openfoam.org
    \\  /    A nd           | Version:  6.0
     \\/     M anipulation  |
\*---------------------------------------------------------------------------*/
FoamFile
{
    version     2.0;
    format      ascii;
    class       volVectorField;
    location    "6";
    object      U;
}
// * * * * * * * * * * * * * * * * * * * * * * * * * * * * * * * * * * * * * //

dimensions      [0 1 -1 0 0 0 0];

internalField   nonuniform List<vector> 
29500
(
(0.999997 -6.52638e-06 1.30682e-18)
(0.999972 -1.72961e-05 7.31723e-18)
(0.999928 -3.75602e-05 2.54206e-16)
(0.999872 -7.17132e-05 5.00319e-17)
(0.999815 -0.000122299 -3.17277e-16)
(0.99977 -0.000184482 4.90224e-17)
(0.999746 -0.000247449 -2.71592e-16)
(0.999753 -0.000296759 1.44691e-16)
(0.99979 -0.000317053 5.83555e-16)
(0.999857 -0.000286361 -5.00429e-17)
(0.999945 -0.000190038 -7.05897e-16)
(1.00005 3.47419e-05 -3.36285e-16)
(1.00014 0.000351365 2.3348e-16)
(1.00008 0.00118921 -1.03697e-15)
(1.00471 0.00500705 2.60557e-16)
(0.999994 -1.69002e-05 -4.53788e-17)
(0.99995 -4.07483e-05 1.1827e-16)
(0.999872 -8.14335e-05 -1.74067e-16)
(0.999773 -0.000148287 -4.14225e-16)
(0.999672 -0.00024661 4.09477e-16)
(0.999595 -0.000365065 6.33786e-17)
(0.999559 -0.000482387 3.07231e-16)
(0.999577 -0.000572627 -1.18249e-16)
(0.999652 -0.000609434 -5.04159e-16)
(0.999782 -0.000552695 -6.12263e-16)
(0.999949 -0.000379661 3.51162e-16)
(1.00014 2.1711e-05 8.52565e-17)
(1.00035 0.000570303 -5.22711e-16)
(0.999961 0.00187487 2.78042e-16)
(1.00685 0.00684574 -1.80076e-16)
(0.999994 -2.62999e-05 -1.46265e-17)
(0.999959 -5.83661e-05 -1.09143e-16)
(0.999896 -0.000103574 -1.35017e-16)
(0.999817 -0.000171185 2.03269e-16)
(0.999737 -0.00026736 -3.12309e-16)
(0.999678 -0.000379375 -7.07771e-17)
(0.999658 -0.000486214 3.17164e-16)
(0.999687 -0.000564305 -7.38051e-16)
(0.999765 -0.000592184 -5.92408e-17)
(0.999892 -0.000533035 1.93245e-16)
(1.00005 -0.000369833 1.13485e-16)
(1.00023 1.78117e-06 1.95278e-16)
(1.0005 0.00050586 -2.39002e-17)
(0.999834 0.00160746 3.88886e-16)
(1.00582 0.00491532 1.63373e-16)
(0.999993 -3.55161e-05 7.91338e-17)
(0.999968 -7.64275e-05 6.81102e-17)
(0.999924 -0.000126535 -7.61972e-18)
(0.999869 -0.000194246 1.22267e-16)
(0.999813 -0.000285379 -1.34221e-16)
(0.999777 -0.000386899 8.36821e-17)
(0.999773 -0.000479197 -4.64635e-16)
(0.999811 -0.000541601 1.62207e-16)
(0.999891 -0.000558007 1.07662e-16)
(1.00001 -0.000496008 -4.31538e-16)
(1.00016 -0.000343445 1.91378e-17)
(1.00032 -4.3344e-06 2.02124e-16)
(1.00065 0.000467182 3.61115e-16)
(0.999899 0.00139667 -9.96091e-17)
(1.00466 0.00402306 3.47234e-17)
(0.99999 -4.44417e-05 -5.97427e-17)
(0.99997 -9.58957e-05 -9.60569e-17)
(0.999932 -0.000155741 1.28675e-16)
(0.999886 -0.000232214 -1.81901e-16)
(0.999841 -0.000329872 3.04417e-16)
(0.999814 -0.000434987 -1.0467e-16)
(0.999821 -0.000527616 2.16301e-16)
(0.999868 -0.000586726 9.28682e-17)
(0.999957 -0.00059758 -3.27503e-16)
(1.00008 -0.000528 4.57394e-16)
(1.00025 -0.000368043 -2.95505e-16)
(1.0004 -2.12862e-05 -2.72851e-16)
(1.0008 0.000473588 7.93697e-17)
(1.00012 0.00134363 -2.47996e-16)
(1.00393 0.00382379 2.47178e-16)
(0.999987 -5.29508e-05 2.97909e-17)
(0.999967 -0.000115656 1.00014e-16)
(0.999932 -0.000187143 4.16305e-18)
(0.99989 -0.000275518 2.1624e-16)
(0.99985 -0.000383498 1.94295e-16)
(0.99983 -0.000497041 1.5511e-16)
(0.999843 -0.000595787 -5.3221e-16)
(0.9999 -0.000657524 2.08e-16)
(1 -0.000667236 8.63326e-17)
(1.00014 -0.000591869 1.54417e-16)
(1.00032 -0.00042349 4.9504e-16)
(1.00048 -6.61044e-05 2.97281e-16)
(1.00093 0.000453732 2.17679e-18)
(1.0004 0.00127824 4.28457e-16)
(1.0035 0.00349834 -1.72298e-16)
(0.999983 -6.1124e-05 -1.51259e-17)
(0.999965 -0.00013531 -5.03432e-17)
(0.999933 -0.000218395 1.90579e-17)
(0.999897 -0.000317938 -1.99889e-17)
(0.999865 -0.00043452 -4.29847e-16)
(0.999852 -0.00055454 2.40333e-16)
(0.999872 -0.000658354 6.1869e-16)
(0.999936 -0.000723444 3.12363e-16)
(1.00005 -0.000734503 6.84199e-16)
(1.00019 -0.000658014 -3.5677e-16)
(1.00038 -0.000487933 -4.19757e-16)
(1.00054 -0.000132253 -7.57745e-16)
(1.00103 0.000398468 -2.08338e-16)
(1.00068 0.00116815 -3.01577e-16)
(1.00328 0.00310749 -1.73117e-16)
(0.999977 -6.90811e-05 3.81148e-17)
(0.999962 -0.000155082 5.9857e-17)
(0.999934 -0.000249834 -3.59056e-17)
(0.999906 -0.000359971 1.16533e-16)
(0.999883 -0.000483783 1.33837e-16)
(0.999878 -0.000608394 -7.32968e-16)
(0.999907 -0.000715779 6.65956e-17)
(0.999978 -0.000783867 -4.05251e-16)
(1.00009 -0.00079708 -8.13922e-16)
(1.00025 -0.000721379 -2.82364e-16)
(1.00045 -0.000551579 5.41635e-16)
(1.00061 -0.000200971 7.28574e-16)
(1.00113 0.000339423 2.58135e-16)
(1.00094 0.0010645 2.77987e-16)
(1.0032 0.00281003 -2.47124e-16)
(0.999971 -7.69063e-05 -2.38005e-17)
(0.999958 -0.000175139 -1.41244e-16)
(0.999934 -0.000281954 1.97563e-17)
(0.999913 -0.000402858 -5.93126e-17)
(0.999899 -0.000533754 3.6373e-16)
(0.999904 -0.000662206 3.08792e-16)
(0.999942 -0.000772085 -7.93569e-16)
(1.00002 -0.000842018 4.47155e-16)
(1.00015 -0.000856126 -1.86381e-16)
(1.00031 -0.000779568 7.3492e-16)
(1.00052 -0.000606999 -8.76269e-16)
(1.00069 -0.000257287 -3.20852e-16)
(1.00121 0.000297607 9.39654e-18)
(1.00118 0.000994157 7.20433e-16)
(1.0032 0.00259541 -4.58709e-16)
(0.999964 -8.46578e-05 -3.21236e-17)
(0.999953 -0.000195444 1.29694e-16)
(0.999933 -0.000314602 -4.31548e-17)
(0.999918 -0.000446447 -2.80346e-16)
(0.999914 -0.000584538 -2.11945e-16)
(0.999929 -0.000716364 1.60216e-16)
(0.999978 -0.000827541 2.56377e-16)
(1.00007 -0.000897422 -8.18523e-16)
(1.0002 -0.000910044 2.50509e-16)
(1.00037 -0.000829859 -9.5449e-16)
(1.0006 -0.000651011 -3.17041e-16)
(1.00078 -0.00029858 -3.17545e-16)
(1.0013 0.00027152 -5.52565e-16)
(1.00139 0.000947317 -3.83301e-16)
(1.00323 0.00241493 4.03211e-16)
(0.999956 -9.24012e-05 2.27236e-17)
(0.999947 -0.000215932 -1.13002e-16)
(0.99993 -0.000347457 2.33448e-16)
(0.999922 -0.000490201 1.97845e-16)
(0.999927 -0.000635631 3.2163e-16)
(0.999954 -0.000770718 2.60643e-16)
(1.00001 -0.000882436 2.81646e-16)
(1.00011 -0.000950789 6.17319e-16)
(1.00026 -0.000960089 4.85394e-16)
(1.00044 -0.000874534 1.04775e-15)
(1.00068 -0.000687863 9.53873e-16)
(1.00087 -0.000332172 3.26492e-16)
(1.00139 0.000249332 5.97024e-16)
(1.00158 0.000905621 6.94045e-16)
(1.00326 0.00224704 -2.10713e-16)
(0.999946 -0.000100198 1.13943e-17)
(0.999941 -0.00023656 3.85134e-17)
(0.999928 -0.000380323 -1.99754e-16)
(0.999925 -0.000533831 -1.07082e-16)
(0.999939 -0.000686939 -4.18394e-16)
(0.999976 -0.000825834 -2.67179e-16)
(1.00005 -0.000938337 -3.82407e-16)
(1.00016 -0.0010049 -5.06388e-16)
(1.00032 -0.00101037 -4.03843e-16)
(1.00051 -0.000919158 1.70989e-16)
(1.00076 -0.000724794 -3.81347e-16)
(1.00096 -0.000366844 -9.73197e-17)
(1.00148 0.000221445 -2.61997e-16)
(1.00174 0.000858918 -8.72406e-16)
(1.0033 0.00208714 6.82592e-16)
(0.999936 -0.000108111 -4.525e-17)
(0.999934 -0.000257309 3.1448e-17)
(0.999925 -0.000413079 -7.79735e-17)
(0.999928 -0.000577136 4.46473e-17)
(0.999949 -0.000738303 1.66723e-16)
(0.999997 -0.000881934 -4.85952e-16)
(1.00008 -0.00099617 -6.46102e-17)
(1.00021 -0.0010616 3.11253e-16)
(1.00037 -0.00106364 6.36613e-17)
(1.00058 -0.000967311 -6.77904e-16)
(1.00084 -0.000765961 8.77615e-16)
(1.00105 -0.000406699 -7.38341e-17)
(1.00156 0.000185029 -4.27235e-17)
(1.00189 0.000805898 -3.44763e-16)
(1.00333 0.00193563 -6.06668e-16)
(0.999925 -0.000116189 4.73005e-17)
(0.999927 -0.000278162 -7.80864e-17)
(0.999922 -0.000445616 1.04092e-16)
(0.999931 -0.000619837 1.39551e-16)
(0.99996 -0.000789193 5.89889e-17)
(1.00002 -0.000938322 2.41841e-16)
(1.00011 -0.00105526 6.34605e-16)
(1.00025 -0.00112039 3.37112e-16)
(1.00043 -0.00111962 -9.55183e-17)
(1.00064 -0.00101881 4.70462e-16)
(1.00092 -0.000811102 -5.55306e-16)
(1.00114 -0.000451004 6.90206e-16)
(1.00164 0.000142016 -1.81332e-16)
(1.00202 0.000748931 9.88774e-16)
(1.00337 0.0017932 2.37623e-16)
(0.999914 -0.00012448 -7.23944e-18)
(0.999919 -0.000299119 5.43132e-17)
(0.999919 -0.000477888 4.09353e-17)
(0.999935 -0.000661738 3.39425e-17)
(0.999971 -0.000839055 -2.44116e-16)
(1.00004 -0.000993999 -2.75248e-16)
(1.00014 -0.00111424 1.22781e-16)
(1.00029 -0.00117969 -2.69066e-16)
(1.00048 -0.00117658 3.11097e-16)
(1.00071 -0.0010718 -3.49087e-16)
(1.001 -0.000858275 2.99744e-16)
(1.00124 -0.000497647 -6.98915e-16)
(1.00173 9.49285e-05 9.10557e-16)
(1.00214 0.000689776 -1.44927e-15)
(1.0034 0.00165896 2.50715e-16)
(0.999901 -0.000133022 -2.13585e-17)
(0.99991 -0.000320205 4.96364e-17)
(0.999916 -0.000509954 -8.96431e-17)
(0.999939 -0.000702889 2.24737e-17)
(0.999983 -0.000887728 7.34752e-17)
(1.00006 -0.00104844 4.27627e-16)
(1.00017 -0.00117227 -1.78149e-16)
(1.00033 -0.00123845 -2.15877e-17)
(1.00054 -0.00123341 -2.42082e-16)
(1.00077 -0.0011252 1.01773e-16)
(1.00107 -0.000906504 -1.34932e-16)
(1.00133 -0.000545797 5.90482e-16)
(1.00182 4.45965e-05 -1.03456e-15)
(1.00226 0.000628407 6.12686e-16)
(1.00344 0.00153122 -2.03073e-16)
(0.999888 -0.000141844 2.39285e-17)
(0.9999 -0.00034146 -2.53306e-17)
(0.999913 -0.00054197 -1.43453e-16)
(0.999944 -0.000743599 -8.83944e-17)
(0.999996 -0.000935536 -1.79833e-16)
(1.00008 -0.00110186 -8.24652e-17)
(1.00021 -0.00122939 1.49348e-16)
(1.00038 -0.0012967 9.42372e-17)
(1.00059 -0.00129025 -1.60389e-16)
(1.00084 -0.00117932 -4.28075e-16)
(1.00115 -0.000956309 -4.25145e-16)
(1.00142 -0.000596107 -3.52816e-16)
(1.00191 -9.41356e-06 6.8297e-16)
(1.00238 0.000564301 -5.07101e-16)
(1.00348 0.00140926 6.67102e-16)
(0.999874 -0.000150963 -1.07487e-18)
(0.99989 -0.000362919 -1.01273e-18)
(0.999909 -0.000574118 5.49693e-17)
(0.999948 -0.000784294 5.20301e-17)
(1.00001 -0.000983081 1.01804e-16)
(1.0001 -0.00115487 1.50038e-16)
(1.00024 -0.00128625 -4.4334e-16)
(1.00042 -0.00135511 2.45426e-16)
(1.00065 -0.00134788 8.64378e-16)
(1.0009 -0.00123502 5.19135e-17)
(1.00122 -0.00100859 -3.30885e-17)
(1.00151 -0.000649314 3.29036e-16)
(1.002 -6.71787e-05 -1.45665e-15)
(1.00249 0.000497988 1.3887e-15)
(1.00353 0.00129398 -2.85875e-16)
(0.999859 -0.000160388 -3.66953e-17)
(0.999878 -0.000384604 6.28487e-17)
(0.999904 -0.000606555 1.03321e-16)
(0.99995 -0.000825373 -2.81749e-16)
(1.00002 -0.00103099 -4.10597e-17)
(1.00013 -0.00120821 -5.14069e-16)
(1.00027 -0.0013435 3.62143e-16)
(1.00046 -0.00141427 -3.93716e-16)
(1.0007 -0.00140682 -4.13532e-16)
(1.00097 -0.00129271 4.57513e-16)
(1.0013 -0.00106348 3.18969e-16)
(1.0016 -0.000705092 -2.8457e-16)
(1.00209 -0.000127493 1.78143e-15)
(1.0026 0.000431357 -3.17964e-16)
(1.00359 0.00118692 -4.00738e-16)
(0.999844 -0.000170118 2.77047e-17)
(0.999865 -0.000406513 2.58827e-17)
(0.999896 -0.000639369 6.39228e-18)
(0.999951 -0.000867104 1.21312e-16)
(1.00003 -0.00107971 2.50443e-16)
(1.00015 -0.00126236 5.00803e-16)
(1.0003 -0.00140156 -4.12057e-16)
(1.00051 -0.00147437 3.37782e-16)
(1.00075 -0.00146698 3.30685e-16)
(1.00103 -0.00135194 1.13014e-16)
(1.00137 -0.00112011 -1.56185e-17)
(1.00169 -0.000762036 -1.9e-16)
(1.00218 -0.000188307 -1.42221e-15)
(1.00271 0.000366597 -7.39357e-17)
(1.00366 0.00108904 -1.06346e-16)
(0.999828 -0.000180148 -2.545e-17)
(0.999851 -0.00042863 -8.67408e-17)
(0.999887 -0.00067258 -1.27388e-16)
(0.999949 -0.000909604 8.9466e-17)
(1.00004 -0.00112949 -2.07496e-16)
(1.00016 -0.00131762 -9.04777e-17)
(1.00033 -0.00146057 -2.5626e-16)
(1.00055 -0.00153528 -7.17476e-16)
(1.00081 -0.00152786 -3.83469e-16)
(1.00109 -0.00141179 -1.07451e-16)
(1.00145 -0.00117713 -6.82748e-18)
(1.00178 -0.000818515 2.51029e-16)
(1.00227 -0.000247814 4.1748e-16)
(1.00282 0.000305018 -4.99788e-16)
(1.00373 0.000999757 -2.77567e-17)
(0.999811 -0.00019047 7.10718e-17)
(0.999836 -0.000450932 5.69375e-17)
(0.999877 -0.000706147 1.48367e-16)
(0.999946 -0.000952847 -1.81268e-16)
(1.00005 -0.00118037 -6.83895e-17)
(1.00018 -0.00137406 4.47965e-16)
(1.00036 -0.00152054 -3.24215e-17)
(1.00059 -0.00159679 -1.57785e-16)
(1.00086 -0.00158897 3.60294e-16)
(1.00116 -0.00147149 7.98624e-17)
(1.00152 -0.00123359 -5.28447e-16)
(1.00187 -0.000873569 -1.58736e-16)
(1.00237 -0.000305296 -6.85434e-16)
(1.00293 0.000246524 -2.1856e-16)
(1.0038 0.000917387 -2.89948e-16)
(0.999793 -0.00020108 -6.24136e-17)
(0.99982 -0.000473398 -1.6237e-17)
(0.999865 -0.000739998 -5.22018e-17)
(0.99994 -0.000996715 2.58094e-16)
(1.00005 -0.00123226 1.40914e-16)
(1.0002 -0.00143164 -3.9742e-16)
(1.00039 -0.00158146 5.57602e-16)
(1.00063 -0.00165885 2.93736e-16)
(1.00091 -0.00165016 -8.9329e-16)
(1.00122 -0.0015308 -7.73127e-16)
(1.0016 -0.00128928 4.84043e-16)
(1.00196 -0.000927231 1.2566e-17)
(1.00247 -0.000361163 1.80897e-15)
(1.00303 0.000190025 5.15336e-16)
(1.00388 0.000839801 7.72093e-16)
(0.999774 -0.00021197 4.24793e-17)
(0.999803 -0.000496014 -7.03595e-17)
(0.999852 -0.000774051 1.639e-16)
(0.999934 -0.00104103 -2.61574e-16)
(1.00005 -0.00128496 -2.19195e-16)
(1.00021 -0.00149024 3.48437e-16)
(1.00042 -0.00164332 9.17483e-17)
(1.00067 -0.00172156 4.41705e-16)
(1.00096 -0.00171161 7.96787e-16)
(1.00128 -0.00159001 1.5009e-16)
(1.00167 -0.00134465 -2.05916e-16)
(1.00205 -0.00098024 2.92349e-16)
(1.00256 -0.000416424 -1.55514e-15)
(1.00314 0.000134181 3.71768e-16)
(1.00396 0.000765389 -3.54747e-16)
(0.999755 -0.000223134 1.48831e-17)
(0.999785 -0.000518779 7.84005e-17)
(0.999839 -0.000808237 -3.2565e-17)
(0.999927 -0.00108562 -3.00144e-19)
(1.00005 -0.00133819 -1.32984e-17)
(1.00023 -0.00154962 -4.58591e-16)
(1.00044 -0.00170603 -4.70613e-16)
(1.0007 -0.00178502 -5.99978e-18)
(1.00101 -0.00177363 -5.38808e-16)
(1.00135 -0.00164958 4.23124e-16)
(1.00175 -0.00140037 4.01384e-16)
(1.00214 -0.00103349 -6.36356e-16)
(1.00266 -0.000472052 1.11974e-15)
(1.00325 7.79941e-05 -1.08326e-15)
(1.00405 0.000693265 -1.40842e-16)
(0.999735 -0.000234565 -4.55018e-17)
(0.999767 -0.000541705 -4.98955e-17)
(0.999826 -0.000842511 1.34779e-16)
(0.99992 -0.0011303 -5.44434e-17)
(1.00006 -0.00139166 3.54141e-16)
(1.00024 -0.00160946 -7.59389e-17)
(1.00047 -0.00176938 1.05602e-16)
(1.00074 -0.00184919 -6.99005e-18)
(1.00106 -0.00183637 1.88137e-16)
(1.00141 -0.00170989 -1.8035e-16)
(1.00182 -0.00145697 -4.45603e-16)
(1.00223 -0.00108763 4.56919e-16)
(1.00276 -0.000528647 -3.3164e-16)
(1.00335 2.09636e-05 8.30804e-16)
(1.00413 0.000622929 3.51337e-16)
(0.999714 -0.000246253 -1.31644e-17)
(0.999748 -0.000564814 -7.24185e-18)
(0.999812 -0.000876869 -1.88716e-16)
(0.999913 -0.00117495 2.08e-16)
(1.00006 -0.00144511 -8.78874e-17)
(1.00025 -0.00166941 2.61083e-16)
(1.00049 -0.00183303 6.94315e-17)
(1.00078 -0.00191388 3.11066e-16)
(1.00112 -0.0018998 -4.57921e-16)
(1.00148 -0.00177104 3.30207e-16)
(1.0019 -0.00151468 -2.14162e-16)
(1.00232 -0.00114294 -4.73339e-16)
(1.00285 -0.000586435 4.15634e-16)
(1.00346 -3.7057e-05 5.70381e-16)
(1.00421 0.000554062 -1.35122e-16)
(0.999693 -0.000258186 7.877e-19)
(0.999728 -0.000588131 1.06343e-16)
(0.999798 -0.000911335 -9.86309e-17)
(0.999907 -0.00121953 -6.7119e-17)
(1.00006 -0.00149835 -1.99746e-16)
(1.00026 -0.00172915 -4.93275e-17)
(1.00052 -0.00189663 -2.35826e-16)
(1.00082 -0.00197879 -6.45555e-16)
(1.00117 -0.00196373 4.31038e-16)
(1.00154 -0.00183296 -2.64607e-16)
(1.00197 -0.0015735 5.93296e-16)
(1.00241 -0.00119952 2.10076e-16)
(1.00295 -0.000645456 -5.02573e-16)
(1.00356 -9.61e-05 -1.0762e-15)
(1.0043 0.000486468 -2.32757e-16)
(0.999671 -0.000270347 2.55566e-18)
(0.999708 -0.000611683 -1.42531e-16)
(0.999783 -0.000945972 4.71633e-17)
(0.9999 -0.00126409 2.37138e-16)
(1.00006 -0.00155133 6.81219e-17)
(1.00028 -0.00178853 -2.08578e-16)
(1.00054 -0.00195997 2.59594e-16)
(1.00085 -0.0020437 -4.8975e-17)
(1.00122 -0.00202802 -9.52102e-17)
(1.0016 -0.00189559 -1.29721e-16)
(1.00205 -0.00163342 -2.36322e-16)
(1.0025 -0.00125739 2.2823e-16)
(1.00305 -0.000705729 1.65518e-16)
(1.00366 -0.000156165 2.1088e-16)
(1.00439 0.000420179 4.0655e-16)
(0.999647 -0.000282712 1.22807e-18)
(0.999687 -0.00063549 1.012e-16)
(0.999769 -0.000980858 2.52535e-17)
(0.999893 -0.00130873 -3.94623e-16)
(1.00007 -0.00160415 1.16597e-16)
(1.00029 -0.00184758 2.51278e-16)
(1.00057 -0.00202302 1.02232e-16)
(1.00089 -0.00210857 -1.7359e-19)
(1.00127 -0.00209265 1.67745e-16)
(1.00167 -0.00195894 -3.95764e-17)
(1.00213 -0.00169451 -2.36615e-16)
(1.00259 -0.00131664 1.72399e-16)
(1.00314 -0.000767281 8.77841e-17)
(1.00377 -0.000217204 2.23772e-16)
(1.00448 0.000355147 -3.49113e-16)
(0.999623 -0.000295251 2.9802e-17)
(0.999665 -0.00065956 -1.07829e-16)
(0.999753 -0.00101607 -1.70512e-16)
(0.999886 -0.00135362 2.74579e-16)
(1.00007 -0.00165702 -7.03139e-17)
(1.0003 -0.00190652 2.24348e-17)
(1.00059 -0.00208596 2.19097e-17)
(1.00093 -0.00217357 2.57857e-17)
(1.00132 -0.00215777 1.50832e-16)
(1.00173 -0.00202318 2.27017e-17)
(1.0022 -0.0017569 1.6677e-16)
(1.00268 -0.00137734 -4.69654e-16)
(1.00324 -0.000830063 -4.91433e-16)
(1.00387 -0.000279009 -3.65311e-16)
(1.00457 0.000291599 2.93387e-16)
(0.999598 -0.000307928 -4.18185e-17)
(0.999642 -0.000683883 8.65999e-17)
(0.999736 -0.00105167 1.47726e-16)
(0.999878 -0.00139893 4.89256e-17)
(1.00007 -0.00171021 4.11113e-17)
(1.00032 -0.00196566 -2.60496e-16)
(1.00062 -0.00214913 -1.36143e-16)
(1.00097 -0.002239 3.12487e-16)
(1.00137 -0.00222365 -1.39931e-16)
(1.00179 -0.0020885 3.67767e-17)
(1.00228 -0.00182067 3.00342e-16)
(1.00277 -0.00143946 7.36822e-18)
(1.00334 -0.000893882 4.95595e-16)
(1.00397 -0.000341224 9.87958e-17)
(1.00466 0.000229758 -3.14626e-16)
(0.999573 -0.000320699 4.29594e-17)
(0.999618 -0.000708433 -6.54297e-17)
(0.999718 -0.00108768 2.42227e-17)
(0.999868 -0.00144478 -2.6244e-16)
(1.00007 -0.00176398 -6.07354e-17)
(1.00033 -0.00202536 3.53877e-16)
(1.00064 -0.0022129 -1.50547e-16)
(1.001 -0.0023052 -2.71352e-16)
(1.00142 -0.00229055 -6.76217e-17)
(1.00186 -0.00215505 6.43087e-17)
(1.00235 -0.00188583 -9.00105e-17)
(1.00286 -0.00150283 -8.66892e-17)
(1.00343 -0.000958392 -1.35981e-17)
(1.00407 -0.000403381 3.94324e-16)
(1.00475 0.000169863 3.68371e-16)
(0.999546 -0.000333519 -1.76193e-17)
(0.999593 -0.000733172 7.2013e-17)
(0.999698 -0.0011241 1.20468e-16)
(0.999856 -0.00149124 -1.29547e-16)
(1.00007 -0.0018185 1.45036e-17)
(1.00034 -0.00208589 -1.96661e-16)
(1.00066 -0.00227759 4.13116e-16)
(1.00104 -0.00237245 1.21203e-16)
(1.00147 -0.00235863 -5.3532e-17)
(1.00192 -0.00222286 8.86541e-17)
(1.00243 -0.00195224 -3.14649e-16)
(1.00295 -0.00156716 2.61716e-16)
(1.00353 -0.0010232 4.01323e-17)
(1.00418 -0.000465081 -2.99906e-16)
(1.00484 0.000111926 -1.46472e-16)
(0.999518 -0.000346339 3.16203e-17)
(0.999566 -0.000758047 -7.34142e-17)
(0.999677 -0.00116085 -7.28384e-18)
(0.999843 -0.00153829 2.74905e-16)
(1.00007 -0.00187385 -2.68817e-16)
(1.00035 -0.00214743 -4.44313e-17)
(1.00069 -0.00234341 -4.2574e-16)
(1.00107 -0.0024409 -7.50154e-17)
(1.00151 -0.00242797 -1.83479e-16)
(1.00198 -0.00229185 1.60852e-16)
(1.0025 -0.00201968 5.06392e-16)
(1.00303 -0.00163215 -4.79938e-17)
(1.00363 -0.00108798 -5.07223e-16)
(1.00428 -0.000526098 -1.2922e-17)
(1.00494 5.58238e-05 -8.61055e-17)
(0.999489 -0.000359114 -1.85461e-17)
(0.999539 -0.000783005 7.1948e-17)
(0.999655 -0.00119787 -2.1586e-16)
(0.999828 -0.00158585 -2.0232e-16)
(1.00006 -0.00192998 2.32683e-16)
(1.00035 -0.00220998 1.71543e-17)
(1.00071 -0.00241038 2.02527e-16)
(1.00111 -0.00251057 3.34771e-16)
(1.00156 -0.0024985 6.96437e-16)
(1.00204 -0.00236189 -5.03323e-16)
(1.00258 -0.00208793 -6.28715e-16)
(1.00312 -0.00169754 2.42496e-16)
(1.00372 -0.00115258 2.79597e-16)
(1.00438 -0.000586444 -3.99207e-16)
(1.00504 1.10975e-06 -1.23088e-16)
(0.999459 -0.000371802 1.97556e-18)
(0.99951 -0.000807993 -5.14592e-17)
(0.999631 -0.00123505 5.43436e-17)
(0.999811 -0.00163378 2.77166e-16)
(1.00005 -0.00198675 2.10403e-16)
(1.00036 -0.00227345 1.08157e-16)
(1.00072 -0.00247845 5.36479e-17)
(1.00114 -0.00258139 -3.44149e-16)
(1.00161 -0.00257012 -5.46402e-16)
(1.00211 -0.00243282 3.27983e-16)
(1.00265 -0.00215685 5.12874e-16)
(1.00321 -0.00176327 -4.50436e-16)
(1.00382 -0.00121702 -3.17465e-16)
(1.00449 -0.000646326 4.56202e-17)
(1.00513 -5.28751e-05 -1.16127e-16)
(0.999428 -0.000384366 -4.45402e-17)
(0.999481 -0.000832968 -4.24745e-17)
(0.999606 -0.0012723 1.05106e-16)
(0.999794 -0.00168192 -7.14107e-17)
(1.00005 -0.00204398 -2.19796e-16)
(1.00036 -0.00233763 -4.36077e-18)
(1.00074 -0.00254742 2.21941e-16)
(1.00117 -0.0026532 -1.34078e-16)
(1.00165 -0.00264268 2.9626e-16)
(1.00217 -0.00250455 -1.79221e-16)
(1.00273 -0.00222638 -2.51597e-16)
(1.0033 -0.00182938 3.87242e-16)
(1.00392 -0.00128152 5.25637e-16)
(1.00459 -0.000706107 2.11253e-17)
(1.00523 -0.000106638 1.73409e-16)
(0.999396 -0.000396778 4.27174e-17)
(0.99945 -0.000857898 8.3961e-17)
(0.99958 -0.00130953 2.43079e-17)
(0.999775 -0.00173011 1.63623e-16)
(1.00004 -0.00210144 -4.08204e-18)
(1.00037 -0.00240229 7.14139e-17)
(1.00076 -0.00261709 2.53295e-18)
(1.0012 -0.00272581 1.06911e-16)
(1.0017 -0.00271606 -1.6481e-16)
(1.00223 -0.00257703 -1.63547e-17)
(1.0028 -0.00229658 2.41869e-16)
(1.00339 -0.00189607 4.25628e-17)
(1.00402 -0.00134639 -2.30666e-16)
(1.00469 -0.000766171 4.49813e-16)
(1.00533 -0.000160565 9.64073e-17)
(0.999362 -0.000409018 -7.17877e-18)
(0.999419 -0.000882765 -1.25064e-17)
(0.999554 -0.0013467 -1.78672e-16)
(0.999756 -0.00177826 -2.28693e-16)
(1.00003 -0.00215897 3.45046e-17)
(1.00037 -0.00246722 -2.17452e-16)
(1.00077 -0.00268724 -4.79249e-16)
(1.00123 -0.00279906 2.4501e-16)
(1.00175 -0.00279018 1.72575e-16)
(1.00229 -0.00265027 -2.47273e-16)
(1.00288 -0.00236758 -4.45019e-16)
(1.00348 -0.00196358 -6.30985e-17)
(1.00412 -0.00141193 3.23195e-16)
(1.0048 -0.000826835 2.47753e-16)
(1.00543 -0.000214856 -1.11137e-16)
(0.999328 -0.000421072 -9.74112e-18)
(0.999387 -0.000907565 4.31535e-17)
(0.999527 -0.00138378 -1.95562e-17)
(0.999737 -0.0018263 -8.52677e-17)
(1.00002 -0.00221646 -4.39124e-17)
(1.00037 -0.00253228 2.95141e-16)
(1.00079 -0.00275772 1.38416e-16)
(1.00126 -0.00287284 -2.35449e-16)
(1.00179 -0.00286499 -4.98749e-16)
(1.00235 -0.00272433 3.31399e-16)
(1.00296 -0.00243954 -8.05512e-17)
(1.00357 -0.00203212 -3.68267e-16)
(1.00422 -0.00147836 -2.86255e-16)
(1.0049 -0.000888266 1.22251e-16)
(1.00553 -0.000269703 6.63511e-17)
(0.999292 -0.000432934 4.32738e-19)
(0.999354 -0.000932305 -5.6028e-17)
(0.999499 -0.0014208 7.52555e-17)
(0.999717 -0.00187425 2.16001e-16)
(1.00001 -0.00227389 1.34313e-16)
(1.00037 -0.0025974 -9.18226e-17)
(1.00081 -0.00282846 -2.19142e-16)
(1.0013 -0.00294711 -1.0732e-17)
(1.00184 -0.00294053 3.15201e-16)
(1.00242 -0.00279932 1.8191e-16)
(1.00303 -0.0025126 7.82857e-17)
(1.00366 -0.00210185 5.35489e-16)
(1.00432 -0.00154582 -3.34437e-16)
(1.00501 -0.000950504 -7.64961e-16)
(1.00563 -0.000324894 -1.24601e-16)
(0.999254 -0.000444601 1.85537e-17)
(0.99932 -0.000957 -8.51546e-17)
(0.999471 -0.00145781 -4.42982e-19)
(0.999697 -0.00192218 1.56478e-16)
(0.999999 -0.00233133 -2.60061e-16)
(1.00037 -0.00266265 -2.99895e-16)
(1.00082 -0.00289952 3.11601e-16)
(1.00133 -0.00302192 3.98661e-17)
(1.00189 -0.00301688 1.37166e-16)
(1.00248 -0.00287534 -2.85955e-16)
(1.00311 -0.00258687 2.61847e-16)
(1.00375 -0.00217285 5.69273e-17)
(1.00442 -0.00161429 6.66945e-16)
(1.00511 -0.00101343 4.15673e-16)
(1.00573 -0.000380232 2.625e-16)
(0.999216 -0.000456074 -9.1671e-18)
(0.999285 -0.000981666 1.13273e-16)
(0.999442 -0.00149486 8.89606e-17)
(0.999676 -0.00197019 -1.30803e-16)
(0.999988 -0.00238892 9.20078e-17)
(1.00038 -0.00272816 -2.07035e-17)
(1.00084 -0.00297101 2.69095e-17)
(1.00136 -0.00309739 -7.74771e-18)
(1.00193 -0.00309413 9.78299e-17)
(1.00254 -0.00295247 4.15738e-16)
(1.00319 -0.00266239 5.94458e-17)
(1.00384 -0.0022451 -3.69635e-16)
(1.00452 -0.00168368 -1.84591e-16)
(1.00522 -0.00107687 2.72477e-16)
(1.00583 -0.000435422 -3.0776e-16)
(0.999176 -0.000467356 -2.8093e-17)
(0.999249 -0.00100632 -4.53384e-17)
(0.999412 -0.00153201 -2.56099e-17)
(0.999654 -0.00201843 -2.9669e-16)
(0.999977 -0.00244685 2.32521e-16)
(1.00038 -0.00279414 1.19501e-16)
(1.00085 -0.00304314 -4.52289e-17)
(1.00139 -0.0031737 4.45699e-17)
(1.00198 -0.00317243 -2.95643e-16)
(1.0026 -0.00303081 -8.7731e-17)
(1.00326 -0.00273918 -5.67183e-16)
(1.00393 -0.00231853 1.99362e-16)
(1.00462 -0.00175384 -8.5212e-17)
(1.00532 -0.00114065 -8.04246e-16)
(1.00594 -0.000490253 4.75351e-16)
(0.999134 -0.000478452 3.10086e-17)
(0.999212 -0.00103098 -1.06217e-16)
(0.99938 -0.00156934 9.05969e-17)
(0.999631 -0.00206702 7.14705e-17)
(0.999965 -0.0025053 -1.80471e-16)
(1.00038 -0.0028608 2.64658e-16)
(1.00087 -0.00311612 1.62529e-16)
(1.00142 -0.00325102 -1.04138e-16)
(1.00202 -0.0032519 -2.56189e-16)
(1.00266 -0.00311041 1.01645e-17)
(1.00334 -0.00281721 6.03859e-16)
(1.00402 -0.00239303 5.72913e-18)
(1.00472 -0.00182462 1.12286e-16)
(1.00543 -0.00120463 8.29661e-16)
(1.00604 -0.000544626 -5.89222e-16)
(0.999092 -0.000489366 6.64571e-18)
(0.999173 -0.00105564 7.58753e-17)
(0.999347 -0.00160687 -1.16561e-16)
(0.999606 -0.00211605 1.40886e-16)
(0.999951 -0.00256443 1.68671e-16)
(1.00038 -0.00292835 -4.53522e-16)
(1.00088 -0.00319015 -2.91066e-16)
(1.00144 -0.00332953 4.34483e-16)
(1.00207 -0.00333266 7.54022e-17)
(1.00272 -0.00319131 -6.03925e-16)
(1.00341 -0.00289644 1.49978e-16)
(1.00411 -0.0024685 -1.36381e-16)
(1.00482 -0.00189592 -1.04225e-16)
(1.00553 -0.0012688 -9.75117e-16)
(1.00615 -0.000598734 2.17049e-16)
(0.999048 -0.000500108 -2.32546e-17)
(0.999133 -0.00108032 1.51232e-16)
(0.999313 -0.00164463 -3.52787e-17)
(0.99958 -0.0021656 -1.86022e-16)
(0.999936 -0.00262434 -1.04619e-16)
(1.00037 -0.00299692 4.23942e-16)
(1.00089 -0.00326538 8.70869e-17)
(1.00147 -0.00340935 -3.53095e-16)
(1.00211 -0.00341477 1.75472e-16)
(1.00278 -0.00327351 5.42129e-16)
(1.00349 -0.00297682 -1.27194e-16)
(1.0042 -0.00254488 2.20828e-17)
(1.00492 -0.00196769 1.43049e-16)
(1.00564 -0.00133313 5.42638e-16)
(1.00625 -0.000652627 9.03298e-17)
(0.999002 -0.000510686 1.95329e-17)
(0.999092 -0.00110501 -1.93891e-16)
(0.999277 -0.00168263 -2.59677e-17)
(0.999553 -0.00221567 2.71075e-16)
(0.999919 -0.00268508 1.77739e-16)
(1.00037 -0.00306658 3.99847e-17)
(1.0009 -0.00334187 -1.90722e-16)
(1.0015 -0.00349053 -1.34483e-16)
(1.00216 -0.00349826 -2.29644e-16)
(1.00285 -0.00335701 5.6242e-17)
(1.00357 -0.00305833 -3.2213e-16)
(1.00429 -0.00262214 -6.01117e-17)
(1.00502 -0.00203992 -1.91769e-16)
(1.00575 -0.00139757 3.56592e-16)
(1.00636 -0.0007062 -1.9359e-16)
(0.998956 -0.000521116 -1.2929e-17)
(0.99905 -0.00112971 2.76992e-17)
(0.999241 -0.00172085 1.11189e-16)
(0.999524 -0.00226623 -4.22211e-16)
(0.999901 -0.00274662 -3.29939e-16)
(1.00037 -0.00313729 -3.36175e-16)
(1.00091 -0.00341962 4.03771e-16)
(1.00153 -0.00357305 2.42106e-16)
(1.0022 -0.00358311 2.37006e-16)
(1.00291 -0.00344177 2.58523e-16)
(1.00364 -0.00314093 -1.72492e-17)
(1.00438 -0.00270026 2.1107e-16)
(1.00512 -0.00211268 2.09183e-16)
(1.00586 -0.00146212 -1.27301e-16)
(1.00647 -0.000759501 4.3577e-17)
(0.998908 -0.000531415 3.406e-17)
(0.999006 -0.00115443 1.27916e-16)
(0.999202 -0.00175928 -2.59613e-17)
(0.999494 -0.00231726 2.60583e-16)
(0.999882 -0.00280889 -3.3721e-17)
(1.00036 -0.003209 -1.2906e-16)
(1.00092 -0.00349854 1.16189e-18)
(1.00155 -0.00365685 1.8955e-16)
(1.00224 -0.00366924 -9.76725e-17)
(1.00297 -0.00352774 -8.59518e-16)
(1.00372 -0.0032246 4.33752e-16)
(1.00448 -0.00277927 7.53963e-17)
(1.00522 -0.00218603 1.3676e-18)
(1.00597 -0.00152694 1.88779e-17)
(1.00658 -0.000812622 9.57227e-17)
(0.998859 -0.000541604 -4.64401e-17)
(0.998962 -0.00117917 -1.23083e-17)
(0.999163 -0.00179789 1.40312e-18)
(0.999463 -0.0023687 4.47084e-17)
(0.999861 -0.00287181 9.25738e-17)
(1.00035 -0.00328158 5.30787e-16)
(1.00093 -0.00357852 -4.40809e-16)
(1.00158 -0.00374182 -1.66873e-16)
(1.00228 -0.00375656 2.82377e-16)
(1.00303 -0.00361487 3.5009e-16)
(1.0038 -0.00330932 -4.35896e-16)
(1.00457 -0.00285918 -4.10634e-16)
(1.00532 -0.00226002 -5.06103e-16)
(1.00607 -0.00159208 7.82892e-17)
(1.00669 -0.00086569 2.7102e-16)
(0.998809 -0.00055171 -5.23244e-18)
(0.998916 -0.00120395 -5.94111e-17)
(0.999123 -0.0018367 6.42638e-17)
(0.99943 -0.00242049 2.79523e-17)
(0.99984 -0.00293528 1.53036e-16)
(1.00034 -0.00335491 -2.86189e-16)
(1.00094 -0.00365943 5.42525e-16)
(1.0016 -0.00382783 -3.65573e-16)
(1.00233 -0.003845 -9.2116e-17)
(1.00309 -0.0037031 1.28061e-16)
(1.00387 -0.00339508 5.57405e-17)
(1.00466 -0.00294003 6.02e-17)
(1.00542 -0.00233472 6.88854e-17)
(1.00618 -0.00165753 -3.69247e-16)
(1.00681 -0.000918597 1.41697e-16)
(0.998758 -0.00056176 2.83896e-17)
(0.998869 -0.0012288 -1.41363e-17)
(0.999081 -0.00187569 -1.86125e-16)
(0.999397 -0.00247263 -6.66523e-17)
(0.999818 -0.00299926 4.61673e-17)
(1.00034 -0.00342892 -8.48352e-17)
(1.00094 -0.00374118 -3.02096e-16)
(1.00163 -0.00391481 2.94092e-16)
(1.00237 -0.00393448 1.6044e-16)
(1.00314 -0.0037924 -1.15299e-16)
(1.00395 -0.0034819 9.30864e-17)
(1.00475 -0.00302185 -3.21899e-18)
(1.00553 -0.00241019 -2.21155e-16)
(1.00629 -0.00172332 2.10683e-16)
(1.00692 -0.000971422 -3.80944e-16)
(0.998706 -0.000571786 2.73376e-17)
(0.998821 -0.00125374 7.59694e-17)
(0.999039 -0.00191491 7.41954e-17)
(0.999363 -0.00252513 -5.13411e-17)
(0.999795 -0.00306373 -2.71721e-16)
(1.00033 -0.00350356 5.07338e-17)
(1.00095 -0.00382371 1.16867e-16)
(1.00165 -0.0040027 1.64851e-16)
(1.00241 -0.00402499 -9.57889e-17)
(1.0032 -0.00388279 2.72204e-16)
(1.00402 -0.0035698 1.64087e-16)
(1.00484 -0.00310468 -2.91386e-17)
(1.00563 -0.00248647 1.0715e-17)
(1.00641 -0.0017895 1.36373e-16)
(1.00703 -0.00102402 4.30802e-17)
(0.998652 -0.000581817 -7.07032e-17)
(0.998771 -0.00127879 7.40002e-18)
(0.998995 -0.00195438 -8.89255e-17)
(0.999328 -0.00257802 1.48063e-16)
(0.999771 -0.00312871 6.17133e-17)
(1.00032 -0.00357886 5.4174e-17)
(1.00096 -0.00390704 -3.79372e-16)
(1.00167 -0.00409153 -1.35085e-17)
(1.00245 -0.00411654 2.73119e-16)
(1.00326 -0.0039743 7.49431e-17)
(1.0041 -0.00365883 -5.7077e-16)
(1.00493 -0.00318857 2.52811e-16)
(1.00573 -0.00256359 -1.76004e-16)
(1.00652 -0.00185615 -4.32445e-17)
(1.00715 -0.00107661 -1.72698e-16)
(0.998597 -0.000591885 5.03996e-17)