1.45 	0 	0 	0.0060287 	-0.0040642 	3.93759e-21
2.35 	0 	0 	0.124542 	-0.00882461 	1.82351e-21
