1.45 	0 	0 	0.468801 	-0.0210111 	1.46212e-21
2.35 	0 	0 	0.745824 	-0.00965211 	-9.97225e-22
