1.275 	2.15223e-18 	-2.76991e-20 	-0.0344131 	-0.000439047 	-1.9258e-22
1.825 	2.15223e-18 	-1.39322e-20 	-0.00937373 	-0.00276956 	1.70799e-21
2.375 	2.15223e-18 	-2.66896e-23 	0.115563 	-0.00325998 	-7.12647e-22
