1.275 	2.15223e-18 	-2.76991e-20 	-0.0340021 	-0.000441736 	-1.98776e-22
1.825 	2.15223e-18 	-1.39322e-20 	-0.00862613 	-0.00277564 	1.78569e-21
2.375 	2.15223e-18 	-2.66896e-23 	0.117686 	-0.0032874 	-7.45366e-22
