1.275 	2.15223e-18 	-2.76991e-20 	-0.0340125 	-0.000441847 	-1.98704e-22
1.825 	2.15223e-18 	-1.39322e-20 	-0.00864481 	-0.0027746 	1.78487e-21
2.375 	2.15223e-18 	-2.66896e-23 	0.117634 	-0.00328485 	-7.45032e-22
