/*--------------------------------*- C++ -*----------------------------------*\
  =========                 |
  \\      /  F ield         | OpenFOAM: The Open Source CFD Toolbox
   \\    /   O peration     | Website:  https://openfoam.org
    \\  /    A nd           | Version:  6.0
     \\/     M anipulation  |
\*---------------------------------------------------------------------------*/
FoamFile
{
    version     2.0;
    format      ascii;
    class       volScalarField;
    location    "37";
    object      p;
}
// * * * * * * * * * * * * * * * * * * * * * * * * * * * * * * * * * * * * * //

dimensions      [0 2 -2 0 0 0 0];

internalField   nonuniform List<scalar> 
34500
(
1.00515
1.00541
1.00578
1.00606
1.00588
1.00537
1.00472
1.00403
1.00336
1.00271
1.00211
1.0016
1.0011
1.0008
1.00065
1.00515
1.00543
1.00585
1.00623
1.00617
1.00577
1.0052
1.00457
1.00393
1.00327
1.00263
1.00205
1.00146
1.00112
1.00084
1.00515
1.00539
1.00577
1.00611
1.00603
1.00561
1.00501
1.00436
1.0037
1.00305
1.00241
1.00184
1.00128
1.00102
1.00072
1.00515
1.00536
1.00569
1.00599
1.00589
1.00544
1.00483
1.00416
1.00349
1.00284
1.00222
1.00167
1.00115
1.00094
1.0007
1.00515
1.00534
1.00564
1.00592
1.00582
1.0054
1.00479
1.00412
1.00345
1.0028
1.00218
1.00164
1.00112
1.00093
1.00072
1.00515
1.00532
1.0056
1.00585
1.00577
1.00537
1.00478
1.00411
1.00344
1.00278
1.00215
1.00161
1.00109
1.00091
1.00072
1.00515
1.00531
1.00555
1.00577
1.00568
1.0053
1.00472
1.00405
1.00337
1.00271
1.00208
1.00154
1.00104
1.00088
1.0007
1.00516
1.0053
1.0055
1.00567
1.00557
1.0052
1.00464
1.00398
1.00329
1.00263
1.002
1.00147
1.00098
1.00084
1.00069
1.00517
1.0053
1.00546
1.00559
1.00546
1.0051
1.00456
1.00391
1.00323
1.00256
1.00193
1.00141
1.00094
1.00081
1.00068
1.00518
1.0053
1.00544
1.00552
1.00536
1.005
1.00448
1.00386
1.00318
1.00252
1.00189
1.00137
1.00092
1.00078
1.00068
1.0052
1.00532
1.00543
1.00546
1.00528
1.00491
1.0044
1.0038
1.00315
1.00249
1.00187
1.00135
1.0009
1.00077
1.00067
1.00522
1.00534
1.00544
1.00543
1.0052
1.00482
1.00432
1.00373
1.0031
1.00246
1.00185
1.00133
1.00089
1.00075
1.00066
1.00523
1.00538
1.00547
1.00541
1.00516
1.00475
1.00424
1.00366
1.00304
1.00242
1.00182
1.00131
1.00089
1.00074
1.00065
1.00525
1.00542
1.00551
1.00543
1.00515
1.00472
1.00419
1.00361
1.003
1.00239
1.0018
1.0013
1.00089
1.00074
1.00064
1.00528
1.00546
1.00557
1.00549
1.0052
1.00475
1.00421
1.00361
1.003
1.00239
1.00181
1.00132
1.00091
1.00074
1.00064
1.00529
1.00551
1.00564
1.00556
1.00528
1.00483
1.00429
1.00369
1.00305
1.00244
1.00185
1.00135
1.00094
1.00076
1.00063
1.00531
1.00556
1.00571
1.00565
1.00537
1.00494
1.00441
1.0038
1.00316
1.00252
1.00192
1.00141
1.00098
1.00077
1.00062
1.00533
1.0056
1.00576
1.00572
1.00545
1.00503
1.00452
1.00392
1.00327
1.00262
1.002
1.00146
1.00101
1.00077
1.00059
1.00534
1.00562
1.00581
1.00576
1.00549
1.00508
1.00459
1.004
1.00335
1.00269
1.00205
1.00149
1.00102
1.00076
1.00056
1.00534
1.00564
1.00584
1.00579
1.00551
1.00509
1.0046
1.00402
1.00338
1.00272
1.00207
1.0015
1.00102
1.00074
1.00052
1.00535
1.00565
1.00587
1.00582
1.00552
1.00508
1.00457
1.004
1.00336
1.00271
1.00207
1.0015
1.00101
1.00071
1.00048
1.00535
1.00565
1.00589
1.00586
1.00555
1.00508
1.00455
1.00397
1.00334
1.00269
1.00206
1.00149
1.001
1.00069
1.00044
1.00534
1.00565
1.00591
1.00591
1.00561
1.00513
1.00458
1.00397
1.00333
1.00269
1.00206
1.00148
1.00098
1.00066
1.00038
1.00533
1.00564
1.00593
1.00598
1.00572
1.00523
1.00465
1.00402
1.00336
1.0027
1.00206
1.00147
1.00097
1.00062
1.00032
1.00532
1.00561
1.00594
1.00604
1.00583
1.00535
1.00476
1.0041
1.00342
1.00273
1.00207
1.00146
1.00093
1.00057
1.00025
1.00531
1.00558
1.00592
1.00607
1.00591
1.00547
1.00488
1.00419
1.00347
1.00276
1.00207
1.00143
1.00088
1.0005
1.00016
1.0053
1.00553
1.00587
1.00605
1.00594
1.00553
1.00495
1.00425
1.0035
1.00275
1.00203
1.00137
1.00081
1.00041
1.00007
1.00528
1.00548
1.00577
1.00595
1.00588
1.00551
1.00495
1.00424
1.00347
1.0027
1.00195
1.00128
1.00071
1.00031
0.999966
1.00527
1.00541
1.00565
1.0058
1.00573
1.00539
1.00485
1.00415
1.00338
1.0026
1.00184
1.00115
1.00059
1.0002
0.999867
1.00527
1.00535
1.00551
1.0056
1.00551
1.00519
1.00467
1.00399
1.00322
1.00244
1.00169
1.00101
1.00046
1.00009
0.999775
1.00527
1.0053
1.00537
1.00538
1.00525
1.00492
1.00442
1.00377
1.00303
1.00226
1.00153
1.00087
1.00035
0.999995
0.999693
1.00529
1.00526
1.00526
1.00517
1.00498
1.00464
1.00415
1.00353
1.00281
1.00208
1.00137
1.00074
1.00025
0.999913
0.999623
1.00531
1.00525
1.00518
1.00501
1.00475
1.00438
1.0039
1.0033
1.00262
1.00192
1.00124
1.00064
1.00017
0.999849
0.999563
1.00534
1.00527
1.00515
1.00491
1.00459
1.00418
1.0037
1.00312
1.00247
1.0018
1.00115
1.00057
1.00012
0.999803
0.999513
1.00538
1.00531
1.00517
1.00488
1.00451
1.00407
1.00358
1.00301
1.00237
1.00173
1.0011
1.00054
1.00009
0.999771
0.999468
1.00542
1.00537
1.00523
1.00492
1.00451
1.00404
1.00353
1.00297
1.00234
1.00171
1.0011
1.00054
1.00009
0.999749
0.999426
1.00546
1.00545
1.00533
1.00502
1.00459
1.0041
1.00357
1.003
1.00237
1.00174
1.00112
1.00055
1.00009
0.999731
0.999382
1.00551
1.00554
1.00546
1.00517
1.00474
1.00422
1.00368
1.00308
1.00245
1.00181
1.00117
1.00059
1.0001
0.999713
0.999335
1.00555
1.00563
1.0056
1.00534
1.00492
1.00439
1.00383
1.00321
1.00256
1.00189
1.00123
1.00062
1.0001
0.999688
0.99928
1.00559
1.00571
1.00574
1.00552
1.00512
1.00459
1.004
1.00336
1.00267
1.00198
1.00129
1.00065
1.0001
0.999656
0.999219
1.00563
1.00579
1.00587
1.00569
1.00531
1.00478
1.00417
1.0035
1.00279
1.00206
1.00134
1.00066
1.00009
0.999614
0.999149
1.00566
1.00585
1.00598
1.00584
1.00548
1.00495
1.00433
1.00364
1.00289
1.00213
1.00138
1.00066
1.00006
0.999562
0.999074
1.00568
1.00591
1.00606
1.00596
1.00562
1.00509
1.00446
1.00374
1.00296
1.00217
1.00139
1.00065
1.00002
0.9995
0.998991
1.00571
1.00594
1.00612
1.00604
1.00572
1.00519
1.00455
1.00381
1.00301
1.00219
1.00138
1.00061
0.999963
0.99943
0.998904
1.00573
1.00597
1.00616
1.00609
1.00578
1.00526
1.00461
1.00385
1.00302
1.00218
1.00135
1.00056
0.9999
0.999353
0.998813
1.00575
1.00599
1.00618
1.00611
1.0058
1.00529
1.00463
1.00386
1.00302
1.00215
1.00131
1.00051
0.999829
0.999273
0.998721
1.00578
1.006
1.00618
1.00612
1.0058
1.00528
1.00462
1.00384
1.00298
1.00211
1.00125
1.00044
0.999752
0.999189
0.998626
1.0058
1.00601
1.00618
1.0061
1.00578
1.00526
1.00459
1.0038
1.00294
1.00205
1.00118
1.00036
0.999674
0.999104
0.998532
1.00582
1.00602
1.00617
1.00608
1.00575
1.00522
1.00455
1.00375
1.00288
1.00199
1.00111
1.00029
0.999594
0.999018
0.998437
1.00584
1.00603
1.00616
1.00605
1.00571
1.00518
1.0045
1.0037
1.00282
1.00193
1.00104
1.00021
0.999515
0.998933
0.998343
1.00587
1.00604
1.00615
1.00603
1.00568
1.00513
1.00445
1.00365
1.00277
1.00186
1.00098
1.00014
0.999437
0.998848
0.998249
1.00589
1.00606
1.00615
1.00601
1.00564
1.00509
1.0044
1.00359
1.00271
1.0018
1.00091
1.00007
0.999361
0.998765
0.998156
1.00592
1.00608
1.00616
1.006
1.00562
1.00506
1.00436
1.00355
1.00266
1.00175
1.00085
1
0.999286
0.998681
0.998063
1.00595
1.0061
1.00617
1.006
1.00561
1.00503
1.00433
1.00351
1.00262
1.0017
1.00079
0.999935
0.999214
0.998599
0.99797
1.00598
1.00614
1.00619
1.00601
1.00561
1.00502
1.00431
1.00348
1.00258
1.00165
1.00074
0.999871
0.999142
0.998517
0.997877
1.00602
1.00617
1.00622
1.00603
1.00561
1.00502
1.0043
1.00346
1.00255
1.00161
1.00069
0.999811
0.999071
0.998434
0.997784
1.00605
1.00621
1.00626
1.00606
1.00563
1.00503
1.0043
1.00345
1.00253
1.00158
1.00064
0.99975
0.999
0.998351
0.99769
1.00609
1.00626
1.0063
1.00609
1.00566
1.00504
1.0043
1.00344
1.00251
1.00154
1.00059
0.999691
0.998928
0.998267
0.997595
1.00613
1.00631
1.00635
1.00613
1.00569
1.00507
1.00431
1.00344
1.00249
1.00151
1.00055
0.999632
0.998856
0.998182
0.997499
1.00617
1.00636
1.0064
1.00618
1.00573
1.00509
1.00433
1.00344
1.00248
1.00149
1.00051
0.999572
0.998782
0.998095
0.997403
1.00622
1.00641
1.00645
1.00623
1.00577
1.00513
1.00435
1.00345
1.00247
1.00146
1.00046
0.999511
0.998707
0.998006
0.997305
1.00627
1.00647
1.00651
1.00628
1.00582
1.00516
1.00437
1.00345
1.00245
1.00143
1.00042
0.999448
0.99863
0.997916
0.997206
1.00632
1.00653
1.00656
1.00633
1.00586
1.0052
1.00439
1.00346
1.00244
1.0014
1.00037
0.999384
0.998551
0.997824
0.997104
1.00637
1.00658
1.00662
1.00639
1.00591
1.00523
1.00441
1.00346
1.00243
1.00137
1.00032
0.999318
0.99847
0.997729
0.997002
1.00643
1.00664
1.00668
1.00644
1.00596
1.00527
1.00444
1.00347
1.00242
1.00134
1.00027
0.999249
0.998386
0.997633
0.996898
1.00649
1.00671
1.00674
1.0065
1.00601
1.00531
1.00446
1.00348
1.00241
1.00131
1.00022
0.999179
0.9983
0.997534
0.996792
1.00655
1.00677
1.0068
1.00656
1.00606
1.00535
1.00448
1.00348
1.00239
1.00127
1.00016
0.999106
0.998211
0.997433
0.996684
1.00661
1.00683
1.00687
1.00662
1.00611
1.00539
1.0045
1.00349
1.00238
1.00124
1.00011
0.999032
0.998121
0.99733
0.996574
1.00667
1.0069
1.00693
1.00667
1.00616
1.00542
1.00453
1.00349
1.00236
1.0012
1.00005
0.998954
0.998028
0.997224
0.996462
1.00674
1.00697
1.007
1.00674
1.00621
1.00546
1.00455
1.00349
1.00235
1.00116
0.999991
0.998875
0.997932
0.997116
0.996348
1.00681
1.00704
1.00707
1.0068
1.00627
1.0055
1.00457
1.0035
1.00233
1.00112
0.999929
0.998794
0.997834
0.997005
0.996232
1.00688
1.00711
1.00714
1.00686
1.00632
1.00554
1.0046
1.0035
1.00231
1.00108
0.999867
0.998711
0.997734
0.996892
0.996113
1.00695
1.00718
1.00721
1.00693
1.00638
1.00559
1.00462
1.0035
1.00229
1.00104
0.999802
0.998625
0.997631
0.996776
0.995992
1.00702
1.00726
1.00728
1.00699
1.00643
1.00563
1.00464
1.00351
1.00227
1.001
0.999735
0.998538
0.997526
0.996659
0.995868
1.0071
1.00734
1.00736
1.00706
1.00649
1.00567
1.00467
1.00351
1.00225
1.00095
0.999667
0.998448
0.997418
0.996537
0.995741
1.00718
1.00742
1.00744
1.00713
1.00655
1.00572
1.00469
1.00351
1.00223
1.00091
0.999597
0.998356
0.997308
0.996414
0.995613
1.00726
1.0075
1.00752
1.0072
1.00661
1.00576
1.00472
1.00352
1.00221
1.00086
0.999526
0.998262
0.997195
0.996288
0.99548
1.00734
1.00758
1.0076
1.00728
1.00668
1.00581
1.00475
1.00352
1.00218
1.00081
0.999453
0.998166
0.99708
0.996159
0.995345
1.00743
1.00767
1.00768
1.00736
1.00674
1.00586
1.00477
1.00352
1.00216
1.00076
0.999378
0.998067
0.996962
0.996027
0.995207
1.00752
1.00776
1.00777
1.00743
1.00681
1.00591
1.0048
1.00353
1.00214
1.00071
0.999302
0.997967
0.996841
0.995892
0.995066
1.00761
1.00785
1.00786
1.00752
1.00688
1.00596
1.00483
1.00353
1.00212
1.00066
0.999223
0.997864
0.996718
0.995754
0.994921
1.0077
1.00795
1.00795
1.0076
1.00695
1.00602
1.00486
1.00354
1.00209
1.00061
0.999144
0.997759
0.996592
0.995614
0.994773
1.00779
1.00804
1.00805
1.00769
1.00702
1.00607
1.0049
1.00354
1.00207
1.00056
0.999062
0.997652
0.996463
0.995469
0.994621
1.00789
1.00814
1.00815
1.00778
1.0071
1.00613
1.00493
1.00355
1.00205
1.0005
0.99898
0.997543
0.996332
0.995323
0.994466
1.00799
1.00825
1.00825
1.00787
1.00718
1.00619
1.00497
1.00356
1.00202
1.00045
0.998895
0.997431
0.996198
0.995172
0.994307
1.0081
1.00835
1.00835
1.00796
1.00726
1.00625
1.005
1.00356
1.002
1.00039
0.998809
0.997317
0.996061
0.995019
0.994145
1.0082
1.00846
1.00846
1.00806
1.00734
1.00631
1.00504
1.00357
1.00197
1.00034
0.99872
0.997201
0.995921
0.994862
0.993978
1.00831
1.00857
1.00857
1.00816
1.00743
1.00638
1.00508
1.00358
1.00195
1.00028
0.998631
0.997082
0.995779
0.994702
0.993809
1.00842
1.00868
1.00868
1.00826
1.00752
1.00644
1.00512
1.00359
1.00193
1.00022
0.998539
0.996961
0.995633
0.994538
0.993634
1.00854
1.0088
1.00879
1.00837
1.00761
1.00651
1.00516
1.0036
1.0019
1.00016
0.998447
0.996838
0.995485
0.994372
0.993457
1.00865
1.00892
1.00891
1.00847
1.0077
1.00658
1.0052
1.00361
1.00188
1.0001
0.998352
0.996712
0.995333
0.994201
0.993274
1.00877
1.00904
1.00903
1.00859
1.0078
1.00666
1.00525
1.00362
1.00185
1.00004
0.998255
0.996585
0.995179
0.994027
0.993088
1.0089
1.00917
1.00916
1.0087
1.00789
1.00673
1.00529
1.00363
1.00183
0.999978
0.998157
0.996454
0.99502
0.993849
0.992897
1.00902
1.0093
1.00928
1.00882
1.008
1.00681
1.00534
1.00364
1.0018
0.999915
0.998057
0.996321
0.99486
0.993667
0.992703
1.00915
1.00943
1.00941
1.00894
1.0081
1.00689
1.00539
1.00366
1.00178
0.999851
0.997955
0.996185
0.994695
0.993482
0.992503
1.00928
1.00957
1.00955
1.00906
1.00821
1.00697
1.00544
1.00367
1.00175
0.999786
0.997851
0.996047
0.994528
0.993293
0.9923
1.00942
1.00971
1.00969
1.00919
1.00832
1.00706
1.00549
1.00369
1.00173
0.99972
0.997746
0.995906
0.994357
0.993099
0.992091
1.00956
1.00985
1.00983
1.00932
1.00843
1.00715
1.00555
1.0037
1.0017
0.999653
0.997639
0.995763
0.994184
0.992902
0.991878
1.0097
1.00999
1.00997
1.00945
1.00855
1.00724
1.00561
1.00372
1.00168
0.999585
0.997529
0.995616
0.994005
0.9927
0.99166
1.00985
1.01014
1.01012
1.00959
1.00867
1.00733
1.00566
1.00374
1.00165
0.999517
0.997418
0.995467
0.993825
0.992495
0.991438
1.01
1.0103
1.01027
1.00973
1.00879
1.00742
1.00572
1.00376
1.00163
0.999447
0.997305
0.995315
0.993639
0.992284
0.991211
1.01015
1.01046
1.01043
1.00988
1.00892
1.00752
1.00579
1.00378
1.0016
0.999376
0.99719
0.99516
0.993451
0.99207
0.990979
1.01031
1.01062
1.01059
1.01003
1.00905
1.00762
1.00585
1.0038
1.00158
0.999304
0.997072
0.995002
0.993258
0.991851
0.990741
1.01047
1.01078
1.01075
1.01018
1.00918
1.00773
1.00592
1.00383
1.00155
0.999231
0.996953
0.994841
0.993062
0.991628
0.990499
1.01063
1.01095
1.01092
1.01033
1.00932
1.00783
1.00599
1.00385
1.00153
0.999156
0.996831
0.994677
0.992862
0.991399
0.99025
1.0108
1.01113
1.01109
1.0105
1.00946
1.00795
1.00606
1.00387
1.0015
0.999081
0.996707
0.994509
0.992658
0.991166
0.989997
1.01098
1.0113
1.01127
1.01066
1.0096
1.00806
1.00613
1.0039
1.00148
0.999004
0.99658
0.994338
0.992449
0.990928
0.989738
1.01115
1.01149
1.01145
1.01083
1.00975
1.00818
1.00621
1.00393
1.00145
0.998926
0.996451
0.994164
0.992236
0.990685
0.989474
1.01134
1.01167
1.01164
1.011
1.0099
1.0083
1.00629
1.00396
1.00143
0.998847
0.99632
0.993986
0.992018
0.990437
0.989204
1.01152
1.01187
1.01183
1.01118
1.01006
1.00842
1.00637
1.00399
1.0014
0.998766
0.996186
0.993804
0.991797
0.990183
0.988929
1.01171
1.01206
1.01202
1.01137
1.01022
1.00855
1.00645
1.00402
1.00138
0.998684
0.996049
0.993619
0.99157
0.989924
0.988647
1.01191
1.01226
1.01222
1.01155
1.01038
1.00868
1.00653
1.00405
1.00135
0.9986
0.99591
0.99343
0.991339
0.98966
0.988359
1.01211
1.01247
1.01243
1.01175
1.01055
1.00881
1.00662
1.00408
1.00133
0.998515
0.995767
0.993236
0.991102
0.98939
0.988065
1.01231
1.01268
1.01264
1.01194
1.01073
1.00895
1.00671
1.00412
1.0013
0.998428
0.995622
0.993039
0.990861
0.989114
0.987765
1.01252
1.0129
1.01286
1.01215
1.01091
1.00909
1.00681
1.00416
1.00128
0.998339
0.995473
0.992837
0.990614
0.988832
0.987458
1.01274
1.01312
1.01308
1.01236
1.01109
1.00923
1.0069
1.00419
1.00125
0.998248
0.995322
0.992632
0.990363
0.988545
0.987145
1.01296
1.01335
1.0133
1.01257
1.01128
1.00938
1.007
1.00423
1.00122
0.998156
0.995167
0.992421
0.990105
0.988251
0.986825
1.01318
1.01358
1.01354
1.01279
1.01147
1.00954
1.0071
1.00427
1.0012
0.998061
0.995008
0.992206
0.989843
0.987951
0.986499
1.01342
1.01382
1.01377
1.01301
1.01167
1.00969
1.00721
1.00431
1.00117
0.997965
0.994846
0.991986
0.989574
0.987644
0.986165
1.01365
1.01407
1.01402
1.01324
1.01187
1.00986
1.00731
1.00435
1.00114
0.997866
0.994681
0.991761
0.9893
0.98733
0.985824
1.0139
1.01432
1.01427
1.01348
1.01208
1.01002
1.00742
1.0044
1.00111
0.997765
0.994511
0.991531
0.989019
0.98701
0.985476
1.01414
1.01458
1.01453
1.01372
1.0123
1.01019
1.00754
1.00444
1.00108
0.997661
0.994338
0.991296
0.988732
0.986683
0.98512
1.0144
1.01484
1.01479
1.01397
1.01252
1.01037
1.00765
1.00449
1.00105
0.997555
0.99416
0.991055
0.988439
0.986348
0.984757
1.01466
1.01511
1.01506
1.01423
1.01274
1.01055
1.00777
1.00453
1.00102
0.997446
0.993978
0.99081
0.98814
0.986007
0.984386
1.01493
1.01539
1.01534
1.01449
1.01297
1.01073
1.00789
1.00458
1.00099
0.997335
0.993792
0.990558
0.987833
0.985658
0.984007
1.0152
1.01567
1.01562
1.01476
1.01321
1.01092
1.00802
1.00463
1.00096
0.99722
0.993601
0.9903
0.98752
0.985301
0.983621
1.01548
1.01597
1.01591
1.01504
1.01346
1.01111
1.00814
1.00468
1.00092
0.997103
0.993405
0.990036
0.987199
0.984936
0.983226
1.01577
1.01626
1.01621
1.01532
1.01371
1.01131
1.00827
1.00473
1.00089
0.996982
0.993205
0.989766
0.986871
0.984564
0.982822
1.01606
1.01657
1.01652
1.01561
1.01396
1.01152
1.00841
1.00478
1.00085
0.996858
0.992999
0.989489
0.986536
0.984183
0.98241
1.01637
1.01689
1.01683
1.01591
1.01423
1.01172
1.00855
1.00484
1.00082
0.99673
0.992788
0.989206
0.986193
0.983794
0.981989
1.01668
1.01721
1.01716
1.01621
1.0145
1.01194
1.00869
1.00489
1.00078
0.996599
0.992571
0.988916
0.985842
0.983396
0.98156
1.01699
1.01754
1.01749
1.01653
1.01477
1.01216
1.00883
1.00495
1.00074
0.996464
0.992349
0.988618
0.985483
0.98299
0.981121
1.01732
1.01788
1.01783
1.01685
1.01506
1.01238
1.00898
1.005
1.00069
0.996325
0.992121
0.988314
0.985116
0.982574
0.980673
1.01765
1.01822
1.01817
1.01718
1.01535
1.01261
1.00913
1.00506
1.00065
0.996181
0.991887
0.988001
0.98474
0.98215
0.980215
1.01799
1.01858
1.01853
1.01752
1.01565
1.01285
1.00928
1.00511
1.0006
0.996033
0.991646
0.987681
0.984355
0.981716
0.979748
1.01834
1.01894
1.0189
1.01787
1.01595
1.01309
1.00944
1.00517
1.00055
0.995881
0.991399
0.987353
0.983961
0.981272
0.979271
1.0187
1.01932
1.01927
1.01822
1.01627
1.01334
1.0096
1.00523
1.0005
0.995723
0.991145
0.987017
0.983558
0.980819
0.978783
1.01907
1.0197
1.01965
1.01859
1.01659
1.01359
1.00976
1.00529
1.00045
0.995561
0.990884
0.986672
0.983146
0.980355
0.978286
1.01944
1.02009
1.02005
1.01896
1.01692
1.01385
1.00993
1.00534
1.00039
0.995392
0.990615
0.986318
0.982724
0.979881
0.977778
1.01983
1.0205
1.02045
1.01935
1.01726
1.01412
1.0101
1.0054
1.00033
0.995219
0.990339
0.985955
0.982291
0.979397
0.97726
1.02022
1.02091
1.02087
1.01974
1.01761
1.01439
1.01027
1.00546
1.00027
0.995039
0.990054
0.985583
0.981849
0.978902
0.97673
1.02063
1.02133
1.02129
1.02015
1.01796
1.01467
1.01045
1.00552
1.0002
0.994853
0.989762
0.985201
0.981395
0.978396
0.97619
1.02104
1.02176
1.02173
1.02056
1.01833
1.01495
1.01062
1.00557
1.00013
0.994661
0.98946
0.984809
0.980931
0.977878
0.975638
1.02147
1.02221
1.02218
1.02099
1.0187
1.01525
1.01081
1.00563
1.00006
0.994462
0.98915
0.984406
0.980456
0.97735
0.975075
1.0219
1.02267
1.02263
1.02142
1.01909
1.01554
1.01099
1.00569
0.999979
0.994255
0.988831
0.983993
0.979969
0.976809
0.9745
1.02235
1.02313
1.0231
1.02187
1.01948
1.01585
1.01118
1.00574
0.999896
0.994041
0.988502
0.983569
0.979471
0.976256
0.973912
1.0228
1.02361
1.02359
1.02233
1.01988
1.01616
1.01137
1.0058
0.999808
0.993819
0.988162
0.983134
0.97896
0.975692
0.973313
1.02327
1.0241
1.02408
1.0228
1.0203
1.01648
1.01157
1.00585
0.999715
0.993589
0.987813
0.982687
0.978438
0.975114
0.972701
1.02375
1.02461
1.02459
1.02329
1.02072
1.0168
1.01176
1.0059
0.999615
0.993349
0.987452
0.982227
0.977902
0.974524
0.972077
1.02425
1.02512
1.02511
1.02378
1.02115
1.01714
1.01196
1.00595
0.999511
0.993101
0.987081
0.981756
0.977353
0.97392
0.971439
1.02475
1.02565
1.02564
1.02429
1.0216
1.01748
1.01216
1.00599
0.999399
0.992843
0.986697
0.981271
0.976792
0.973303
0.970788
1.02527
1.0262
1.02619
1.02481
1.02205
1.01782
1.01237
1.00604
0.99928
0.992576
0.986302
0.980773
0.976216
0.972672
0.970123
1.0258
1.02675
1.02675
1.02535
1.02252
1.01818
1.01258
1.00608
0.999154
0.992297
0.985893
0.980262
0.975627
0.972027
0.969445
1.02634
1.02733
1.02733
1.0259
1.02299
1.01854
1.01278
1.00611
0.999021
0.992007
0.985472
0.979736
0.975022
0.971368
0.968752
1.0269
1.02791
1.02792
1.02646
1.02348
1.0189
1.01299
1.00615
0.998878
0.991706
0.985037
0.979196
0.974404
0.970694
0.968044
1.02747
1.02851
1.02853
1.02704
1.02398
1.01928
1.01321
1.00618
0.998728
0.991393
0.984588
0.978641
0.97377
0.970005
0.967321
1.02805
1.02913
1.02915
1.02763
1.0245
1.01966
1.01342
1.0062
0.998567
0.991066
0.984125
0.978071
0.973121
0.9693
0.966583
1.02865
1.02976
1.02979
1.02824
1.02502
1.02005
1.01363
1.00622
0.998396
0.990726
0.983646
0.977485
0.972456
0.96858
0.965829
1.02927
1.03041
1.03045
1.02887
1.02556
1.02045
1.01385
1.00623
0.998215
0.990372
0.983151
0.976882
0.971775
0.967844
0.965059
1.0299
1.03108
1.03112
1.02951
1.02611
1.02085
1.01406
1.00624
0.998022
0.990004
0.98264
0.976263
0.971076
0.96709
0.964272
1.03054
1.03176
1.03181
1.03016
1.02667
1.02126
1.01427
1.00624
0.997817
0.98962
0.982112
0.975626
0.970362
0.966321
0.963469
1.0312
1.03246
1.03252
1.03084
1.02725
1.02168
1.01449
1.00623
0.997599
0.98922
0.981567
0.974972
0.96963
0.965534
0.962648
1.03188
1.03318
1.03325
1.03153
1.02784
1.0221
1.0147
1.00622
0.997367
0.988803
0.981003
0.974299
0.96888
0.96473
0.961811
1.03258
1.03391
1.034
1.03224
1.02844
1.02253
1.01491
1.00619
0.99712
0.988368
0.98042
0.973608
0.968112
0.963908
0.960955
1.0333
1.03467
1.03477
1.03297
1.02906
1.02297
1.01512
1.00616
0.996858
0.987914
0.979818
0.972897
0.967325
0.963068
0.960082
1.03403
1.03545
1.03556
1.03371
1.02969
1.02341
1.01532
1.00611
0.99658
0.987442
0.979196
0.972166
0.966519
0.96221
0.959191
1.03478
1.03624
1.03636
1.03448
1.03033
1.02386
1.01552
1.00606
0.996284
0.986949
0.978552
0.971415
0.965695
0.961333
0.958283
1.03555
1.03706
1.03719
1.03527
1.03099
1.02432
1.01572
1.00599
0.995971
0.986434
0.977887
0.970643
0.96485
0.960437
0.957356
1.03635
1.0379
1.03805
1.03607
1.03167
1.02477
1.01591
1.0059
0.995637
0.985898
0.977199
0.96985
0.963985
0.959523
0.956411
1.03716
1.03877
1.03892
1.0369
1.03236
1.02524
1.0161
1.0058
0.995283
0.985339
0.976488
0.969034
0.963099
0.958588
0.955447
1.03799
1.03965
1.03982
1.03775
1.03306
1.02571
1.01628
1.00569
0.994907
0.984755
0.975754
0.968196
0.962192
0.957634
0.954466
1.03885
1.04056
1.04075
1.03862
1.03378
1.02618
1.01645
1.00556
0.994508
0.984146
0.974994
0.967334
0.961263
0.95666
0.953466
1.03973
1.0415
1.0417
1.03951
1.03451
1.02665
1.01661
1.0054
0.994085
0.983511
0.974208
0.966448
0.960313
0.955667
0.952448
1.04063
1.04246
1.04267
1.04043
1.03525
1.02713
1.01677
1.00523
0.993636
0.982849
0.973396
0.965538
0.95934
0.954652
0.951412
1.04155
1.04344
1.04368
1.04137
1.03601
1.02761
1.01691
1.00504
0.99316
0.982158
0.972557
0.964603
0.958345
0.953618
0.950357
1.0425
1.04445
1.04471
1.04233
1.03679
1.02809
1.01703
1.00482
0.992656
0.981438
0.971689
0.963641
0.957326
0.952562
0.949284
1.04348
1.04549
1.04576
1.04332
1.03758
1.02857
1.01714
1.00458
0.992121
0.980686
0.970792
0.962653
0.956283
0.951486
0.948193
1.04448
1.04656
1.04685
1.04433
1.03838
1.02904
1.01724
1.00431
0.991555
0.979903
0.969865
0.961638
0.955216
0.950389
0.947083
1.04551
1.04766
1.04797
1.04537
1.0392
1.02952
1.01732
1.00402
0.990955
0.979085
0.968907
0.960595
0.954125
0.94927
0.945956
1.04657
1.04879
1.04912
1.04644
1.04003
1.02999
1.01738
1.00369
0.99032
0.978233
0.967917
0.959524
0.953008
0.94813
0.94481
1.04766
1.04996
1.0503
1.04753
1.04087
1.03045
1.01741
1.00333
0.989648
0.977345
0.966893
0.958423
0.951867
0.946969
0.943646
1.04878
1.05115
1.05152
1.04865
1.04173
1.03091
1.01742
1.00293
0.988938
0.976419
0.965836
0.957292
0.950699
0.945786
0.942464
1.04993
1.05238
1.05277
1.04979
1.0426
1.03136
1.01741
1.0025
0.988186
0.975454
0.964744
0.956132
0.949506
0.944582
0.941264
1.05111
1.05365
1.05406
1.05097
1.04348
1.0318
1.01736
1.00203
0.987392
0.974449
0.963615
0.954939
0.948286
0.943355
0.940046
1.05232
1.05495
1.05538
1.05217
1.04437
1.03223
1.01728
1.00151
0.986552
0.973401
0.96245
0.953715
0.947039
0.942106
0.93881
1.05357
1.05629
1.05674
1.05341
1.04527
1.03264
1.01717
1.00095
0.985667
0.97231
0.961246
0.952459
0.945765
0.940835
0.937556
1.05485
1.05767
1.05814
1.05467
1.04617
1.03303
1.01702
1.00034
0.984731
0.971174
0.960003
0.951169
0.944464
0.939542
0.936284
1.05618
1.05909
1.05959
1.05596
1.04708
1.0334
1.01682
0.999681
0.983744
0.969991
0.95872
0.949846
0.943134
0.938227
0.934994
1.05754
1.06055
1.06107
1.05728
1.048
1.03374
1.01658
0.998964
0.982702
0.96876
0.957396
0.948488
0.941777
0.936889
0.933688
1.05893
1.06206
1.0626
1.05864
1.04892
1.03406
1.0163
0.998191
0.981605
0.967479
0.95603
0.947096
0.940391
0.935529
0.932363
1.06037
1.06361
1.06417
1.06002
1.04984
1.03434
1.01595
0.997355
0.980448
0.966146
0.954621
0.945668
0.938976
0.934147
0.931022
1.06186
1.06521
1.0658
1.06143
1.05075
1.03459
1.01555
0.996455
0.97923
0.96476
0.953168
0.944204
0.937532
0.932741
0.929663
1.06339
1.06686
1.06747
1.06288
1.05166
1.0348
1.01509
0.995485
0.977948
0.96332
0.95167
0.942704
0.93606
0.931315
0.928288
1.06496
1.06857
1.06919
1.06435
1.05257
1.03496
1.01455
0.994443
0.976599
0.961824
0.950126
0.941167
0.934558
0.929865
0.926895
1.06658
1.07032
1.07096
1.06585
1.05346
1.03507
1.01395
0.993323
0.975181
0.96027
0.948536
0.939592
0.933027
0.928394
0.925487
1.06825
1.07214
1.07279
1.06738
1.05433
1.03512
1.01326
0.992124
0.973692
0.958657
0.946899
0.93798
0.931466
0.9269
0.924061
1.06997
1.07401
1.07468
1.06894
1.05518
1.03511
1.01249
0.990838
0.972128
0.956984
0.945214
0.936331
0.929876
0.925385
0.922621
1.07175
1.07595
1.07662
1.07052
1.05601
1.03503
1.01163
0.989464
0.970487
0.955249
0.94348
0.934642
0.928255
0.923847
0.921165
1.07358
1.07795
1.07862
1.07212
1.0568
1.03487
1.01067
0.987995
0.968767
0.953451
0.941698
0.932916
0.926606
0.922289
0.919694
1.07547
1.08002
1.08069
1.07375
1.05756
1.03462
1.00961
0.986429
0.966966
0.951589
0.939865
0.93115
0.924927
0.920709
0.918208
1.07742
1.08216
1.08281
1.07539
1.05826
1.03428
1.00844
0.98476
0.965081
0.949663
0.937984
0.929346
0.923219
0.919109
0.916709
1.07944
1.08438
1.08501
1.07705
1.05891
1.03383
1.00714
0.982985
0.96311
0.947671
0.936051
0.927503
0.921481
0.917489
0.915194
1.08152
1.08668
1.08726
1.07872
1.0595
1.03327
1.00573
0.981098
0.961051
0.945613
0.934069
0.925621
0.919714
0.915849
0.913668
1.08367
1.08906
1.08959
1.08039
1.06001
1.03258
1.00417
0.979097
0.958902
0.943488
0.932036
0.9237
0.917919
0.91419
0.912128
1.08589
1.09153
1.09199
1.08206
1.06044
1.03175
1.00248
0.976977
0.956663
0.941296
0.929953
0.92174
0.916095
0.912513
0.910576
1.08819
1.09409
1.09445
1.08372
1.06076
1.03078
1.00064
0.974734
0.954332
0.939037
0.927819
0.919741
0.914244
0.910818
0.909013
1.09056
1.09674
1.09699
1.08536
1.06098
1.02965
0.998647
0.972365
0.951907
0.936711
0.925635
0.917704
0.912365
0.909106
0.907438
1.09302
1.0995
1.0996
1.08697
1.06106
1.02834
0.996488
0.969867
0.949389
0.934318
0.923401
0.915628
0.910459
0.907378
0.905852
1.09557
1.10237
1.10227
1.08855
1.061
1.02685
0.994157
0.967237
0.946777
0.931859
0.921118
0.913514
0.908528
0.905635
0.904257
1.09821
1.10536
1.10501
1.09007
1.06078
1.02515
0.991649
0.964473
0.94407
0.929333
0.918784
0.911362
0.906571
0.903878
0.902652
1.10095
1.10846
1.10782
1.09153
1.06038
1.02324
0.988955
0.961574
0.941271
0.926744
0.916401
0.909173
0.904591
0.90211
0.90104
1.10379
1.11169
1.11068
1.0929
1.05978
1.02111
0.98607
0.958537
0.938379
0.92409
0.91397
0.906946
0.902588
0.90033
0.89942
1.10675
1.11506
1.1136
1.09417
1.05895
1.01872
0.982988
0.955363
0.935397
0.921374
0.91149
0.904684
0.900564
0.898542
0.897793
1.10982
1.11856
1.11657
1.09531
1.05787
1.01608
0.979705
0.952051
0.932325
0.918597
0.908962
0.902386
0.898521
0.896746
0.89616
1.11301
1.12221
1.11957
1.0963
1.05652
1.01317
0.976215
0.948604
0.929167
0.91576
0.906387
0.900053
0.896461
0.894945
0.894521
1.11633
1.12602
1.1226
1.09711
1.05488
1.00996
0.972516
0.945022
0.925925
0.912865
0.903765
0.897687
0.894386
0.893142
0.892877
1.1198
1.12998
1.12564
1.09771
1.0529
1.00646
0.968607
0.94131
0.922604
0.909913
0.901096
0.895289
0.892299
0.891337
0.891227
1.12342
1.13412
1.12867
1.09807
1.05057
1.00265
0.964487
0.937471
0.919206
0.906907
0.898381
0.892861
0.890204
0.889534
0.889571
1.12721
1.13842
1.13167
1.09814
1.04785
0.998512
0.960158
0.93351
0.915736
0.903847
0.89562
0.890406
0.888105
0.887734
0.887906
1.13117
1.1429
1.13461
1.09789
1.04472
0.994044
0.955623
0.929433
0.912198
0.900734
0.892814
0.887926
0.886005
0.885941
0.886234
1.13532
1.14755
1.13747
1.09728
1.04115
0.989236
0.950886
0.925249
0.908598
0.89757
0.889963
0.885425
0.883911
0.884156
0.884549
1.13967
1.15239
1.1402
1.09624
1.0371
0.984086
0.945956
0.920965
0.904939
0.894355
0.887068
0.882907
0.881826
0.88238
0.88285
1.14425
1.1574
1.14277
1.09474
1.03255
0.978591
0.940842
0.916591
0.901228
0.89109
0.884132
0.880379
0.879758
0.880615
0.88113
1.14908
1.16258
1.14512
1.09271
1.02747
0.972753
0.935555
0.912137
0.897467
0.887775
0.881155
0.877846
0.877713
0.878861
0.879387
1.15417
1.16792
1.1472
1.09011
1.02184
0.966579
0.930112
0.907616
0.893662
0.884408
0.878141
0.875318
0.875696
0.877117
0.87761
1.15954
1.17341
1.14894
1.08685
1.01564
0.960079
0.924528
0.903038
0.889814
0.880988
0.875093
0.872803
0.873714
0.87538
0.875794
1.16523
1.17903
1.15027
1.08289
1.00885
0.953268
0.918825
0.898417
0.885925
0.877515
0.872017
0.870313
0.871773
0.873644
0.873923
1.17126
1.18473
1.15112
1.07817
1.00146
0.946168
0.913022
0.893761
0.881997
0.873987
0.868922
0.867859
0.869878
0.871903
0.87199
1.17767
1.1905
1.15137
1.07261
0.993473
0.938805
0.907147
0.889085
0.878026
0.870403
0.865819
0.865458
0.86803
0.870144
0.869977
1.18447
1.19628
1.15095
1.06615
0.984887
0.931211
0.901222
0.884395
0.87401
0.866765
0.862721
0.863122
0.866228
0.868352
0.867871
1.19172
1.202
1.14973
1.05874
0.975721
0.923426
0.895277
0.8797
0.869944
0.863076
0.859648
0.860868
0.864467
0.866506
0.86565
1.19944
1.20758
1.1476
1.05033
0.966
0.915495
0.889336
0.874999
0.86582
0.859346
0.856622
0.858708
0.862735
0.864581
0.863303
1.20766
1.21295
1.14443
1.04087
0.955766
0.907468
0.883426
0.870295
0.861635
0.855588
0.853674
0.856654
0.861012
0.862545
0.86081
1.21643
1.21797
1.14008
1.03033
0.945072
0.899402
0.877567
0.865579
0.857383
0.851826
0.850833
0.854709
0.859269
0.860362
0.858164
1.22578
1.22252
1.13441
1.01869
0.93399
0.891354
0.871775
0.86084
0.853067
0.848096
0.84814
0.852872
0.857464
0.857994
0.855356
1.23572
1.22643
1.12727
1.00596
0.922607
0.883383
0.866055
0.85606
0.848698
0.844447
0.84563
0.851128
0.855549
0.855404
0.852395
1.24629
1.22952
1.11851
0.992162
0.91103
0.875545
0.860402
0.851224
0.844303
0.840941
0.843343
0.849454