1.45 	0 	0 	0.0709023 	-0.00901289 	3.43336e-21
2.35 	0 	0 	0.317874 	-0.0127621 	7.22693e-23
