1.45 	0 	0 	-0.274443
2.35 	0 	0 	-0.0394941
