/*--------------------------------*- C++ -*----------------------------------*\
  =========                 |
  \\      /  F ield         | OpenFOAM: The Open Source CFD Toolbox
   \\    /   O peration     | Website:  https://openfoam.org
    \\  /    A nd           | Version:  6.0
     \\/     M anipulation  |
\*---------------------------------------------------------------------------*/
FoamFile
{
    version     2.0;
    format      ascii;
    class       volScalarField;
    location    "0.5";
    object      p;
}
// * * * * * * * * * * * * * * * * * * * * * * * * * * * * * * * * * * * * * //

dimensions      [0 2 -2 0 0 0 0];

internalField   nonuniform List<scalar> 
200
(
4.36622e-06
-0.0385319
-0.054681
-0.0350875
0.0167481
0.0940882
0.190077
0.299044
0.416952
0.541163
0.669885
0.801476
0.933636
1.06252
1.18188
1.28271
1.354
1.3852
1.37112
1.3282
0.0386733
-0.00296759
-0.0128975
0.0101936
0.0596312
0.130802
0.219085
0.320139
0.430459
0.547348
0.668614
0.792128
0.915271
1.03433
1.14392
1.23679
1.30465
1.33932
1.33196
1.28556
0.057588
0.00246456
-0.00698641
0.020155
0.0715569
0.14244
0.22889
0.327152
0.434104
0.54724
0.664455
0.783736
0.902765
1.01841
1.12616
1.21971
1.29149
1.33248
1.3267
1.26565
0.0324815
-0.034161
-0.0401891
-0.00436117
0.0547687
0.131325
0.221403
0.321492
0.428835
0.541326
0.657309
0.775347
0.893916
1.01093
1.12303
1.22486
1.30889
1.36387
1.36518
1.29279
-0.0554915
-0.122838
-0.113695
-0.0593157
0.0154786
0.103953
0.202418
0.307862
0.418179
0.53196
0.648303
0.766676
0.886715
1.00784
1.12851
1.24503
1.35073
1.43251
1.45641
1.3867
-0.233276
-0.27804
-0.231103
-0.142125
-0.0408759
0.0665388
0.177761
0.291199
0.406073
0.522141
0.639592
0.759058
0.881616
1.00862
1.1411
1.27848
1.41687
1.54359
1.617
1.57914
-0.546764
-0.516088
-0.391478
-0.244961
-0.104167
0.0289383
0.155761
0.27801
0.397375
0.515385
0.633609
0.75398
0.879143
1.0127
1.15913
1.32292
1.50621
1.70148
1.86832
1.92463
-1.1002
-0.854688
-0.579179
-0.347376
-0.155823
0.00588861
0.147026
0.275449
0.396679
0.514433
0.631645
0.75137
0.877635
1.01634
1.17623
1.36927
1.60795
1.89989
2.23881
2.54202
-2.178
-1.30002
-0.719665
-0.383027
-0.150468
0.0256414
0.168027
0.292507
0.408368
0.520655
0.632628
0.747391
0.86924
1.00529
1.16801
1.37802
1.66431
2.07652
2.75043
3.73146
-4.01869
-1.72863
-0.669415
-0.260296
-0.0397643
0.110576
0.22784
0.331991
0.432409
0.532642
0.634092
0.737973
0.846695
0.965696
1.10701
1.29548
1.57877
2.08414
3.26101
5.66694
)
;

boundaryField
{
    movingWall
    {
        type            zeroGradient;
    }
    fixedWalls
    {
        type            zeroGradient;
    }
    frontAndBack
    {
        type            empty;
    }
}


// ************************************************************************* //
