1.45 	0 	0 	-0.00797953 	-0.00257672 	3.79783e-21
2.35 	0 	0 	0.0616191 	-0.00664147 	2.3074e-21
