1.45 	0 	0 	-0.291604
2.35 	0 	0 	-0.126914
