1.275 	2.15223e-18 	-2.76991e-20 	-0.0344756 	-0.000437369 	-1.90601e-22
1.825 	2.15223e-18 	-1.39322e-20 	-0.00948854 	-0.00275281 	1.68215e-21
2.375 	2.15223e-18 	-2.66896e-23 	0.115237 	-0.00323079 	-7.01633e-22
