1.275 	2.15223e-18 	-2.76991e-20 	-0.0339057 	-0.000442267 	-1.9936e-22
1.825 	2.15223e-18 	-1.39322e-20 	-0.00845412 	-0.00278742 	1.79215e-21
2.375 	2.15223e-18 	-2.66896e-23 	0.118158 	-0.00331118 	-7.47974e-22
