1.45 	0 	0 	-0.308015
2.35 	0 	0 	-0.126368
