/*--------------------------------*- C++ -*----------------------------------*\
  =========                 |
  \\      /  F ield         | OpenFOAM: The Open Source CFD Toolbox
   \\    /   O peration     | Website:  https://openfoam.org
    \\  /    A nd           | Version:  6.0
     \\/     M anipulation  |
\*---------------------------------------------------------------------------*/
FoamFile
{
    version     2.0;
    format      ascii;
    class       volScalarField;
    location    "0.3";
    object      p;
}
// * * * * * * * * * * * * * * * * * * * * * * * * * * * * * * * * * * * * * //

dimensions      [0 2 -2 0 0 0 0];

internalField   nonuniform List<scalar> 
800
(
4.66212e-07
-0.00217984
-0.00533756
-0.00842567
-0.010782
-0.0120897
-0.012248
-0.0112749
-0.00924057
-0.00622939
-0.00231898
0.00242875
0.00797052
0.0142815
0.0213537
0.0291944
0.0378241
0.0472746
0.057586
0.0688034
0.0809716
0.0941277
0.108291
0.123453
0.139558
0.15649
0.174052
0.191951
0.209785
0.22704
0.243105
0.257307
0.268966
0.277486
0.282457
0.283779
0.281785
0.277352
0.272005
0.267938
0.00217271
-7.08067e-05
-0.00256825
-0.00479681
-0.0064278
-0.00723178
-0.00710702
-0.00603667
-0.00404455
-0.00116981
0.00254724
0.00707256
0.0123817
0.0184608
0.0253065
0.0329249
0.0413311
0.0505471
0.0605998
0.071518
0.0833277
0.0960455
0.109671
0.124175
0.13949
0.155491
0.171988
0.188708
0.205286
0.221271
0.236136
0.249307
0.260224
0.268405
0.27354
0.275584
0.274843
0.272005
0.267961
0.263897
0.0054529
0.00232673
-0.000262601
-0.00219742
-0.00348442
-0.00400147
-0.00368593
-0.00252955
-0.000544374
0.00225108
0.00583796
0.0102006
0.0153283
0.0212158
0.0278635
0.0352775
0.0434689
0.0524532
0.0622488
0.0728745
0.084346
0.0966702
0.109839
0.123819
0.138543
0.153896
0.169702
0.185713
0.201599
0.216951
0.231283
0.244071
0.254788
0.262979
0.268338
0.270784
0.270552
0.268157
0.263953
0.258457
0.00879899
0.00443617
0.00135491
-0.000629643
-0.00182653
-0.00221742
-0.00179377
-0.00057705
0.00141281
0.0041623
0.00766265
0.0119088
0.0168984
0.0226317
0.0291112
0.0363417
0.0443309
0.0530892
0.062629
0.0729633
0.084103
0.0960531
0.108807
0.122338
0.136593
0.151474
0.166834
0.182456
0.198043
0.213216
0.227514
0.240419
0.251392
0.259938
0.265682
0.268452
0.268375
0.265824
0.260758
0.253329
0.0113659
0.00571847
0.00203114
-0.000128001
-0.00133943
-0.00167873
-0.0011906
7.01531e-05
0.00207026
0.00479529
0.00824104
0.0124081
0.0172987
0.0229148
0.0292582
0.0363305
0.0441347
0.0526752
0.0619588
0.0719939
0.0827897
0.0943529
0.106684
0.11977
0.133579
0.148042
0.163047
0.178416
0.193896
0.209139
0.223706
0.23707
0.248658
0.2579
0.26431
0.267576
0.267692
0.264895
0.258844
0.249502
0.0125074
0.00562524
0.00131499
-0.00106288
-0.00233139
-0.00264945
-0.00211
-0.000799393
0.00123477
0.00397431
0.00741568
0.0115608
0.0164121
0.0219694
0.0282302
0.0351905
0.0428459
0.0511942
0.060236
0.069976
0.0804229
0.0915882
0.103484
0.116115
0.129478
0.143541
0.158235
0.173435
0.188935
0.204432
0.21951
0.233639
0.246195
0.256514
0.263961
0.268043
0.268577
0.265655
0.258683
0.247539
0.011699
0.0036583
-0.00124293
-0.00382664
-0.00513912
-0.00541603
-0.00479419
-0.0033888
-0.00126146
0.00156412
0.0050818
0.00929086
0.0141894
0.0197713
0.0260263
0.0329415
0.0405039
0.0487029
0.0575326
0.0669944
0.077098
0.0878616
0.0993108
0.111475
0.124381
0.138041
0.152439
0.167508
0.183106
0.198986
0.214769
0.22993
0.243801
0.255607
0.264538
0.269876
0.27121
0.268438
0.260705
0.247843
0.00848352
-0.000646849
-0.00607337
-0.00879163
-0.0100686
-0.010218
-0.00942
-0.00781789
-0.00548746
-0.00245969
0.0012537
0.00564569
0.0107064
0.0164203
0.0227666
0.0297217
0.0372621
0.0453685
0.0540289
0.0632418
0.073019
0.0833868
0.0943866
0.106073
0.118507
0.13175
0.145842
0.160786
0.176513
0.192849
0.209472
0.225884
0.241388
0.255106
0.266034
0.273183
0.275848
0.273654
0.265406
0.250862
0.00242598
-0.00775678
-0.0136129
-0.0163243
-0.0174014
-0.0172492
-0.016098
-0.0141222
-0.0114139
-0.0080137
-0.00394141
0.000786931
0.00615108
0.0121242
0.0186737
0.0257648
0.0333641
0.0414442
0.0499879
0.0589923
0.0684724
0.0784641
0.0890254
0.100236
0.112194
0.125008
0.138779
0.153585
0.169441
0.186261
0.203807
0.221637
0.239057
0.255109
0.268598
0.278225
0.282909
0.281885
0.273464
0.257238
-0.00693765
-0.0181847
-0.0243288
-0.0267882
-0.0273799
-0.0266327
-0.0248425
-0.0222229
-0.0188866
-0.0148855
-0.0102486
-0.00500157
0.000825312
0.00719463
0.0140638
0.0213886
0.0291284
0.0372501
0.045734
0.0545781
0.0638026
0.0734537
0.0836064
0.0943656
0.105864
0.118256
0.131705
0.146363
0.162336
0.179644
0.198155
0.217521
0.237099
0.255895
0.272547
0.28543
0.293003
0.293952
0.285849
0.267936
-0.0201795
-0.0325601
-0.0387565
-0.0405468
-0.0401862
-0.0383848
-0.0355308
-0.0318888
-0.0275946
-0.0227103
-0.0172712
-0.0113082
-0.00485711
0.00203921
0.00933326
0.016977
0.0249271
0.0331498
0.041627
0.0503609
0.0593791
0.0687397
0.0785345
0.0888921
0.099977
0.111986
0.125141
0.139664
0.155759
0.173557
0.193057
0.214045
0.235984
0.257916
0.278372
0.29541
0.306963
0.310981
0.303936
0.28439
-0.0381223
-0.0517425
-0.0575534
-0.0579637
-0.0559076
-0.0523673
-0.047855
-0.0426944
-0.0370399
-0.0309537
-0.0244653
-0.017599
-0.0103845
-0.00285936
0.00493373
0.0129515
0.0211555
0.029518
0.0380276
0.0466947
0.0555575
0.0646871
0.0741921
0.0842227
0.0949718
0.106675
0.119602
0.134047
0.150303
0.168618
0.189143
0.21183
0.236317
0.26177
0.286712
0.308956
0.325877
0.334489
0.329673
0.308735
-0.0621155
-0.0770101
-0.0815664
-0.0793831
-0.0744766
-0.0682156
-0.0612573
-0.0539732
-0.0465107
-0.0389032
-0.0311473
-0.0232365
-0.0151741
-0.00697507
0.0013369
0.00973492
0.0181951
0.0267027
0.035259
0.0438869
0.0526377
0.0615967
0.070889
0.0806843
0.0912006
0.102706
0.115514
0.129981
0.146484
0.165392
0.18701
0.211498
0.23873
0.268107
0.298291
0.326993
0.351083
0.366467
0.365813
0.344209
-0.0946049
-0.110368
-0.111886
-0.105051
-0.0955492
-0.0852235
-0.0748428
-0.0647641
-0.0550595
-0.0456724
-0.0365163
-0.0275147
-0.0186139
-0.00978315
-0.00100971
0.00770883
0.0163725
0.0249868
0.0335702
0.0421614
0.0508262
0.0596648
0.0688175
0.0784719
0.0888671
0.100299
0.11312
0.12774
0.144616
0.164231
0.187059
0.213487
0.243696
0.277444
0.313734
0.350424
0.384081
0.409443
0.416292
0.395971
-0.140333
-0.155023
-0.149787
-0.134871
-0.11825
-0.102142
-0.0872492
-0.0737472
-0.0614908
-0.0502243
-0.0396996
-0.0297147
-0.020121
-0.0108164
-0.00173473
0.00716686
0.0159193
0.0245523
0.0331038
0.0416288
0.0502075
0.0589533
0.0680202
0.0776102
0.0879806
0.0994501
0.112405
0.127304
0.144677
0.165121
0.189282
0.217802
0.251232
0.289827
0.333189
0.379732
0.426178
0.466349
0.486694
0.472626
-0.208608
-0.215941
-0.196423
-0.167947
-0.140789
-0.116927
-0.0965257
-0.0792249
-0.0644085
-0.0514551
-0.0398499
-0.0292023
-0.0192314
-0.00974342
-0.000608281
0.00826156
0.0169289
0.0254464
0.0338691
0.0422655
0.0507265
0.0593752
0.068375
0.0779384
0.088336
0.099905
0.11306
0.128301
0.146229
0.167551
0.19309
0.223771
0.260579
0.304426
0.355836
0.414387
0.477837
0.539962
0.584398
0.588328
-0.317627
-0.300162
-0.252228
-0.202229
-0.160322
-0.126775
-0.100314
-0.079388
-0.06251
-0.0484764
-0.0363963
-0.0256388
-0.0157711
-0.00650389
0.00235271
0.0109239
0.0192961
0.0275369
0.0357108
0.0438921
0.0521762
0.0606891
0.0695976
0.0791186
0.0895293
0.101179
0.1145
0.130031
0.14843
0.170509
0.197267
0.229933
0.269999
0.31921
0.379437
0.452288
0.537927
0.631899
0.718336
0.766122
-0.509704
-0.41641
-0.313271
-0.231935
-0.171509
-0.127463
-0.0956701
-0.0723866
-0.054747
-0.0407831
-0.0291833
-0.0190831
-0.00992276
-0.00134636
0.00686938
0.0148645
0.0227301
0.030533
0.0383341
0.0462028
0.0542286
0.0625322
0.071275
0.0806696
0.0909907
0.102588
0.115902
0.131487
0.15004
0.172448
0.199855
0.233768
0.276206
0.329901
0.398558
0.486974
0.599782
0.738497
0.90053
1.05522
-0.900367
-0.568579
-0.351698
-0.232103
-0.156814
-0.107472
-0.0753452
-0.0538035
-0.0384892
-0.0268411
-0.0173398
-0.00906122
-0.0014477
0.00583039
0.0129629
0.0200566
0.0271718
0.0343479
0.0416212
0.0490388
0.0566701
0.0646166
0.0730216
0.0820801
0.0920489
0.10326
0.116137
0.131216
0.149181
0.170916
0.197592
0.230814
0.272877
0.327233
0.399361
0.498043
0.635652
0.831557
1.13901
1.57648
-1.60887
-0.714149
-0.310965
-0.165764
-0.0955564
-0.0559165
-0.0337759
-0.0208718
-0.0124332
-0.00610483
-0.000701328
0.00440875
0.00955681
0.0149022
0.0205071
0.0263815
0.0325111
0.0388755
0.0454621
0.052276
0.0593497
0.0667507
0.0745893
0.0830273
0.0922866
0.10266
0.114524
0.128357
0.144768
0.164532
0.188667
0.218562
0.256222
0.304811
0.369918
0.462394
0.603764
0.847065
1.36694
2.38055
)
;

boundaryField
{
    movingWall
    {
        type            zeroGradient;
    }
    fixedWalls
    {
        type            zeroGradient;
    }
    frontAndBack
    {
        type            empty;
    }
}


// ************************************************************************* //
