/*--------------------------------*- C++ -*----------------------------------*\
  =========                 |
  \\      /  F ield         | OpenFOAM: The Open Source CFD Toolbox
   \\    /   O peration     | Website:  https://openfoam.org
    \\  /    A nd           | Version:  6.0
     \\/     M anipulation  |
\*---------------------------------------------------------------------------*/
FoamFile
{
    version     2.0;
    format      ascii;
    class       volScalarField;
    location    "116";
    object      p;
}
// * * * * * * * * * * * * * * * * * * * * * * * * * * * * * * * * * * * * * //

dimensions      [0 2 -2 0 0 0 0];

internalField   nonuniform List<scalar> 
34500
(
1.00791
1.00831
1.00849
1.00849
1.00827
1.00789
1.00735
1.00674
1.00606
1.00537
1.00464
1.00402
1.00314
1.00283
1.00263
1.00791
1.00835
1.00862
1.00874
1.00868
1.00846
1.00808
1.00762
1.00705
1.00645
1.00574
1.00514
1.00415
1.00405
1.00362
1.00792
1.00834
1.00857
1.00863
1.0085
1.00822
1.00777
1.00724
1.00661
1.00597
1.00525
1.00466
1.00376
1.00394
1.00361
1.00792
1.00832
1.00852
1.00854
1.00837
1.00803
1.00754
1.00696
1.00631
1.00565
1.00494
1.00439
1.00361
1.004
1.00401
1.00792
1.00833
1.00854
1.00856
1.0084
1.00807
1.0076
1.00704
1.0064
1.00577
1.00508
1.00456
1.00383
1.00433
1.00451
1.00793
1.00835
1.00856
1.0086
1.00845
1.00815
1.0077
1.00717
1.00655
1.00593
1.00526
1.00475
1.00406
1.00461
1.00487
1.00794
1.00836
1.00858
1.00861
1.00847
1.00817
1.00773
1.00721
1.0066
1.00599
1.00533
1.00484
1.00418
1.00478
1.00515
1.00795
1.00837
1.00859
1.00862
1.00848
1.00818
1.00774
1.00722
1.00661
1.00601
1.00536
1.0049
1.00429
1.00492
1.00539
1.00796
1.00838
1.0086
1.00864
1.00849
1.0082
1.00777
1.00725
1.00665
1.00606
1.00543
1.00498
1.00441
1.00507
1.00561
1.00798
1.0084
1.00862
1.00867
1.00852
1.00823
1.0078
1.00729
1.00671
1.00613
1.0055
1.00508
1.00454
1.0052
1.00579
1.00799
1.00842
1.00865
1.0087
1.00856
1.00827
1.00785
1.00734
1.00676
1.00619
1.00558
1.00517
1.00467
1.00531
1.00594
1.00801
1.00844
1.00867
1.00873
1.00859
1.00831
1.00789
1.00739
1.00682
1.00625
1.00565
1.00525
1.00478
1.00541
1.00606
1.00803
1.00846
1.0087
1.00876
1.00863
1.00835
1.00794
1.00744
1.00687
1.00631
1.00572
1.00533
1.00489
1.0055
1.00617
1.00804
1.00848
1.00872
1.00879
1.00867
1.0084
1.00799
1.0075
1.00693
1.00638
1.0058
1.00542
1.005
1.00559
1.00625
1.00806
1.0085
1.00875
1.00882
1.00871
1.00844
1.00804
1.00755
1.00699
1.00644
1.00587
1.0055
1.0051
1.00566
1.00632
1.00809
1.00853
1.00877
1.00885
1.00874
1.00848
1.00808
1.0076
1.00704
1.0065
1.00593
1.00557
1.0052
1.00572
1.00637
1.00811
1.00855
1.0088
1.00888
1.00878
1.00852
1.00813
1.00765
1.0071
1.00656
1.006
1.00564
1.00528
1.00578
1.00641
1.00813
1.00858
1.00883
1.00891
1.00881
1.00856
1.00817
1.00769
1.00715
1.00661
1.00606
1.00571
1.00537
1.00583
1.00645
1.00816
1.0086
1.00886
1.00894
1.00884
1.00859
1.00821
1.00774
1.00719
1.00666
1.00612
1.00577
1.00545
1.00588
1.00647
1.00818
1.00863
1.00889
1.00897
1.00887
1.00863
1.00825
1.00778
1.00724
1.00671
1.00618
1.00583
1.00552
1.00592
1.00649
1.00821
1.00867
1.00892
1.00901
1.00891
1.00867
1.00829
1.00783
1.00729
1.00677
1.00623
1.00589
1.00559
1.00596
1.0065
1.00824
1.0087
1.00896
1.00904
1.00895
1.00871
1.00833
1.00787
1.00734
1.00682
1.00629
1.00595
1.00566
1.00599
1.00651
1.00827
1.00873
1.00899
1.00908
1.00899
1.00875
1.00838
1.00792
1.00739
1.00687
1.00635
1.006
1.00572
1.00603
1.00651
1.00831
1.00877
1.00903
1.00912
1.00903
1.0088
1.00842
1.00797
1.00744
1.00692
1.0064
1.00606
1.00578
1.00605
1.00651
1.00834
1.00881
1.00907
1.00917
1.00908
1.00884
1.00847
1.00802
1.00749
1.00697
1.00646
1.00611
1.00584
1.00608
1.00651
1.00838
1.00885
1.00912
1.00921
1.00913
1.00889
1.00852
1.00807
1.00754
1.00703
1.00651
1.00617
1.00589
1.00611
1.0065
1.00841
1.00889
1.00916
1.00926
1.00917
1.00894
1.00857
1.00812
1.0076
1.00708
1.00657
1.00622
1.00595
1.00613
1.00649
1.00845
1.00893
1.00921
1.00931
1.00922
1.00899
1.00863
1.00818
1.00765
1.00714
1.00663
1.00627
1.006
1.00615
1.00648
1.00849
1.00897
1.00925
1.00936
1.00928
1.00905
1.00868
1.00823
1.00771
1.00719
1.00668
1.00632
1.00605
1.00617
1.00647
1.00853
1.00902
1.0093
1.00941
1.00933
1.0091
1.00874
1.00829
1.00777
1.00725
1.00674
1.00637
1.00609
1.00619
1.00645
1.00858
1.00907
1.00935
1.00946
1.00939
1.00916
1.0088
1.00835
1.00782
1.0073
1.00679
1.00642
1.00613
1.0062
1.00644
1.00862
1.00911
1.0094
1.00952
1.00944
1.00922
1.00886
1.0084
1.00788
1.00735
1.00684
1.00646
1.00617
1.00621
1.00642
1.00866
1.00916
1.00946
1.00957
1.0095
1.00928
1.00892
1.00846
1.00793
1.00741
1.00688
1.0065
1.0062
1.00622
1.0064
1.00871
1.00921
1.00951
1.00963
1.00956
1.00933
1.00897
1.00851
1.00798
1.00745
1.00693
1.00654
1.00623
1.00623
1.00638
1.00876
1.00927
1.00956
1.00968
1.00962
1.00939
1.00903
1.00857
1.00804
1.0075
1.00697
1.00657
1.00626
1.00623
1.00636
1.00881
1.00932
1.00962
1.00974
1.00967
1.00945
1.00908
1.00862
1.00809
1.00755
1.00702
1.00661
1.00629
1.00624
1.00633
1.00886
1.00938
1.00968
1.0098
1.00973
1.00951
1.00914
1.00867
1.00814
1.00759
1.00706
1.00664
1.00632
1.00624
1.00631
1.00892
1.00943
1.00974
1.00986
1.00979
1.00956
1.0092
1.00873
1.00819
1.00764
1.0071
1.00667
1.00634
1.00624
1.00629
1.00897
1.00949
1.0098
1.00992
1.00985
1.00962
1.00926
1.00878
1.00824
1.00769
1.00714
1.00671
1.00636
1.00624
1.00627
1.00903
1.00955
1.00986
1.00998
1.00992
1.00969
1.00931
1.00884
1.00829
1.00773
1.00718
1.00674
1.00638
1.00624
1.00624
1.00909
1.00962
1.00993
1.01005
1.00998
1.00975
1.00938
1.0089
1.00835
1.00778
1.00722
1.00677
1.00641
1.00624
1.00622
1.00914
1.00968
1.00999
1.01012
1.01005
1.00982
1.00944
1.00896
1.0084
1.00783
1.00727
1.0068
1.00642
1.00624
1.00619
1.00921
1.00975
1.01006
1.01019
1.01012
1.00989
1.00951
1.00902
1.00846
1.00788
1.00731
1.00683
1.00644
1.00624
1.00617
1.00927
1.00981
1.01013
1.01026
1.01019
1.00996
1.00958
1.00908
1.00851
1.00793
1.00735
1.00686
1.00646
1.00623
1.00614
1.00933
1.00988
1.0102
1.01034
1.01027
1.01003
1.00964
1.00915
1.00857
1.00798
1.00739
1.00689
1.00647
1.00623
1.00611
1.0094
1.00995
1.01028
1.01041
1.01034
1.0101
1.00972
1.00921
1.00863
1.00803
1.00743
1.00691
1.00648
1.00622
1.00608
1.00947
1.01003
1.01035
1.01049
1.01042
1.01018
1.00979
1.00928
1.00869
1.00807
1.00746
1.00693
1.00649
1.00621
1.00606
1.00954
1.0101
1.01043
1.01057
1.0105
1.01025
1.00986
1.00934
1.00874
1.00812
1.0075
1.00696
1.0065
1.0062
1.00603
1.00961
1.01018
1.01051
1.01065
1.01058
1.01033
1.00993
1.0094
1.0088
1.00816
1.00753
1.00698
1.00651
1.00619
1.00599
1.00968
1.01025
1.01059
1.01073
1.01066
1.0104
1.01
1.00947
1.00885
1.00821
1.00756
1.00699
1.00651
1.00618
1.00596
1.00976
1.01033
1.01067
1.01081
1.01074
1.01048
1.01007
1.00953
1.0089
1.00825
1.0076
1.00701
1.00652
1.00616
1.00593
1.00983
1.01041
1.01075
1.01089
1.01082
1.01056
1.01014
1.00959
1.00896
1.00829
1.00763
1.00703
1.00652
1.00615
1.0059
1.00991
1.0105
1.01084
1.01098
1.0109
1.01064
1.01021
1.00966
1.00901
1.00834
1.00766
1.00705
1.00653
1.00613
1.00587
1.00999
1.01058
1.01093
1.01106
1.01098
1.01072
1.01028
1.00972
1.00907
1.00838
1.00769
1.00707
1.00653
1.00612
1.00583
1.01008
1.01067
1.01102
1.01115
1.01107
1.0108
1.01036
1.00979
1.00913
1.00843
1.00772
1.00708
1.00653
1.0061
1.0058
1.01016
1.01076
1.01111
1.01125
1.01116
1.01089
1.01044
1.00986
1.00919
1.00847
1.00776
1.0071
1.00653
1.00608
1.00576
1.01025
1.01085
1.0112
1.01134
1.01126
1.01097
1.01052
1.00993
1.00925
1.00852
1.00779
1.00711
1.00653
1.00606
1.00573
1.01033
1.01094
1.0113
1.01144
1.01135
1.01107
1.0106
1.01
1.00931
1.00856
1.00782
1.00713
1.00652
1.00604
1.00569
1.01042
1.01103
1.0114
1.01154
1.01145
1.01116
1.01069
1.01008
1.00937
1.00861
1.00785
1.00714
1.00652
1.00602
1.00565
1.01051
1.01113
1.0115
1.01164
1.01155
1.01125
1.01077
1.01015
1.00943
1.00865
1.00788
1.00715
1.00651
1.00599
1.00561
1.01061
1.01123
1.0116
1.01174
1.01164
1.01134
1.01086
1.01022
1.00948
1.0087
1.0079
1.00716
1.0065
1.00597
1.00557
1.0107
1.01133
1.0117
1.01184
1.01174
1.01143
1.01094
1.01029
1.00954
1.00874
1.00793
1.00717
1.00649
1.00594
1.00552
1.0108
1.01143
1.01181
1.01194
1.01184
1.01153
1.01102
1.01037
1.0096
1.00878
1.00795
1.00717
1.00648
1.00591
1.00548
1.0109
1.01153
1.01191
1.01205
1.01195
1.01162
1.01111
1.01044
1.00966
1.00882
1.00797
1.00718
1.00647
1.00588
1.00543
1.011
1.01164
1.01202
1.01216
1.01205
1.01172
1.01119
1.01051
1.00971
1.00886
1.008
1.00718
1.00646
1.00585
1.00539
1.01111
1.01175
1.01213
1.01227
1.01215
1.01182
1.01128
1.01058
1.00977
1.0089
1.00802
1.00719
1.00644
1.00582
1.00534
1.01121
1.01186
1.01225
1.01238
1.01226
1.01192
1.01137
1.01066
1.00983
1.00894
1.00804
1.00719
1.00643
1.00579
1.00529
1.01132
1.01197
1.01236
1.01249
1.01237
1.01202
1.01146
1.01073
1.00989
1.00898
1.00807
1.0072
1.00642
1.00576
1.00525
1.01143
1.01209
1.01248
1.01261
1.01249
1.01212
1.01155
1.01081
1.00995
1.00903
1.00809
1.0072
1.0064
1.00572
1.0052
1.01154
1.01221
1.0126
1.01273
1.0126
1.01223
1.01165
1.01089
1.01002
1.00907
1.00812
1.0072
1.00638
1.00569
1.00514
1.01166
1.01233
1.01273
1.01286
1.01272
1.01234
1.01175
1.01098
1.01008
1.00912
1.00814
1.00721
1.00637
1.00565
1.00509
1.01178
1.01245
1.01285
1.01298
1.01284
1.01246
1.01185
1.01106
1.01015
1.00916
1.00817
1.00721
1.00635
1.00561
1.00503
1.01189
1.01258
1.01298
1.01311
1.01297
1.01257
1.01195
1.01115
1.01022
1.00921
1.00819
1.00721
1.00632
1.00557
1.00498
1.01202
1.0127
1.01311
1.01324
1.01309
1.01269
1.01206
1.01124
1.01028
1.00925
1.00821
1.00721
1.0063
1.00553
1.00492
1.01214
1.01283
1.01324
1.01338
1.01322
1.01281
1.01216
1.01133
1.01035
1.0093
1.00823
1.0072
1.00627
1.00548
1.00486
1.01227
1.01297
1.01338
1.01351
1.01335
1.01293
1.01227
1.01141
1.01041
1.00934
1.00824
1.00719
1.00624
1.00543
1.00479
1.01239
1.0131
1.01352
1.01365
1.01348
1.01305
1.01237
1.0115
1.01048
1.00938
1.00826
1.00718
1.00621
1.00538
1.00473
1.01252
1.01324
1.01366
1.01378
1.01361
1.01317
1.01248
1.01158
1.01054
1.00941
1.00827
1.00717
1.00618
1.00533
1.00466
1.01266
1.01338
1.0138
1.01392
1.01374
1.01329
1.01258
1.01166
1.0106
1.00945
1.00828
1.00716
1.00615
1.00528
1.00459
1.01279
1.01352
1.01394
1.01406
1.01388
1.01341
1.01268
1.01175
1.01066
1.00949
1.0083
1.00715
1.00611
1.00523
1.00452
1.01293
1.01366
1.01409
1.01421
1.01401
1.01353
1.01279
1.01184
1.01073
1.00953
1.00831
1.00714
1.00608
1.00517
1.00445
1.01307
1.01381
1.01424
1.01435
1.01415
1.01366
1.0129
1.01192
1.01079
1.00957
1.00832
1.00713
1.00604
1.00511
1.00438
1.01322
1.01396
1.01439
1.0145
1.0143
1.01379
1.01301
1.01202
1.01086
1.00961
1.00834
1.00711
1.006
1.00506
1.0043
1.01336
1.01412
1.01455
1.01466
1.01444
1.01392
1.01313
1.01211
1.01093
1.00965
1.00835
1.0071
1.00597
1.005
1.00423
1.01351
1.01427
1.01471
1.01482
1.01459
1.01406
1.01325
1.01221
1.011
1.00969
1.00836
1.00709
1.00593
1.00493
1.00414
1.01366
1.01443
1.01487
1.01498
1.01475
1.0142
1.01337
1.01231
1.01107
1.00973
1.00838
1.00707
1.00588
1.00487
1.00406
1.01382
1.0146
1.01504
1.01514
1.0149
1.01435
1.0135
1.01241
1.01114
1.00978
1.00839
1.00705
1.00584
1.0048
1.00398
1.01398
1.01476
1.0152
1.01531
1.01506
1.01449
1.01362
1.01251
1.01121
1.00982
1.0084
1.00703
1.00579
1.00473
1.00389
1.01414
1.01493
1.01538
1.01548
1.01523
1.01464
1.01375
1.01261
1.01129
1.00986
1.00841
1.00701
1.00574
1.00466
1.0038
1.0143
1.01511
1.01555
1.01566
1.01539
1.01479
1.01388
1.01271
1.01136
1.0099
1.00841
1.00699
1.00569
1.00458
1.00371
1.01447
1.01528
1.01573
1.01583
1.01556
1.01494
1.01401
1.01281
1.01143
1.00994
1.00842
1.00696
1.00564
1.00451
1.00361
1.01464
1.01546
1.01591
1.01601
1.01573
1.0151
1.01414
1.01292
1.0115
1.00998
1.00843
1.00694
1.00558
1.00443
1.00352
1.01481
1.01565
1.0161
1.0162
1.0159
1.01525
1.01428
1.01303
1.01158
1.01002
1.00843
1.00691
1.00553
1.00435
1.00341
1.01499
1.01583
1.01629
1.01638
1.01608
1.01541
1.01441
1.01313
1.01165
1.01006
1.00844
1.00688
1.00547
1.00426
1.00331
1.01517
1.01602
1.01648
1.01657
1.01626
1.01558
1.01455
1.01324
1.01173
1.0101
1.00844
1.00685
1.00541
1.00418
1.0032
1.01535
1.01621
1.01668
1.01677
1.01644
1.01574
1.0147
1.01336
1.01181
1.01014
1.00845
1.00682
1.00534
1.00409
1.00309
1.01553
1.01641
1.01687
1.01696
1.01663
1.01591
1.01484
1.01347
1.01189
1.01018
1.00845
1.00678
1.00527
1.00399
1.00298
1.01572
1.01661
1.01708
1.01716
1.01682
1.01608
1.01499
1.01358
1.01196
1.01021
1.00844
1.00674
1.0052
1.00389
1.00286
1.01592
1.01681
1.01728
1.01736
1.01701
1.01626
1.01513
1.0137
1.01204
1.01025
1.00844
1.0067
1.00512
1.00379
1.00274
1.01611
1.01702
1.01749
1.01757
1.0172
1.01643
1.01528
1.01381
1.01211
1.01028
1.00843
1.00665
1.00504
1.00368
1.00261
1.01631
1.01723
1.0177
1.01778
1.0174
1.01661
1.01543
1.01392
1.01218
1.01031
1.00842
1.0066
1.00496
1.00357
1.00248
1.01652
1.01745
1.01792
1.01799
1.0176
1.01679
1.01558
1.01403
1.01225
1.01034
1.0084
1.00655
1.00488
1.00346
1.00235
1.01672
1.01767
1.01814
1.01821
1.0178
1.01697
1.01573
1.01415
1.01232
1.01037
1.00839
1.0065
1.00479
1.00335
1.00222
1.01694
1.01789
1.01837
1.01843
1.01801
1.01715
1.01588
1.01426
1.0124
1.01039
1.00837
1.00644
1.0047
1.00323
1.00208
1.01715
1.01812
1.0186
1.01865
1.01822
1.01734
1.01603
1.01438
1.01247
1.01042
1.00836
1.00639
1.00461
1.00312
1.00194
1.01737
1.01835
1.01883
1.01888
1.01843
1.01753
1.01619
1.0145
1.01255
1.01046
1.00835
1.00634
1.00452
1.003
1.0018
1.0176
1.01859
1.01907
1.01912
1.01865
1.01772
1.01635
1.01462
1.01263
1.01049
1.00834
1.00628
1.00443
1.00287
1.00165
1.01783
1.01883
1.01932
1.01936
1.01888
1.01793
1.01652
1.01475
1.01271
1.01053
1.00832
1.00623
1.00434
1.00275
1.0015
1.01806
1.01908
1.01957
1.01961
1.01911
1.01814
1.0167
1.01488
1.0128
1.01056
1.00831
1.00617
1.00424
1.00262
1.00135
1.0183
1.01933
1.01982
1.01986
1.01935
1.01835
1.01688
1.01502
1.01289
1.0106
1.0083
1.00611
1.00414
1.00248
1.00118
1.01854
1.01959
1.02008
1.02012
1.0196
1.01857
1.01707
1.01516
1.01298
1.01064
1.00829
1.00605
1.00403
1.00234
1.00102
1.01879
1.01985
1.02035
1.02038
1.01985
1.0188
1.01725
1.01531
1.01307
1.01068
1.00827
1.00598
1.00392
1.0022
1.00085
1.01904
1.02012
1.02062
1.02065
1.0201
1.01903
1.01745
1.01545
1.01316
1.01071
1.00825
1.00591
1.00381
1.00205
1.00067
1.0193
1.02039
1.0209
1.02093
1.02036
1.01926
1.01764
1.0156
1.01325
1.01075
1.00823
1.00583
1.00369
1.00189
1.00049
1.01956
1.02067
1.02118
1.02121
1.02062
1.01949
1.01783
1.01574
1.01334
1.01077
1.0082
1.00575
1.00356
1.00173
1.0003
1.01983
1.02095
1.02146
1.02149
1.02089
1.01973
1.01803
1.01588
1.01342
1.0108
1.00816
1.00566
1.00343
1.00156
1.00011
1.0201
1.02124
1.02176
1.02177
1.02116
1.01997
1.01823
1.01603
1.01351
1.01082
1.00812
1.00557
1.00329
1.00139
0.999908
1.02037
1.02153
1.02205
1.02207
1.02143
1.02021
1.01842
1.01617
1.01359
1.01084
1.00808
1.00547
1.00315
1.00121
0.999704
1.02066
1.02183
1.02235
1.02236
1.02171
1.02045
1.01862
1.01631
1.01367
1.01085
1.00804
1.00537
1.003
1.00103
0.999496
1.02094
1.02213
1.02266
1.02266
1.02199
1.0207
1.01882
1.01645
1.01375
1.01087
1.00799
1.00527
1.00285
1.00084
0.999282
1.02124
1.02244
1.02297
1.02297
1.02228
1.02095
1.01902
1.0166
1.01383
1.01088
1.00794
1.00516
1.00269
1.00065
0.999064
1.02154
1.02276
1.02329
1.02328
1.02257
1.02121
1.01923
1.01674
1.0139
1.01089
1.00788
1.00505
1.00254
1.00045
0.99884
1.02184
1.02308
1.02362
1.0236
1.02287
1.02147
1.01944
1.01689
1.01399
1.0109
1.00783
1.00494
1.00237
1.00025
0.99861
1.02215
1.02341
1.02395
1.02393
1.02317
1.02174
1.01966
1.01705
1.01407
1.01091
1.00777
1.00482
1.00221
1.00005
0.998375
1.02247
1.02375
1.0243
1.02427
1.02348
1.02201
1.01988
1.0172
1.01415
1.01092
1.00771
1.0047
1.00204
0.999834
0.998134
1.0228
1.02409
1.02464
1.02461
1.0238
1.02229
1.0201
1.01736
1.01424
1.01093
1.00765
1.00458
1.00186
0.999617
0.997886
1.02313
1.02444
1.025
1.02496
1.02413
1.02258
1.02033
1.01752
1.01432
1.01094
1.00759
1.00445
1.00168
0.999393
0.997632
1.02346
1.0248
1.02536
1.02532
1.02446
1.02287
1.02057
1.01769
1.01441
1.01095
1.00753
1.00432
1.00149
0.999163
0.997371
1.02381
1.02516
1.02573
1.02568
1.02481
1.02317
1.02081
1.01786
1.0145
1.01096
1.00746
1.00418
1.0013
0.998926
0.997103
1.02416
1.02554
1.02611
1.02606
1.02515
1.02348
1.02106
1.01803
1.01459
1.01096
1.00738
1.00404
1.0011
0.998682
0.996828
1.02452
1.02592
1.0265
1.02644
1.02551
1.02379
1.0213
1.0182
1.01467
1.01097
1.0073
1.00389
1.00089
0.998431
0.996545
1.02488
1.0263
1.02689
1.02683
1.02587
1.02411
1.02156
1.01837
1.01476
1.01096
1.00722
1.00374
1.00068
0.998172
0.996254
1.02525
1.0267
1.02729
1.02722
1.02624
1.02443
1.02181
1.01854
1.01484
1.01096
1.00713
1.00358
1.00045
0.997906
0.995956
1.02563
1.0271
1.0277
1.02763
1.02662
1.02476
1.02207
1.01872
1.01493
1.01095
1.00704
1.00341
1.00023
0.997631
0.99565
1.02602
1.02751
1.02812
1.02804
1.027
1.02509
1.02233
1.01889
1.01501
1.01094
1.00693
1.00323
0.999989
0.99735
0.995337
1.02641
1.02793
1.02855
1.02846
1.02739
1.02543
1.0226
1.01907
1.01509
1.01092
1.00683
1.00305
0.999745
0.99706
0.995015
1.02682
1.02836
1.02899
1.02889
1.02779
1.02578
1.02287
1.01925
1.01516
1.0109
1.00672
1.00286
0.999493
0.996762
0.994685
1.02723
1.0288
1.02943
1.02933
1.0282
1.02613
1.02314
1.01942
1.01524
1.01087
1.0066
1.00266
0.999233
0.996455
0.994346
1.02765
1.02924
1.02989
1.02977
1.02861
1.02648
1.02342
1.0196
1.01531
1.01084
1.00647
1.00246
0.998966
0.996141
0.994
1.02808
1.0297
1.03035
1.03023
1.02904
1.02685
1.0237
1.01978
1.01538
1.01081
1.00634
1.00225
0.99869
0.995818
0.993644
1.02852
1.03016
1.03083
1.0307
1.02947
1.02722
1.02398
1.01996
1.01545
1.01077
1.00621
1.00203
0.998406
0.995486
0.99328
1.02896
1.03064
1.03131
1.03117
1.02991
1.0276
1.02427
1.02014
1.01552
1.01072
1.00606
1.0018
0.998113
0.995145
0.992907
1.02942
1.03113
1.03181
1.03166
1.03036
1.02798
1.02456
1.02033
1.01558
1.01067
1.00591
1.00156
0.997811
0.994795
0.992524
1.02988
1.03162
1.03231
1.03216
1.03082
1.02837
1.02486
1.02051
1.01565
1.01062
1.00575
1.00132
0.9975
0.994435
0.992133
1.03036
1.03213
1.03283
1.03267
1.03129
1.02877
1.02516
1.02069
1.01571
1.01056
1.00559
1.00107
0.99718
0.994066
0.991731
1.03084
1.03265
1.03336
1.03319
1.03177
1.02918
1.02546
1.02088
1.01576
1.01049
1.00542
1.00081
0.99685
0.993687
0.99132
1.03134
1.03318
1.0339
1.03372
1.03226
1.02959
1.02577
1.02106
1.01582
1.01042
1.00523
1.00054
0.99651
0.993298
0.990899
1.03184
1.03372
1.03445
1.03426
1.03276
1.03001
1.02609
1.02125
1.01587
1.01034
1.00504
1.00025
0.996159
0.992898
0.990467
1.03236
1.03427
1.03502
1.03482
1.03327
1.03045
1.0264
1.02143
1.01591
1.01026
1.00484
0.999963
0.995798
0.992488
0.990025
1.03289
1.03483
1.0356
1.03538
1.03379
1.03088
1.02673
1.02161
1.01595
1.01017
1.00464
0.999661
0.995425
0.992066
0.989572
1.03343
1.03541
1.03619
1.03596
1.03432
1.03133
1.02705
1.0218
1.01599
1.01007
1.00442
0.999348
0.995041
0.991634
0.989109
1.03398
1.036
1.03679
1.03656
1.03487
1.03178
1.02738
1.02198
1.01602
1.00996
1.00419
0.999023
0.994646
0.991189
0.988634
1.03454
1.0366
1.03741
1.03716
1.03542
1.03224
1.02771
1.02216
1.01605
1.00984
1.00395
0.998687
0.994238
0.990733
0.988148
1.03512
1.03722
1.03804
1.03778
1.03599
1.03271
1.02805
1.02234
1.01606
1.00971
1.0037
0.998338
0.993818
0.990265
0.98765
1.03571
1.03785
1.03869
1.03842
1.03657
1.03319
1.02838
1.02252
1.01608
1.00957
1.00343
0.997977
0.993386
0.989784
0.987141
1.03631
1.03849
1.03935
1.03907
1.03716
1.03368
1.02873
1.02269
1.01608
1.00943
1.00316
0.997603
0.99294
0.989291
0.986619
1.03692
1.03915
1.04003
1.03973
1.03776
1.03417
1.02907
1.02286
1.01608
1.00927
1.00287
0.997215
0.992481
0.988785
0.986086
1.03755
1.03982
1.04072
1.04041
1.03838
1.03467
1.02942
1.02303
1.01607
1.0091
1.00257
0.996814
0.992008
0.988266
0.98554
1.03819
1.04051
1.04143
1.0411
1.03901
1.03519
1.02977
1.02319
1.01605
1.00892
1.00225
0.996398
0.991522
0.987733
0.984982
1.03885
1.04122
1.04215
1.04182
1.03965
1.0357
1.03012
1.02335
1.01603
1.00872
1.00193
0.995967
0.99102
0.987187
0.984411
1.03952
1.04194
1.04289
1.04254
1.04031
1.03623
1.03047
1.02351
1.01599
1.00852
1.00158
0.995521
0.990504
0.986627
0.983827
1.0402
1.04268
1.04366
1.04329
1.04098
1.03677
1.03082
1.02366
1.01594
1.00829
1.00122
0.995059
0.989972
0.986052
0.98323
1.0409
1.04344
1.04443
1.04405
1.04166
1.03731
1.03118
1.0238
1.01588
1.00806
1.00085
0.994581
0.989425
0.985463
0.982619
1.04162
1.04421
1.04523
1.04483
1.04236
1.03786
1.03153
1.02394
1.01581
1.00781
1.00045
0.994086
0.988862
0.984858
0.981994
1.04236
1.04501
1.04605
1.04563
1.04307
1.03843
1.03189
1.02407
1.01573
1.00754
1.00004
0.993574
0.988282
0.984239
0.981356
1.04311
1.04582
1.04689
1.04645
1.0438
1.03899
1.03225
1.0242
1.01563
1.00726
0.999614
0.993043
0.987686
0.983604
0.980704
1.04388
1.04665
1.04775
1.04728
1.04455
1.03957
1.0326
1.02431
1.01552
1.00695
0.999167
0.992495
0.987072
0.982953
0.980037
1.04467
1.0475
1.04862
1.04814
1.04531
1.04016
1.03295
1.02441
1.01539
1.00663
0.9987
0.991927
0.98644
0.982286
0.979355
1.04547
1.04838
1.04953
1.04902
1.04608
1.04075
1.0333
1.02451
1.01524
1.00629
0.998213
0.99134
0.985791
0.981603
0.978659
1.0463
1.04927
1.05045
1.04992
1.04687
1.04135
1.03365
1.02459
1.01508
1.00593
0.997705
0.990732
0.985122
0.980903
0.977948
1.04714
1.05019
1.0514
1.05084
1.04768
1.04195
1.034
1.02466
1.0149
1.00555
0.997175
0.990104
0.984435
0.980186
0.977221
1.04801
1.05113
1.05237
1.05179
1.04851
1.04257
1.03434
1.02471
1.0147
1.00514
0.996623
0.989454
0.983728
0.979451
0.976479
1.0489
1.05209
1.05337
1.05276
1.04935
1.04319
1.03467
1.02475
1.01448
1.00472
0.996047
0.988782
0.983002
0.978699
0.975721
1.04981
1.05308
1.05439
1.05375
1.05021
1.04381
1.035
1.02478
1.01423
1.00426
0.995446
0.988087
0.982255
0.977928
0.974948
1.05074
1.05409
1.05544
1.05477
1.05108
1.04444
1.03532
1.02478
1.01396
1.00378
0.99482
0.98737
0.981487
0.97714
0.974158
1.05169
1.05513
1.05652
1.05581
1.05198
1.04507
1.03563
1.02477
1.01367
1.00328
0.994168
0.986628
0.980698
0.976332
0.973352
1.05267
1.0562
1.05763
1.05688
1.05289
1.04571
1.03593
1.02473
1.01335
1.00274
0.993489
0.985862
0.979887
0.975506
0.972529
1.05367
1.0573
1.05877
1.05798
1.05382
1.04635
1.03622
1.02468
1.013
1.00218
0.992782
0.98507
0.979054
0.97466
0.971689
1.0547
1.05842
1.05994
1.0591
1.05476
1.047
1.0365
1.02459
1.01263
1.00159
0.992046
0.984253
0.978199
0.973795
0.970833
1.05576
1.05958
1.06114
1.06025
1.05572
1.04764
1.03676
1.02449
1.01222
1.00096
0.99128
0.983409
0.97732
0.97291
0.96996
1.05684
1.06076
1.06237
1.06143
1.0567
1.04828
1.037
1.02435
1.01177
1.0003
0.990483
0.982538
0.976419
0.972006
0.969069
1.05795
1.06198
1.06364
1.06265
1.0577
1.04892
1.03723
1.02418
1.0113
0.999605
0.989655
0.981639
0.975493
0.97108
0.968161
1.05909
1.06324
1.06494
1.06389
1.05871
1.04956
1.03743
1.02398
1.01078
0.998874
0.988794
0.980711
0.974543
0.970134
0.967235
1.06026
1.06452
1.06629
1.06516
1.05974
1.05019
1.03761
1.02375
1.01023
0.998106
0.987898
0.979754
0.973568
0.969167
0.966291
1.06146
1.06585
1.06767
1.06647
1.06079
1.05082
1.03776
1.02348
1.00964
0.997298
0.986969
0.978768
0.972568
0.96818
0.96533
1.0627
1.06721
1.06909
1.06781
1.06184
1.05144
1.03789
1.02317
1.009
0.99645
0.986003
0.977751
0.971542
0.96717
0.96435
1.06397
1.06861
1.07055
1.06919
1.06292
1.05205
1.03798
1.02281
1.00832
0.99556
0.985001
0.976703
0.970491
0.966139
0.963352
1.06527
1.07005
1.07205
1.0706
1.06401
1.05264
1.03804
1.02241
1.00759
0.994627
0.98396
0.975623
0.969413
0.965087
0.962336
1.06661
1.07154
1.0736
1.07204
1.0651
1.05321
1.03805
1.02196
1.00681
0.993648
0.982881
0.974512
0.968309
0.964012
0.961302
1.06799
1.07307
1.0752
1.07352
1.06621
1.05377
1.03803
1.02146
1.00598
0.992622
0.981763
0.973367
0.967178
0.962915
0.960249
1.0694
1.07464
1.07685
1.07504
1.06733
1.0543
1.03796
1.0209
1.00509
0.991548
0.980603
0.972189
0.96602
0.961797
0.959177
1.07086
1.07627
1.07854
1.07659
1.06845
1.05481
1.03784
1.02029
1.00415
0.990424
0.979402
0.970977
0.964834
0.960655
0.958087
1.07236
1.07794
1.08029
1.07818
1.06958
1.05528
1.03767
1.01961
1.00315
0.98925
0.978159
0.969731
0.963621
0.959492
0.956979
1.0739
1.07967
1.0821
1.07981
1.07071
1.05572
1.03743
1.01887
1.00208
0.988022
0.976873
0.96845
0.96238
0.958305
0.955851
1.07549
1.08145
1.08396
1.08148
1.07184
1.05612
1.03714
1.01805
1.00096
0.986739
0.975542
0.967134
0.961111
0.957096
0.954706
1.07712
1.08329
1.08588
1.08318
1.07296
1.05647
1.03677
1.01716
0.999761
0.985401
0.974167
0.965782
0.959813
0.955864
0.953541
1.07881
1.08519
1.08786
1.08492
1.07408
1.05677
1.03633
1.0162
0.998497
0.984006
0.972746
0.964394
0.958488
0.95461
0.952358
1.08054
1.08715
1.08991
1.08669
1.07518
1.05701
1.0358
1.01515
0.997162
0.982553
0.971279
0.962971
0.957133
0.953333
0.951156
1.08233
1.08918
1.09203
1.0885
1.07626
1.05719
1.03519
1.01402
0.995753
0.98104
0.969765
0.961511
0.955751
0.952033
0.949935
1.08418
1.09128
1.09421
1.09035
1.07732
1.05729
1.03448
1.01279
0.994267
0.979465
0.968204
0.960014
0.95434
0.950711
0.948696
1.08608
1.09346
1.09646
1.09222
1.07834
1.05731
1.03368
1.01147
0.992702
0.977829
0.966595
0.958482
0.952901
0.949366
0.947439
1.08805
1.09571
1.09879
1.09412
1.07933
1.05724
1.03277
1.01005
0.991057
0.97613
0.964938
0.956912
0.951433
0.947999
0.946163
1.09008
1.09805
1.1012
1.09605
1.08027
1.05707
1.03174
1.00853
0.989328
0.974368
0.963233
0.955306
0.949938
0.94661
0.94487
1.09217
1.10047
1.10368
1.098
1.08115
1.0568
1.03059
1.00691
0.987515
0.972541
0.96148
0.953664
0.948414
0.945199
0.943558
1.09434
1.10298
1.10624
1.09996
1.08197
1.0564
1.02931
1.00517
0.985616
0.970649
0.959679
0.951986
0.946864
0.943766
0.942228
1.09658
1.10559
1.10889
1.10194
1.0827
1.05587
1.0279
1.00331
0.983628
0.968691
0.957829
0.950271
0.945285
0.942311
0.940881
1.09889
1.1083
1.11162
1.10392
1.08335
1.05519
1.02634
1.00134
0.981552
0.966668
0.955931
0.948522
0.94368
0.940836
0.939517
1.10129
1.11113
1.11443
1.10589
1.08389
1.05436
1.02463
0.999249
0.979385
0.964579
0.953986
0.946737
0.942048
0.939339
0.938135
1.10378
1.11406
1.11733
1.10784
1.08431
1.05336
1.02276
0.997031
0.977127
0.962425
0.951993
0.944917
0.94039
0.937822
0.936737
1.10635
1.11712
1.12032
1.10977
1.08459
1.05218
1.02072
0.994686
0.974777
0.960206
0.949954
0.943064
0.938706
0.936285
0.935322
1.10902
1.12031
1.12339
1.11166
1.08471
1.05079
1.01851
0.992211
0.972336
0.957922
0.94787
0.941178
0.936998
0.934728
0.933891
1.11179
1.12364
1.12654
1.11349
1.08466
1.0492
1.01612
0.989605
0.969803
0.955574
0.94574
0.939259
0.935265
0.933152
0.932444
1.11467
1.12711
1.12977
1.11525
1.08442
1.04738
1.01354
0.986867
0.96718
0.953164
0.943567
0.937309
0.933509
0.931557
0.930982
1.11766
1.13073
1.13307
1.11692
1.08395
1.04532
1.01077
0.983997
0.964467
0.950692
0.941351
0.935329
0.931729
0.929944
0.929504
1.12078
1.13452
1.13644
1.11847
1.08323
1.043
1.00781
0.980994
0.961665
0.948161
0.939094
0.933319
0.929928
0.928314
0.928012
1.12403
1.13847
1.13986
1.11987
1.08225
1.04042
1.00464
0.977859
0.958777
0.945571
0.936798
0.931281
0.928106
0.926666
0.926505
1.12741
1.14261
1.14333
1.12111
1.08097
1.03755
1.00127
0.974595
0.955805
0.942926
0.934464
0.929217
0.926263
0.925002
0.924985
1.13095
1.14693
1.14682
1.12214
1.07937
1.03438
0.997701
0.971203
0.952751
0.940227
0.932093
0.927127
0.924401
0.923322
0.92345
1.13466
1.15144
1.15032
1.12293
1.07741
1.0309
0.993926
0.967687
0.949619
0.937477
0.929689
0.925014
0.922521
0.921627
0.921904
1.13853
1.15616
1.15382
1.12345
1.07506
1.02711
0.989949
0.964051
0.946412
0.934678
0.927253
0.922878
0.920624
0.919918
0.920344
1.14261
1.16109
1.15727
1.12364
1.0723
1.02299
0.985774
0.9603
0.943133
0.931835
0.924788
0.920721
0.918711
0.918196
0.918772
1.14688
1.16622
1.16064
1.12346
1.06909
1.01854
0.981406
0.956441
0.939788
0.928949
0.922296
0.918546
0.916783
0.91646
0.917188
1.15139
1.17157
1.1639
1.12286
1.06541
1.01375
0.976853
0.952479
0.936381
0.926026
0.919779
0.916354
0.914842
0.914712
0.915593
1.15614
1.17713
1.16701
1.12179
1.06123
1.00862
0.972123
0.948423
0.932918
0.923067
0.917241
0.914147
0.912888
0.912953
0.913987
1.16117
1.1829
1.1699
1.12019
1.05652
1.00317
0.967228
0.94428
0.929402
0.920078
0.914685
0.911926
0.910923
0.911184
0.912371
1.16649
1.18886
1.17253
1.118
1.05126
0.997388
0.962182
0.940059
0.925841
0.917062
0.912112
0.909695
0.908948
0.909405
0.910745
1.17214
1.19501
1.17481
1.11515
1.04544
0.991295
0.956998
0.93577
0.92224
0.914025
0.909527
0.907454
0.906965
0.907617
0.909111
1.17815
1.20131
1.17667
1.11159
1.03903
0.984908
0.951695
0.931423
0.918605
0.910969
0.906933
0.905206
0.904975
0.905821
0.907467
1.18455
1.20773
1.17803
1.10724
1.03203
0.978249
0.946291
0.927026
0.914943
0.907902
0.904333
0.902954
0.902979
0.904017
0.905815
1.19139
1.21424
1.17879
1.10205
1.02444
0.971344
0.940805
0.92259
0.91126
0.904825
0.901729
0.900699
0.900978
0.902207
0.904155
1.19869
1.22078
1.17884
1.09596
1.01628
0.964226
0.935258
0.918125
0.907563
0.901747
0.899127
0.898443
0.898974
0.900391
0.902488
1.20651
1.22728
1.17807
1.0889
1.00756
0.956933
0.92967
0.913641
0.903858
0.89867
0.896528
0.896188
0.896968
0.89857
0.900815
1.2149
1.23365
1.17635
1.08084
0.998309
0.949507
0.924062
0.909148
0.900153
0.895601
0.893937
0.893937
0.894961
0.896745
0.899136
1.2239
1.23979
1.17354
1.07172
0.988581
0.941993
0.918454
0.904655
0.896456
0.892544
0.891357
0.891692
0.892954
0.894917
0.897451
1.23355
1.24556
1.16951
1.06154
0.978432
0.93444
0.912865
0.90017
0.892772
0.889506
0.888791
0.889454
0.890949
0.893086
0.895762
1.2439
1.25083
1.16411
1.05027
0.967935
0.926896
0.907312
0.895704
0.889111
0.886491
0.886243
0.887225
0.888946
0.891253
0.89407
1.255
1.2554
1.15719
1.03794
0.957177
0.919411
0.90181
0.891264
0.88548
0.883506
0.883715
0.885007
0.886947
0.88942
0.892375
1.26687
1.25907
1.1486
1.02459
0.94626
0.912032
0.896372
0.88686
0.881886
0.880556
0.881211
0.882802
0.884953
0.887587
0.890678
1.27954
1.26159
1.1382
1.01028
0.935296
0.904801
0.891007
0.8825
0.87834
0.877646
0.878734
0.880611
0.882965
0.885756
0.888982
1.29299
1.26266
1.12586
0.995123
0.924403
0.897753
0.885725
0.878193
0.874848
0.874782
0.876286
0.878436
0.880985
0.88393
0.887287
1.3072
1.26196
1.11147
0.979275
0.913704
0.890916
0.88053
0.87395
0.87142
0.871967
0.873869
0.876279
0.879014
0.882109
0.885596
1.32208
1.2591
1.09492
0.96293
0.903317
0.884306
0.875428
0.869783
0.868067