/*--------------------------------*- C++ -*----------------------------------*\
  =========                 |
  \\      /  F ield         | OpenFOAM: The Open Source CFD Toolbox
   \\    /   O peration     | Website:  https://openfoam.org
    \\  /    A nd           | Version:  6.0
     \\/     M anipulation  |
\*---------------------------------------------------------------------------*/
FoamFile
{
    version     2.0;
    format      ascii;
    class       volVectorField;
    location    "116";
    object      U;
}
// * * * * * * * * * * * * * * * * * * * * * * * * * * * * * * * * * * * * * //

dimensions      [0 1 -1 0 0 0 0];

internalField   nonuniform List<vector> 
34500
(
(0.999994 2.13459e-05 -4.64285e-17)
(0.999955 5.59401e-06 -8.15591e-18)
(0.999878 -2.9152e-05 1.42606e-16)
(0.999767 -9.59734e-05 -1.07981e-16)
(0.99963 -0.000206105 3.36992e-17)
(0.99948 -0.000367264 -1.01877e-16)
(0.999334 -0.000582028 -1.01367e-16)
(0.999201 -0.000855124 8.71561e-17)
(0.999096 -0.00118808 1.07678e-16)
(0.999021 -0.00160109 -6.86445e-16)
(0.998992 -0.00209425 -1.04696e-15)
(0.998995 -0.00280659 1.28146e-16)
(0.999055 -0.00357749 4.3966e-16)
(1.00033 -0.00546323 -2.12157e-16)
(0.979985 -0.0168286 8.75416e-17)
(0.999987 6.58829e-05 3.2515e-17)
(0.999914 3.00682e-05 9.78717e-17)
(0.999772 -4.08414e-05 7.19523e-17)
(0.999569 -0.000171113 -3.03133e-16)
(0.999323 -0.000380276 -5.07612e-16)
(0.999057 -0.000679025 -5.52621e-17)
(0.9988 -0.0010702 2.56583e-16)
(0.998571 -0.00156119 -6.80341e-16)
(0.998392 -0.00215345 -1.79551e-16)
(0.998271 -0.00288134 6.85427e-16)
(0.998231 -0.00373069 1.27082e-15)
(0.998277 -0.00494597 -6.34952e-16)
(0.998205 -0.00620448 -9.9702e-16)
(1.00124 -0.00889283 -4.04737e-16)
(0.981264 -0.0202211 5.86292e-16)
(0.999983 0.000110252 1.04897e-17)
(0.999914 6.04886e-05 -1.23212e-16)
(0.999787 -2.12616e-05 -1.25508e-16)
(0.99961 -0.000157018 4.57058e-16)
(0.999395 -0.000363616 -2.86884e-17)
(0.999166 -0.000646918 -1.646e-16)
(0.998948 -0.00100711 9.81843e-17)
(0.998758 -0.00144948 3.86322e-16)
(0.998614 -0.00197496 2.81084e-19)
(0.998524 -0.00261635 -3.95257e-16)
(0.998496 -0.00334889 -7.3301e-16)
(0.998588 -0.00440276 4.17495e-16)
(0.998224 -0.00551102 2.27861e-16)
(1.00156 -0.00762931 1.68427e-16)
(0.98845 -0.0141742 -2.70087e-16)
(0.999977 0.000153787 -1.73914e-17)
(0.999916 8.87854e-05 -9.04523e-18)
(0.999808 -4.2601e-06 4.84516e-17)
(0.999661 -0.000144115 -3.06304e-16)
(0.999483 -0.000344755 3.73463e-16)
(0.999297 -0.000608257 3.31133e-16)
(0.999119 -0.000933676 -4.01044e-16)
(0.998968 -0.00132532 -4.21708e-16)
(0.998854 -0.00178554 4.37038e-16)
(0.998787 -0.00234736 -4.73078e-16)
(0.998757 -0.00298563 -2.46019e-16)
(0.998878 -0.00391373 -3.88779e-16)
(0.99826 -0.00499123 5.49666e-16)
(1.0011 -0.00675206 -4.92497e-17)
(0.991686 -0.0122522 2.3628e-17)
(0.999969 0.000197008 -1.70794e-17)
(0.999906 0.000114706 1.53686e-16)
(0.999799 3.84036e-06 6.97433e-17)
(0.999657 -0.000153508 1.70266e-16)
(0.999485 -0.000370758 4.69004e-17)
(0.999305 -0.000648741 -1.58819e-16)
(0.999133 -0.000986877 1.02927e-16)
(0.998988 -0.0013896 2.67443e-16)
(0.998879 -0.00186037 -4.19678e-16)
(0.998817 -0.00243438 -2.32297e-16)
(0.998777 -0.00308704 1.01328e-15)
(0.998927 -0.00402499 6.39981e-16)
(0.998179 -0.00519906 -2.93736e-16)
(1.00032 -0.00684426 6.07118e-16)
(0.992996 -0.0118365 -6.37516e-16)
(0.99996 0.000240255 1.83908e-17)
(0.999891 0.000140313 -9.50397e-17)
(0.999781 1.00978e-05 -1.86847e-16)
(0.999637 -0.000167622 -5.30974e-17)
(0.999464 -0.000405962 1.09797e-16)
(0.999283 -0.000705202 -1.09243e-16)
(0.99911 -0.00106528 1.48769e-16)
(0.998966 -0.00149073 1.31767e-16)
(0.998858 -0.00198454 2.9244e-16)
(0.998802 -0.00258305 -1.00863e-16)
(0.998755 -0.00325992 2.95096e-18)
(0.998935 -0.00420825 -3.92872e-16)
(0.998156 -0.00543958 1.85807e-17)
(0.999635 -0.00695376 -4.80927e-16)
(0.9938 -0.0110143 7.99113e-17)
(0.999949 0.000283497 3.26235e-18)
(0.999877 0.000166209 -3.5674e-17)
(0.999767 1.78342e-05 -2.9099e-17)
(0.999626 -0.00017711 1.76279e-16)
(0.999459 -0.000430715 -2.21201e-16)
(0.999286 -0.000742626 2.7648e-16)
(0.999121 -0.00111326 -6.21759e-16)
(0.998985 -0.00154727 -3.71508e-16)
(0.998884 -0.00204653 -1.52357e-16)
(0.998837 -0.00264753 6.7527e-16)
(0.998787 -0.00332303 -7.73763e-16)
(0.998986 -0.00424495 3.00928e-16)
(0.998227 -0.0054832 4.63111e-16)
(0.999153 -0.006843 -9.84268e-17)
(0.994329 -0.0101436 -1.29665e-16)
(0.999936 0.000326645 1.51482e-17)
(0.999862 0.000192031 3.23645e-17)
(0.999754 2.59939e-05 2.50968e-17)
(0.999619 -0.000184596 -1.5133e-16)
(0.999462 -0.000450494 3.29984e-16)
(0.9993 -0.000770822 -1.40113e-16)
(0.999146 -0.00114677 2.02369e-16)
(0.999022 -0.00158338 -1.46939e-16)
(0.99893 -0.0020816 3.99607e-16)
(0.998892 -0.00267771 1.78822e-16)
(0.998837 -0.00334588 2.46557e-16)
(0.999043 -0.00423433 -5.70566e-17)
(0.998332 -0.00547052 -5.12389e-16)
(0.998832 -0.00670961 1.16874e-15)
(0.994707 -0.00950234 1.9934e-16)
(0.999923 0.000369723 -1.12394e-17)
(0.999845 0.000217614 9.91936e-17)
(0.999738 3.35615e-05 1.51211e-16)
(0.999608 -0.000193202 1.12262e-16)
(0.999459 -0.000472145 -4.90337e-16)
(0.999307 -0.000802089 1.41497e-16)
(0.999163 -0.00118519 3.22043e-16)
(0.999048 -0.00162719 7.76058e-16)
(0.998964 -0.00212831 -3.87414e-16)
(0.998935 -0.00272423 9.06094e-17)
(0.998875 -0.0033918 4.52489e-16)
(0.999078 -0.00425499 -3.27003e-16)
(0.99843 -0.00548787 -1.56485e-16)
(0.998626 -0.00663859 -3.91011e-16)
(0.995051 -0.00901127 8.95114e-17)
(0.999907 0.000412794 4.07707e-17)
(0.999826 0.000243116 -8.99529e-17)
(0.999718 4.07518e-05 8.87733e-18)
(0.999592 -0.000202822 -1.1052e-16)
(0.99945 -0.000495844 4.1205e-16)
(0.999306 -0.000836874 7.99142e-17)
(0.999171 -0.00122898 2.71384e-16)
(0.999064 -0.00167863 -5.75776e-16)
(0.998987 -0.00218547 4.181e-17)
(0.998966 -0.00278414 -7.91671e-17)
(0.998902 -0.0034545 -1.40717e-16)
(0.999097 -0.00429628 4.45752e-17)
(0.998517 -0.00551617 6.01798e-16)
(0.998504 -0.00659026 -8.26115e-16)
(0.99539 -0.00858523 -2.86167e-16)
(0.99989 0.000455927 -2.62768e-17)
(0.999805 0.000268745 3.53346e-17)
(0.999697 4.81277e-05 -1.47935e-16)
(0.999573 -0.000212337 2.50733e-16)
(0.999436 -0.000519657 -3.62834e-16)
(0.999301 -0.000872041 -3.04257e-16)
(0.999175 -0.00127315 -3.40307e-16)
(0.999078 -0.00173007 3.92964e-17)
(0.999009 -0.00224201 -8.18584e-17)
(0.998995 -0.00284232 -4.27241e-16)
(0.998931 -0.00351417 -7.26863e-16)
(0.999112 -0.00433394 2.88846e-16)
(0.998596 -0.00553015 -3.33695e-16)
(0.99844 -0.00653436 9.31706e-16)
(0.995712 -0.00821029 5.68852e-17)
(0.999872 0.000499175 -2.46049e-17)
(0.999783 0.000294631 -1.04485e-16)
(0.999674 5.59777e-05 1.51157e-16)
(0.999552 -0.000221249 -2.349e-16)
(0.999421 -0.000542921 7.71416e-17)
(0.999294 -0.000906789 4.55984e-16)
(0.999178 -0.00131675 5.56387e-17)
(0.999091 -0.00178023 -6.76881e-17)
(0.99903 -0.00229616 1.82564e-16)
(0.999025 -0.00289642 -1.57963e-16)
(0.998961 -0.00356798 -9.5872e-17)
(0.999126 -0.00436563 -6.74892e-17)
(0.998667 -0.00553179 -2.91878e-16)
(0.998414 -0.00647494 -6.38246e-16)
(0.996007 -0.00788839 1.3096e-17)
(0.999852 0.000542602 -2.18108e-18)
(0.999759 0.000320863 1.40837e-16)
(0.999649 6.44292e-05 -2.2214e-16)
(0.999529 -0.000229461 8.36753e-17)
(0.999403 -0.000565744 -9.39035e-17)
(0.999283 -0.000941712 -1.55379e-16)
(0.999177 -0.00136113 -3.90672e-17)
(0.999101 -0.00183146 3.66883e-16)
(0.999048 -0.00235132 -6.33875e-16)
(0.999052 -0.00295101 4.23109e-16)
(0.998991 -0.00362158 2.22342e-16)
(0.999138 -0.00439825 1.86118e-16)
(0.998727 -0.00553069 7.61992e-16)
(0.998409 -0.00642023 7.49893e-16)
(0.996277 -0.00761236 5.78912e-16)
(0.999831 0.000586268 8.32026e-18)
(0.999734 0.00034752 5.30057e-17)
(0.999623 7.35907e-05 1.7656e-16)
(0.999505 -0.000236803 5.59516e-17)
(0.999383 -0.000587946 1.71262e-16)
(0.99927 -0.000976712 1.68744e-16)
(0.999173 -0.00140647 -1.19006e-17)
(0.999107 -0.00188438 4.9552e-17)
(0.999063 -0.0024087 9.43192e-16)
(0.999076 -0.00300786 -1.14697e-16)
(0.999019 -0.00367697 5.46809e-16)
(0.999149 -0.00443374 -7.47322e-16)
(0.998778 -0.00552925 1.39339e-16)
(0.998418 -0.00636921 -1.38115e-15)
(0.996524 -0.00737063 -6.49358e-16)
(0.999808 0.000630234 9.9602e-18)
(0.999707 0.000374671 -1.17969e-16)
(0.999596 8.35774e-05 1.55231e-16)
(0.999479 -0.000243011 -2.24833e-16)
(0.999361 -0.000608989 1.57415e-16)
(0.999256 -0.00101089 2.08081e-17)
(0.999167 -0.0014515 1.95918e-16)
(0.999111 -0.00193745 -2.61353e-16)
(0.999076 -0.00246649 -8.44005e-16)
(0.999097 -0.00306496 2.51015e-16)
(0.999047 -0.00373177 -5.65043e-16)
(0.999162 -0.00446924 1.14075e-16)
(0.998824 -0.00552512 -4.98479e-16)
(0.998437 -0.00631806 2.72807e-16)
(0.99675 -0.0071557 -1.14157e-16)
(0.999784 0.000674553 3.33066e-17)
(0.999679 0.000402346 7.20627e-17)
(0.999567 9.44111e-05 -3.59978e-16)
(0.999453 -0.000247965 2.89326e-16)
(0.99934 -0.000628505 -2.80991e-16)
(0.999241 -0.00104344 -3.74516e-16)
(0.999161 -0.00149495 -3.84707e-16)
(0.999114 -0.00198891 3.39362e-16)
(0.999089 -0.00252255 7.23161e-16)
(0.999119 -0.00311993 1.64185e-16)
(0.999075 -0.00378346 9.55296e-17)
(0.999176 -0.00450213 7.08693e-17)
(0.998867 -0.005517 -7.45357e-16)
(0.998464 -0.00626578 6.6091e-17)
(0.996956 -0.00696427 6.64466e-16)
(0.999759 0.000719274 -8.98434e-17)
(0.99965 0.000430551 -9.26236e-17)
(0.999538 0.000106026 3.43823e-17)
(0.999427 -0.000251781 -2.65206e-16)
(0.999318 -0.000646551 -1.80339e-17)
(0.999227 -0.00107426 4.83655e-16)
(0.999155 -0.00153643 5.53248e-17)
(0.999118 -0.00203816 3.05688e-16)
(0.999102 -0.00257618 -6.0649e-16)
(0.99914 -0.00317212 -3.11862e-16)
(0.999105 -0.00383161 4.4853e-16)
(0.999193 -0.0045323 -1.50809e-16)
(0.998908 -0.00550608 4.91862e-16)
(0.998497 -0.00621397 7.69486e-16)
(0.997144 -0.00679466 -6.27531e-17)
(0.999731 0.000764441 2.81459e-17)
(0.999619 0.00045927 1.15037e-17)
(0.999507 0.000118282 1.1595e-16)
(0.999399 -0.000254752 2.26608e-18)
(0.999296 -0.000663544 9.92283e-17)
(0.999212 -0.00110379 -2.90838e-16)
(0.999149 -0.00157642 6.01032e-16)
(0.999122 -0.0020857 -1.54282e-16)
(0.999115 -0.00262793 6.56425e-16)
(0.999161 -0.00322231 -3.43781e-16)
(0.999134 -0.00387727 -5.48292e-16)
(0.999213 -0.00456096 5.30588e-16)
(0.998949 -0.00549433 -8.99293e-16)
(0.998535 -0.00616421 -1.33681e-15)
(0.997319 -0.0066445 -3.45241e-16)
(0.999703 0.0008101 3.13379e-18)
(0.999586 0.000488492 1.95466e-17)
(0.999475 0.000131049 -3.13048e-17)
(0.99937 -0.000257196 1.59188e-16)
(0.999273 -0.000679984 1.09227e-16)
(0.999196 -0.0011327 -4.28493e-17)
(0.999142 -0.00161568 -3.62285e-16)
(0.999125 -0.0021324 -3.49445e-16)
(0.999127 -0.00267876 -2.36376e-16)
(0.999182 -0.00327155 4.36069e-16)
(0.999164 -0.00392161 3.38457e-16)
(0.999235 -0.00458919 -4.98955e-16)
(0.99899 -0.00548299 1.11396e-15)
(0.998578 -0.00611704 1.40833e-15)
(0.997482 -0.00651128 4.85141e-17)
(0.999673 0.000856291 3.58343e-17)
(0.999552 0.000518213 -4.77156e-17)
(0.99944 0.000144226 2.30097e-16)
(0.999338 -0.000259363 -4.58451e-17)
(0.999247 -0.000696273 -1.75049e-16)
(0.999178 -0.00116152 7.42452e-17)
(0.999134 -0.00165482 -1.30317e-16)
(0.999126 -0.0021789 2.95061e-16)
(0.999138 -0.00272934 7.76263e-17)
(0.999201 -0.00332049 5.43283e-17)
(0.999193 -0.00396524 -2.5959e-16)
(0.999258 -0.00461731 3.45484e-16)
(0.999031 -0.00547245 1.77001e-16)
(0.998625 -0.0060724 1.5955e-16)
(0.997637 -0.0063928 4.11724e-16)
(0.999641 0.000903049 -1.84219e-17)
(0.999516 0.00054844 2.73148e-17)
(0.999404 0.000157773 -3.7299e-16)
(0.999305 -0.00026137 -2.38732e-16)
(0.999219 -0.0007126 3.30548e-16)
(0.999159 -0.00119048 -8.9526e-17)
(0.999123 -0.00169412 5.23234e-16)
(0.999126 -0.0022255 -1.42136e-16)
(0.999147 -0.0027799 -7.54972e-18)
(0.999218 -0.00336933 -1.51057e-16)
(0.999221 -0.00400829 3.88543e-16)
(0.999282 -0.0046453 -2.45552e-16)
(0.999073 -0.00546281 -8.11129e-16)
(0.998677 -0.00603034 -1.94682e-16)
(0.997783 -0.00628781 -4.69919e-16)
(0.999608 0.000950404 2.47989e-17)
(0.999478 0.000579181 1.12852e-16)
(0.999365 0.000171681 3.36186e-16)
(0.999269 -0.000263243 2.61022e-16)
(0.999189 -0.000729001 -3.21862e-17)
(0.999137 -0.00121963 -1.3082e-16)
(0.999111 -0.00173362 -5.7925e-16)
(0.999124 -0.00227221 -6.73838e-17)
(0.999155 -0.00283043 -3.44538e-16)
(0.999235 -0.00341804 1.11716e-16)
(0.999248 -0.00405081 -7.12218e-16)
(0.999308 -0.00467321 3.44454e-16)
(0.999116 -0.00545439 1.16852e-15)
(0.998732 -0.00599131 -9.08388e-16)
(0.997923 -0.00619533 5.47363e-16)
(0.999573 0.000998375 -1.99965e-17)
(0.999438 0.000610448 -1.58789e-16)
(0.999325 0.000185969 -1.9241e-16)
(0.999231 -0.000264944 -9.60049e-17)
(0.999157 -0.000745407 -6.15097e-17)
(0.999113 -0.00124888 8.44835e-17)
(0.999096 -0.00177321 -3.2371e-17)
(0.99912 -0.00231893 -4.44878e-16)
(0.999161 -0.00288089 -1.31053e-16)
(0.99925 -0.00346667 -3.30256e-17)
(0.999275 -0.00409303 6.483e-16)
(0.999334 -0.00470136 1.0872e-16)
(0.999159 -0.00544779 -9.71505e-16)
(0.998791 -0.00595598 5.1972e-16)
(0.998057 -0.00611468 -1.05869e-16)
(0.999536 0.00104697 1.80636e-17)
(0.999397 0.000642239 9.33643e-17)
(0.999282 0.000200643 9.26089e-17)
(0.999191 -0.000266436 1.80179e-16)
(0.999123 -0.000761758 -9.82094e-17)
(0.999087 -0.00127815 -2.76387e-17)
(0.99908 -0.00181284 1.99785e-16)
(0.999115 -0.00236568 2.98714e-16)
(0.999167 -0.00293137 -2.15554e-17)
(0.999264 -0.00351546 -3.61329e-16)
(0.9993 -0.00413536 -2.78206e-16)
(0.999362 -0.00473029 -4.90308e-16)
(0.999204 -0.00544367 2.06427e-17)
(0.998852 -0.00592491 2.69075e-16)
(0.998185 -0.0060447 -1.65398e-16)
(0.999498 0.0010962 -9.65847e-18)
(0.999354 0.000674551 -5.52515e-17)
(0.999239 0.000215709 1.40647e-16)
(0.99915 -0.000267702 1.47591e-17)
(0.999087 -0.000778025 -1.25023e-16)
(0.999059 -0.00130744 1.00864e-16)
(0.999063 -0.00185255 -4.82054e-17)
(0.999108 -0.00241259 2.75444e-16)
(0.99917 -0.0029821 5.09328e-16)
(0.999277 -0.00356475 7.91759e-17)
(0.999324 -0.00417832 2.40106e-16)
(0.999389 -0.00476056 2.44997e-16)
(0.999248 -0.00544256 6.07322e-17)
(0.998916 -0.00589832 -5.53626e-16)
(0.998311 -0.00598443 1.36292e-16)
(0.999458 0.00114604 1.29378e-17)
(0.99931 0.000707369 1.16369e-17)
(0.999193 0.000231147 -2.8734e-16)
(0.999107 -0.000268758 -1.25581e-16)
(0.99905 -0.000794244 1.76635e-16)
(0.99903 -0.00133681 -2.7585e-17)
(0.999043 -0.00189249 1.84595e-16)
(0.999099 -0.00245986 -2.45323e-16)
(0.999172 -0.0030334 1.3997e-16)
(0.999288 -0.00361491 1.16529e-16)
(0.999347 -0.00422234 1.23226e-16)
(0.999416 -0.00479248 1.57177e-16)
(0.999293 -0.00544458 2.19436e-16)
(0.998982 -0.00587598 3.11082e-17)
(0.998434 -0.00593198 8.01282e-17)
(0.999417 0.0011965 -3.98066e-17)
(0.999264 0.00074068 1.05381e-16)
(0.999146 0.000246945 1.64988e-16)
(0.999062 -0.000269627 -1.05656e-16)
(0.99901 -0.000810464 -6.87179e-17)
(0.998998 -0.00136637 3.91315e-17)
(0.999021 -0.00193281 -2.011e-16)
(0.999088 -0.00250773 -1.31673e-16)
(0.999172 -0.0030855 -1.73081e-16)
(0.999297 -0.00366619 2.75413e-16)
(0.999368 -0.0042676 -3.82695e-16)
(0.999444 -0.00482608 2.99671e-16)
(0.999338 -0.00544947 1.47394e-16)
(0.99905 -0.00585727 5.55661e-16)
(0.998554 -0.00588586 -5.15847e-16)
(0.999374 0.00124756 1.67969e-17)
(0.999216 0.000774471 -7.93191e-17)
(0.999097 0.000263082 5.80995e-17)
(0.999015 -0.000270335 1.28554e-16)
(0.998969 -0.000826728 -8.91651e-17)
(0.998964 -0.0013962 -1.50763e-16)
(0.998997 -0.00197362 -7.14178e-17)
(0.999074 -0.00255631 9.84804e-17)
(0.999169 -0.0031385 -4.50854e-16)
(0.999305 -0.0037186 6.66086e-17)
(0.999389 -0.004314 2.54301e-16)
(0.999471 -0.004861 -7.12473e-16)
(0.999384 -0.00545664 1.44473e-16)
(0.999119 -0.00584129 2.23016e-17)
(0.998674 -0.0058448 3.80188e-16)
(0.999329 0.0012992 -6.38573e-18)
(0.999166 0.00080873 9.72154e-17)
(0.999046 0.000279558 -9.39603e-17)
(0.998966 -0.000270875 -5.83439e-17)
(0.998925 -0.000843029 -9.30964e-17)
(0.998928 -0.00142628 -4.92571e-17)
(0.99897 -0.00201491 -1.0626e-16)
(0.999058 -0.00260556 7.59122e-17)
(0.999165 -0.00319228 2.9207e-17)
(0.999311 -0.00377189 -3.12556e-16)
(0.999408 -0.00436117 -3.73477e-16)
(0.999498 -0.0048967 4.15306e-16)
(0.99943 -0.00546538 -3.63997e-16)
(0.999189 -0.00582729 -1.16698e-16)
(0.998794 -0.00580758 -1.16365e-17)
(0.999283 0.00135142 -1.93229e-17)
(0.999115 0.000843447 -4.49088e-17)
(0.998993 0.000296376 3.17326e-17)
(0.998915 -0.000271223 2.26214e-16)
(0.998879 -0.000859315 3.77943e-16)
(0.99889 -0.00145654 3.08691e-16)
(0.998942 -0.00205654 3.3745e-16)
(0.999041 -0.00265528 -2.15422e-16)
(0.999159 -0.00324655 5.76013e-20)
(0.999316 -0.00382565 2.34098e-16)
(0.999426 -0.00440859 4.61628e-17)
(0.999526 -0.00493255 2.5522e-16)
(0.999476 -0.00547502 2.05904e-16)
(0.99926 -0.00581464 -5.43176e-16)
(0.998911 -0.00577373 -3.61285e-16)
(0.999235 0.0014042 9.94184e-18)
(0.999062 0.000878615 -8.11705e-17)
(0.998939 0.000313551 -1.62432e-16)
(0.998862 -0.00027133 -1.59509e-16)
(0.998831 -0.000875493 1.46697e-17)
(0.998849 -0.00148682 -1.74281e-16)
(0.998911 -0.00209831 -3.79672e-16)
(0.999021 -0.00270519 2.89977e-16)
(0.999152 -0.00330094 2.36029e-16)
(0.99932 -0.00387944 -5.21036e-16)
(0.999444 -0.0044558 4.28098e-16)
(0.999554 -0.0049681 -3.12815e-16)
(0.999523 -0.00548518 -1.44763e-16)
(0.999331 -0.00580312 -1.27449e-16)
(0.999028 -0.00574317 1.5387e-16)
(0.999185 0.00145752 3.78453e-17)
(0.999008 0.00091422 1.74171e-17)
(0.998882 0.000331086 8.78538e-17)
(0.998808 -0.000271155 4.0829e-17)
(0.998781 -0.000891474 4.806e-17)
(0.998807 -0.00151699 3.01432e-16)
(0.998879 -0.00214002 -1.36279e-16)
(0.999001 -0.00275502 1.49012e-16)
(0.999144 -0.00335515 8.56237e-17)
(0.999324 -0.00393293 5.97254e-17)
(0.999462 -0.00450252 1.99356e-16)
(0.999583 -0.00500316 -4.26005e-17)
(0.999571 -0.00549579 9.50394e-18)
(0.999404 -0.00579288 8.88746e-16)
(0.999141 -0.00571602 2.86127e-18)
(0.999133 0.00151136 -3.67344e-17)
(0.998951 0.000950245 -1.26933e-17)
(0.998824 0.000348988 5.74403e-17)
(0.998751 -0.000270662 -1.75207e-16)
(0.99873 -0.000907179 -2.80762e-16)
(0.998764 -0.00154691 -2.69143e-16)
(0.998846 -0.0021815 2.28167e-16)
(0.998979 -0.0028046 -8.34987e-17)
(0.999135 -0.00340901 9.74768e-18)
(0.999327 -0.00398601 -5.06559e-18)
(0.999479 -0.00454874 -2.75339e-16)
(0.999612 -0.00503786 -2.49454e-16)
(0.999619 -0.00550711 -1.61477e-16)
(0.999476 -0.0057843 2.46834e-17)
(0.999253 -0.00569266 -5.63317e-17)
(0.99908 0.0015657 -1.83393e-17)
(0.998893 0.000986668 4.8562e-17)
(0.998765 0.00036724 4.77993e-17)
(0.998694 -0.000269848 7.78194e-17)
(0.998677 -0.00092258 1.06489e-16)
(0.998719 -0.00157655 1.68386e-18)
(0.998811 -0.00222271 2.2808e-16)
(0.998957 -0.0028539 -5.08913e-16)
(0.999126 -0.00346253 2.59737e-16)
(0.99933 -0.00403875 2.65181e-16)
(0.999497 -0.00459468 -3.79986e-16)
(0.999642 -0.00507252 7.11325e-16)
(0.999668 -0.00551953 3.75861e-16)
(0.999549 -0.0057778 -7.04843e-16)
(0.999362 -0.00567322 -2.12335e-16)
(0.999025 0.00162052 3.79246e-17)
(0.998834 0.00102346 2.94638e-17)
(0.998704 0.000385818 4.60327e-18)
(0.998634 -0.000268732 -3.48864e-17)
(0.998623 -0.000937687 2.02475e-17)
(0.998673 -0.00160591 2.85811e-16)
(0.998776 -0.00226365 -4.60922e-17)
(0.998933 -0.00290297 3.26594e-16)
(0.999116 -0.00351584 -4.83583e-17)
(0.999333 -0.00409137 -2.9335e-16)
(0.999514 -0.00464065 6.07955e-16)
(0.999672 -0.0051076 -3.65682e-16)
(0.999717 -0.00553352 -4.96922e-16)
(0.999622 -0.0057738 2.11375e-16)
(0.999468 -0.00565783 3.57773e-16)
(0.998968 0.00167578 -3.15378e-17)
(0.998772 0.00106059 -1.33018e-17)
(0.998641 0.000404677 -1.7354e-16)
(0.998574 -0.000267367 -8.48509e-17)
(0.998568 -0.000952564 5.2281e-17)
(0.998626 -0.00163506 -2.88538e-16)
(0.998739 -0.00230445 -8.48678e-17)
(0.998909 -0.00295197 2.84665e-16)
(0.999105 -0.00356916 -2.40943e-16)
(0.999335 -0.00414418 7.07286e-17)
(0.999531 -0.00468707 -3.38533e-16)
(0.999702 -0.00514351 1.06791e-17)
(0.999766 -0.00554943 2.68956e-16)
(0.999694 -0.00577255 1.42404e-16)
(0.999571 -0.00564638 -5.6168e-17)
(0.998909 0.00173146 3.00866e-17)
(0.998709 0.00109801 -9.76685e-17)
(0.998576 0.000423767 8.2022e-17)
(0.998511 -0.000265826 5.3708e-17)
(0.998511 -0.000967307 -4.05136e-17)
(0.998578 -0.00166414 -1.73328e-16)
(0.998701 -0.00234525 5.25856e-17)
(0.998883 -0.0030011 -1.30507e-16)
(0.999093 -0.00362274 -2.20246e-16)
(0.999336 -0.00419749 -2.75666e-17)
(0.999548 -0.00473428 -4.89286e-16)
(0.999733 -0.00518063 5.01895e-16)
(0.999815 -0.00556757 3.91505e-17)
(0.999766 -0.00577426 -8.12826e-17)
(0.999673 -0.00563883 -8.00484e-18)
(0.998849 0.00178752 -3.69026e-17)
(0.998644 0.00113569 1.00545e-16)
(0.99851 0.000443025 -2.3107e-17)
(0.998447 -0.000264205 -2.10595e-16)
(0.998452 -0.000982049 -1.00389e-16)
(0.998527 -0.0016933 1.16681e-16)
(0.998662 -0.00238626 -1.71313e-16)
(0.998856 -0.0030506 -1.92026e-16)
(0.99908 -0.00367687 3.27077e-16)
(0.999337 -0.00425157 1.13931e-16)
(0.999564 -0.00478258 5.13417e-16)
(0.999762 -0.00521923 -3.87031e-16)
(0.999863 -0.00558809 1.39588e-16)
(0.999838 -0.00577893 -1.58111e-16)
(0.999772 -0.00563479 5.33434e-18)
(0.998786 0.00184393 2.28408e-17)
(0.998577 0.00117358 -5.81842e-17)
(0.998442 0.00046239 7.23079e-17)
(0.998381 -0.000262603 3.13788e-16)
(0.998392 -0.000996937 1.33227e-16)
(0.998476 -0.00172275 8.26975e-17)
(0.998621 -0.00242769 3.40282e-16)
(0.998828 -0.0031007 1.61824e-16)
(0.999066 -0.00373178 -2.66764e-16)
(0.999336 -0.00430669 4.55054e-16)
(0.999579 -0.00483221 2.53474e-16)
(0.999792 -0.00525949 -2.15001e-16)
(0.999911 -0.00561106 -4.12727e-16)
(0.999909 -0.00578652 -1.61349e-16)
(0.999869 -0.005634 6.30309e-17)
(0.998722 0.00190065 4.68984e-18)
(0.998509 0.00121165 -1.23965e-16)
(0.998372 0.000481793 -9.20385e-17)
(0.998313 -0.000261131 -2.16067e-16)
(0.99833 -0.00101213 3.47258e-17)
(0.998422 -0.00175268 -3.3585e-16)
(0.998579 -0.0024698 -3.61273e-16)
(0.998798 -0.00315166 -1.45421e-16)
(0.99905 -0.00378773 3.10079e-16)
(0.999335 -0.00436307 -3.29737e-16)
(0.999593 -0.00488335 1.16804e-16)
(0.999821 -0.00530152 2.17595e-16)
(0.99996 -0.00563646 3.31489e-16)
(0.99998 -0.00579688 2.03485e-16)
(0.999965 -0.00563598 1.74833e-17)
(0.998656 0.00195765 3.29662e-17)
(0.998439 0.00124984 2.02612e-16)
(0.9983 0.000501179 9.43429e-17)
(0.998243 -0.00025988 1.8139e-16)
(0.998266 -0.00102777 1.08741e-16)
(0.998366 -0.00178329 4.58593e-17)
(0.998534 -0.0025128 5.2937e-17)
(0.998767 -0.00320371 -1.21719e-16)
(0.999033 -0.00384493 -1.23531e-16)
(0.999332 -0.00442088 1.44928e-17)
(0.999607 -0.00493612 -7.98027e-16)
(0.99985 -0.00534538 -3.12379e-16)
(1.00001 -0.00566422 3.29638e-16)
(1.00005 -0.00580984 -7.39461e-17)
(1.00006 -0.00564045 -2.07183e-16)
(0.998588 0.00201488 -4.43085e-17)
(0.998366 0.00128812 -1.29841e-16)
(0.998226 0.000520493 -1.86559e-16)
(0.998171 -0.000258932 6.13186e-17)
(0.998199 -0.00104399 -2.06298e-16)
(0.998309 -0.00181474 3.84452e-17)
(0.998488 -0.00255689 -4.76249e-17)
(0.998733 -0.00325704 -8.70316e-18)
(0.999015 -0.00390355 -1.47627e-16)
(0.999328 -0.00448023 -7.74963e-17)
(0.999619 -0.00499055 2.7474e-17)
(0.999879 -0.00539098 2.71299e-16)
(1.00006 -0.00569413 -1.37197e-16)
(1.00012 -0.00582506 2.72452e-16)
(1.00015 -0.00564685 9.7403e-17)
(0.998519 0.0020723 2.36817e-17)
(0.998292 0.00132644 1.24389e-16)
(0.99815 0.000539697 2.37024e-16)
(0.998097 -0.000258334 -6.85201e-17)
(0.99813 -0.00106083 -1.66315e-17)
(0.998249 -0.00184713 2.51972e-16)
(0.998439 -0.00260215 2.14391e-16)
(0.998698 -0.00331174 -1.47012e-16)
(0.998994 -0.00396365 3.94189e-16)
(0.999323 -0.00454113 3.58027e-16)
(0.999631 -0.00504657 3.813e-16)
(0.999907 -0.00543818 -1.76392e-17)
(1.0001 -0.00572593 -3.04188e-16)
(1.00019 -0.0058422 -3.21317e-16)
(1.00025 -0.00565485 -3.13217e-17)
(0.998447 0.00212987 -2.02926e-17)
(0.998216 0.00136477 -6.56872e-17)
(0.998072 0.000558754 -1.9646e-16)
(0.998021 -0.000258116 1.26498e-16)
(0.99806 -0.00107834 1.21443e-16)
(0.998186 -0.00188046 -1.68722e-16)
(0.998388 -0.00264862 -8.52291e-17)
(0.998661 -0.00336781 8.42297e-18)
(0.998973 -0.00402518 -1.75186e-16)
(0.999317 -0.00460346 -3.06771e-16)
(0.999642 -0.00510401 -5.66932e-16)
(0.999935 -0.00548674 6.13717e-17)
(1.00015 -0.00575929 3.71407e-16)
(1.00026 -0.00586089 3.38191e-16)
(1.00034 -0.00566404 -7.19526e-17)
(0.998374 0.00218754 -1.61485e-17)
(0.998139 0.00140306 -1.32132e-17)
(0.997992 0.000577639 1.71925e-16)
(0.997943 -0.000258276 -1.62298e-16)
(0.997987 -0.00109649 -3.20885e-16)
(0.998122 -0.00191469 1.55813e-16)
(0.998336 -0.00269619 8.84764e-17)
(0.998622 -0.00342513 4.09987e-16)
(0.99895 -0.00408798 5.8679e-17)
(0.99931 -0.00466702 2.85665e-16)
(0.999653 -0.00516261 8.49584e-16)
(0.999963 -0.00553635 -2.33588e-16)
(1.0002 -0.00579391 -9.94624e-17)
(1.00033 -0.00588085 -1.18e-17)
(1.00043 -0.00567443 -2.86572e-17)
(0.998299 0.00224525 4.51631e-17)
(0.998059 0.00144126 4.93672e-17)
(0.99791 0.000596322 -1.47868e-16)
(0.997862 -0.000258809 1.37432e-16)
(0.997912 -0.0011152 -9.25555e-17)
(0.998056 -0.0019497 -2.98143e-16)
(0.998282 -0.00274471 1.31139e-17)
(0.998582 -0.00348348 -3.52631e-17)
(0.998926 -0.00415181 -2.17609e-16)
(0.999303 -0.00473153 1.83661e-16)
(0.999663 -0.00522209 -7.93069e-16)
(0.999991 -0.00558675 -1.4467e-17)
(1.00025 -0.00582952 -1.77681e-16)
(1.0004 -0.00590189 3.338e-17)
(1.00052 -0.0056859 -8.48709e-17)
(0.998222 0.00230296 -1.15248e-17)
(0.997978 0.00147933 -1.17626e-17)
(0.997827 0.000614772 2.04611e-17)
(0.997781 -0.000259704 -1.52834e-16)
(0.997835 -0.00113441 -2.74596e-17)
(0.997988 -0.00198535 3.64054e-16)
(0.998226 -0.00279397 -2.65496e-16)
(0.998541 -0.00354262 -3.29091e-16)
(0.998901 -0.00421639 3.52699e-16)
(0.999295 -0.00479673 -3.19461e-16)
(0.999674 -0.00528219 4.04952e-16)
(1.00002 -0.00563774 3.8396e-16)
(1.00029 -0.00586601 2.77457e-16)
(1.00047 -0.00592401 -1.85612e-16)
(1.00061 -0.00569872 -6.39701e-17)
(0.998143 0.00236063 -1.24293e-17)
(0.997894 0.00151721 -7.21787e-17)
(0.997742 0.000632943 -9.72408e-17)
(0.997697 -0.00026097 7.14047e-17)
(0.997757 -0.00115408 1.81066e-16)
(0.99792 -0.00202153 6.35505e-17)
(0.99817 -0.0028438 2.46752e-16)
(0.998499 -0.00360234 5.39662e-17)
(0.998876 -0.00428152 -4.63736e-16)
(0.999287 -0.00486242 1.62473e-16)
(0.999684 -0.0053428 -2.30012e-16)
(1.00005 -0.0056893 -1.91444e-16)
(1.00034 -0.00590344 -2.5871e-16)
(1.00054 -0.00594738 4.11073e-17)
(1.0007 -0.00571312 1.54443e-16)
(0.998062 0.00241818 -1.90783e-17)
(0.997809 0.00155484 3.43793e-17)
(0.997655 0.000650783 4.15261e-17)
(0.997612 -0.000262643 -1.43124e-16)
(0.997678 -0.0011742 6.98834e-17)
(0.99785 -0.00205817 -2.12164e-16)
(0.998112 -0.0028941 -2.60054e-17)
(0.998457 -0.00366253 3.19554e-16)
(0.99885 -0.00434709 -2.04024e-16)
(0.999279 -0.00492857 -2.69995e-16)
(0.999695 -0.00540397 2.32269e-16)
(1.00008 -0.00574158 -6.90928e-17)
(1.00039 -0.00594207 -7.33136e-16)
(1.00061 -0.00597237 7.52096e-17)
(1.00079 -0.00572962 1.11096e-16)
(0.997979 0.00247559 -9.8202e-18)
(0.997722 0.00159216 3.3535e-17)
(0.997566 0.000668223 1.26394e-17)
(0.997526 -0.000264792 1.90779e-17)
(0.997598 -0.00119482 1.20602e-16)
(0.997779 -0.00209533 6.70553e-17)
(0.998054 -0.00294492 -2.21006e-16)
(0.998414 -0.00372322 -2.01926e-17)
(0.998824 -0.00441319 6.11097e-16)
(0.99927 -0.00499532 -1.96239e-16)
(0.999705 -0.00546593 -5.77745e-18)
(1.00011 -0.00579491 2.91363e-17)
(1.00044 -0.00598227 2.81918e-17)
(1.00067 -0.00599935 -5.20632e-17)
(1.00088 -0.00574838 1.75335e-17)
(0.997895 0.00253278 2.58782e-17)
(0.997634 0.00162911 -6.84063e-17)
(0.997476 0.00068519 -7.81771e-17)
(0.997438 -0.000267511 1.4895e-19)
(0.997516 -0.00121606 -1.82112e-16)
(0.997707 -0.00213314 -2.91006e-17)
(0.997995 -0.00299639 4.29113e-17)
(0.99837 -0.00378462 -4.86311e-17)
(0.998797 -0.00448007 -4.13754e-16)
(0.999261 -0.00506299 5.51574e-16)
(0.999715 -0.00552905 -3.1526e-17)
(1.00013 -0.00584972 -5.78538e-17)
(1.00049 -0.00602445 3.42124e-16)
(1.00074 -0.00602869 -3.85766e-16)
(1.00096 -0.00576958 8.23282e-18)
(0.997809 0.00258973 2.74579e-18)
(0.997543 0.00166565 8.20657e-17)
(0.997384 0.000701603 2.20662e-16)
(0.997349 -0.000270921 -5.56789e-17)
(0.997433 -0.00123809 1.18355e-16)
(0.997634 -0.0021718 -1.84033e-16)
(0.997935 -0.00304879 -2.20553e-16)
(0.998325 -0.00384703 5.30332e-18)
(0.99877 -0.00454808 2.40918e-16)
(0.999252 -0.00513198 -4.81434e-16)
(0.999724 -0.00559378 1.20118e-16)
(1.00016 -0.00590643 -2.09203e-17)
(1.00053 -0.00606895 2.64314e-16)
(1.00081 -0.00606056 8.21022e-17)
(1.00105 -0.00579305 -1.29269e-16)
(0.99772 0.00264637 1.05514e-18)
(0.997451 0.00170173 -8.90704e-17)
(0.99729 0.000717392 -1.25943e-16)
(0.997257 -0.000275137 2.08534e-17)
(0.997348 -0.00126109 -2.19889e-17)
(0.997559 -0.00221157 1.6705e-16)
(0.997873 -0.00310242 3.62119e-16)
(0.998279 -0.00391082 -3.21481e-16)
(0.998741 -0.00461765 3.66057e-16)
(0.999241 -0.00520272 3.23935e-17)
(0.999733 -0.00566052 7.20229e-17)
(1.00019 -0.00596538 -1.39392e-16)
(1.00058 -0.00611597 2.69992e-16)
(1.00088 -0.00609499 1.53813e-16)
(1.00113 -0.00581864 2.03059e-16)
(0.99763 0.00270268 -8.63003e-18)
(0.997356 0.00173729 8.49657e-17)
(0.997194 0.000732498 1.55129e-16)
(0.997164 -0.000280262 5.36251e-17)
(0.997261 -0.00128522 1.56946e-16)
(0.997482 -0.00225268 1.20613e-16)
(0.997809 -0.00315758 -3.25213e-16)
(0.998231 -0.00397632 6.52108e-16)
(0.998711 -0.0046891 -2.05318e-16)
(0.99923 -0.00527553 -6.83982e-17)
(0.999741 -0.0057295 -2.47946e-16)
(1.00022 -0.00602667 -1.09138e-16)
(1.00063 -0.00616543 -3.00467e-16)
(1.00094 -0.00613172 -1.11294e-16)
(1.00121 -0.00584581 4.8836e-17)
(0.997539 0.0027586 -3.0648e-17)
(0.99726 0.00177231 -9.08657e-17)
(0.997097 0.000746877 -1.08784e-17)
(0.997068 -0.000286367 1.06684e-16)
(0.997172 -0.00131059 -1.42834e-16)
(0.997403 -0.00229529 -1.04955e-16)
(0.997744 -0.00321448 4.06974e-16)
(0.998181 -0.00404377 -1.21645e-16)
(0.99868 -0.00476266 -5.20286e-16)
(0.999217 -0.00535055 7.16918e-17)
(0.999748 -0.00580077 -1.25907e-16)
(1.00024 -0.00609023 2.33441e-16)
(1.00067 -0.00621712 3.75129e-16)
(1.00101 -0.0061704 3.35906e-16)
(1.0013 -0.00587419 -2.84587e-16)
(0.997445 0.00281411 1.83789e-18)
(0.997162 0.00180677 -1.75281e-17)
(0.996997 0.000760504 -7.25927e-17)
(0.99697 -0.000293489 4.52762e-17)
(0.997081 -0.00133727 -7.92033e-17)
(0.997321 -0.00233948 1.35176e-16)
(0.997676 -0.00327321 -1.16949e-16)
(0.99813 -0.00411323 4.01813e-17)