1.45 	0 	0 	-0.171309
2.35 	0 	0 	0.016966
