1.45 	0 	0 	0.401394 	-0.019924 	1.70996e-21
2.35 	0 	0 	0.704011 	-0.0107634 	-1.01936e-21
