1.45 	0 	0 	0.000682007 	-0.00341546 	3.97018e-21
2.35 	0 	0 	0.0979607 	-0.00792568 	2.14747e-21
