/*--------------------------------*- C++ -*----------------------------------*\
  =========                 |
  \\      /  F ield         | OpenFOAM: The Open Source CFD Toolbox
   \\    /   O peration     | Website:  https://openfoam.org
    \\  /    A nd           | Version:  6.0
     \\/     M anipulation  |
\*---------------------------------------------------------------------------*/
FoamFile
{
    version     2.0;
    format      ascii;
    class       volScalarField;
    location    "0.2";
    object      p;
}
// * * * * * * * * * * * * * * * * * * * * * * * * * * * * * * * * * * * * * //

dimensions      [0 2 -2 0 0 0 0];

internalField   nonuniform List<scalar> 
200
(
-2.71994e-09
-0.000304894
-0.000590506
-0.000834232
-0.00105193
-0.00122184
-0.0013031
-0.00124439
-0.000981729
-0.000431858
0.000517603
0.00201955
0.00427722
0.00754411
0.0120782
0.0179526
0.0246359
0.0305787
0.0336537
0.0332929
0.000317952
2.21119e-07
-0.000252447
-0.000487973
-0.000725782
-0.00092869
-0.00104938
-0.00103621
-0.000828945
-0.000353142
0.000487673
0.00182151
0.00382051
0.00672284
0.0108449
0.0164484
0.0232433
0.0296943
0.033231
0.0327565
0.000495499
0.000117134
-0.000144073
-0.000400258
-0.000682922
-0.000946666
-0.00114207
-0.00122115
-0.00113351
-0.000822655
-0.000220254
0.000762534
0.00225175
0.00446189
0.00781017
0.0129408
0.02016
0.0280866
0.0331542
0.0331662
0.000307067
-0.000126408
-0.000403955
-0.000687362
-0.00101926
-0.00135016
-0.00163221
-0.00182492
-0.0018935
-0.00180904
-0.00154728
-0.00108485
-0.000390506
0.000633033
0.00239401
0.00600445
0.0129185
0.0227115
0.0312015
0.034448
-0.000382842
-0.000844816
-0.00110349
-0.0013814
-0.00173749
-0.00211718
-0.00247359
-0.00277437
-0.00300325
-0.00316679
-0.00330256
-0.0034909
-0.00387972
-0.00466358
-0.00570398
-0.00555352
-0.00116575
0.00935312
0.0232118
0.0344031
-0.00172528
-0.00216399
-0.0023055
-0.0024943
-0.0028181
-0.00320517
-0.00360109
-0.00397565
-0.00432793
-0.00470163
-0.00520913
-0.00607071
-0.00768949
-0.0106759
-0.0153431
-0.0201489
-0.0205281
-0.0113557
0.00801467
0.0305058
-0.00401737
-0.00429545
-0.004062
-0.003987
-0.00419088
-0.00453015
-0.00491576
-0.00530369
-0.00569786
-0.00616951
-0.0069022
-0.00825843
-0.0108941
-0.0157476
-0.0234115
-0.0322134
-0.0364918
-0.0282272
-0.003322
0.0314245
-0.00792789
-0.00746665
-0.00617585
-0.00567638
-0.00568624
-0.0059129
-0.00622243
-0.00654679
-0.00688933
-0.00733134
-0.00810901
-0.00967316
-0.0128292
-0.0185341
-0.0271466
-0.0362584
-0.0390445
-0.0250178
0.0120685
0.0644904
-0.014137
-0.012385
-0.00891886
-0.00700716
-0.00648265
-0.00648139
-0.00666122
-0.00690904
-0.00722386
-0.00767298
-0.00853799
-0.0102763
-0.0136928
-0.0193626
-0.0268743
-0.0322565
-0.0266892
0.00350867
0.0664301
0.151983
-0.0410603
-0.0147208
-0.00512022
-0.00339965
-0.00345308
-0.0037654
-0.00420674
-0.00473576
-0.00535394
-0.00611439
-0.00734678
-0.00949998
-0.0132989
-0.0188685
-0.0249389
-0.0259788
-0.0107113
0.0390137
0.135875
0.267545
)
;

boundaryField
{
    movingWall
    {
        type            zeroGradient;
    }
    fixedWalls
    {
        type            zeroGradient;
    }
    frontAndBack
    {
        type            empty;
    }
}


// ************************************************************************* //
