/*--------------------------------*- C++ -*----------------------------------*\
  =========                 |
  \\      /  F ield         | OpenFOAM: The Open Source CFD Toolbox
   \\    /   O peration     | Website:  https://openfoam.org
    \\  /    A nd           | Version:  6.0
     \\/     M anipulation  |
\*---------------------------------------------------------------------------*/
FoamFile
{
    version     2.0;
    format      ascii;
    class       surfaceScalarField;
    location    "0.2";
    object      phi;
}
// * * * * * * * * * * * * * * * * * * * * * * * * * * * * * * * * * * * * * //

dimensions      [0 3 -1 0 0 0 0];

internalField   nonuniform List<scalar> 
1540
(
4.88169e-09
-4.88164e-09
7.65082e-10
4.11662e-09
-1.36296e-08
1.43947e-08
-3.46661e-08
2.10364e-08
-5.90837e-08
2.44175e-08
-8.48592e-08
2.57756e-08
-1.11061e-07
2.62021e-08
-1.37444e-07
2.63829e-08
-1.64085e-07
2.66407e-08
-1.91166e-07
2.70811e-08
-2.18885e-07
2.77188e-08
-2.47436e-07
2.85512e-08
-2.77025e-07
2.95884e-08
-3.07886e-07
3.08612e-08
-3.40304e-07
3.24183e-08
-3.74625e-07
3.43215e-08
-4.11265e-07
3.66397e-08
-4.50706e-07
3.94403e-08
-4.93483e-07
4.27778e-08
-5.40159e-07
4.66751e-08
-5.91256e-07
5.1097e-08
-6.47165e-07
5.59095e-08
-7.07989e-07
6.08241e-08
-7.73313e-07
6.53238e-08
-8.41888e-07
6.85754e-08
-9.11233e-07
6.93451e-08
-9.77188e-07
6.5954e-08
-1.03353e-06
5.63419e-08
-1.07186e-06
3.83353e-08
-1.08209e-06
1.02235e-08
-1.05377e-06
-2.8322e-08
-9.78646e-07
-7.51204e-08
-8.54093e-07
-1.24553e-07
-6.86552e-07
-1.67541e-07
-4.93376e-07
-1.93175e-07
-3.0115e-07
-1.92226e-07
-1.39584e-07
-1.61567e-07
-3.2671e-08
-1.06913e-07
9.27377e-09
-4.19449e-08
9.27376e-09
-4.93511e-09
5.34543e-11
-3.15538e-08
3.07353e-08
-7.84646e-08
6.13057e-08
-1.39458e-07
8.20297e-08
-2.08447e-07
9.34065e-08
-2.81172e-07
9.85004e-08
-3.55267e-07
1.00297e-07
-4.29728e-07
1.00843e-07
-5.04318e-07
1.01231e-07
-5.7916e-07
1.01923e-07
-6.54523e-07
1.03082e-07
-7.30744e-07
1.04773e-07
-8.08222e-07
1.07066e-07
-8.8743e-07
1.10069e-07
-9.68936e-07
1.13924e-07
-1.05342e-06
1.18804e-07
-1.14167e-06
1.24886e-07
-1.23456e-06
1.32332e-07
-1.33302e-06
1.41239e-07
-1.43793e-06
1.51585e-07
-1.54996e-06
1.63132e-07
-1.66936e-06
1.75305e-07
-1.79556e-06
1.87024e-07
-1.92674e-06
1.96508e-07
-2.05924e-06
2.01072e-07
-2.18687e-06
1.96978e-07
-2.30037e-06
1.79452e-07
-2.38706e-06
1.43032e-07
-2.43116e-06
8.24396e-08
-2.4151e-06
-5.8421e-09
-2.32211e-06
-1.21309e-07
-2.14039e-06
-2.56843e-07
-1.86822e-06
-3.96717e-07
-1.51906e-06
-5.16702e-07
-1.12426e-06
-5.8798e-07
-7.3074e-07
-5.85745e-07
-3.91548e-07
-5.00759e-07
-1.50331e-07
-3.4813e-07
-2.54049e-08
-1.66871e-07
-1.61311e-08
-1.87273e-08
1.87808e-08
-7.23069e-08
8.43146e-08
-1.53054e-07
1.42053e-07
-2.51809e-07
1.80784e-07
-3.60653e-07
2.02251e-07
-4.74073e-07
2.1192e-07
-5.88857e-07
2.15082e-07
-7.03461e-07
2.15447e-07
-8.17332e-07
2.15102e-07
-9.30433e-07
2.15025e-07
-1.04299e-06
2.15634e-07
-1.15535e-06
2.17139e-07
-1.26801e-06
2.19724e-07
-1.38155e-06
2.23607e-07
-1.49668e-06
2.29056e-07
-1.61424e-06
2.36368e-07
-1.7352e-06
2.45842e-07
-1.86059e-06
2.57722e-07
-1.99147e-06
2.72119e-07
-2.12878e-06
2.88897e-07
-2.27315e-06
3.07499e-07
-2.42457e-06
3.26727e-07
-2.582e-06
3.44451e-07
-2.74278e-06
3.57292e-07
-2.90202e-06
3.60315e-07
-3.05189e-06
3.46848e-07
-3.18105e-06
3.08611e-07
-3.2744e-06
2.36375e-07
-3.31341e-06
1.21451e-07
-3.27747e-06
-4.17753e-08
-3.14654e-06
-2.52242e-07
-2.90542e-06
-4.97962e-07
-2.54975e-06
-7.52394e-07
-2.09269e-06
-9.73759e-07
-1.5702e-06
-1.11046e-06
-1.04077e-06
-1.11518e-06
-5.75128e-07
-9.66396e-07
-2.34944e-07
-6.88314e-07
-4.83189e-08
-3.53496e-07
-6.445e-08
-3.16592e-08
5.04401e-08
-1.10973e-07
1.63629e-07
-2.23142e-07
2.54222e-07
-3.55428e-07
3.1307e-07
-4.98152e-07
3.44975e-07
-6.44914e-07
3.58683e-07
-7.92033e-07
3.622e-07
-9.37678e-07
3.61093e-07
-1.08112e-06
3.58544e-07
-1.22222e-06
3.56124e-07
-1.36116e-06
3.54569e-07
-1.4983e-06
3.54283e-07
-1.63417e-06
3.55598e-07
-1.76944e-06
3.58871e-07
-1.90489e-06
3.64509e-07
-2.04147e-06
3.72948e-07
-2.18024e-06
3.84611e-07
-2.32235e-06
3.99832e-07
-2.46897e-06
4.18744e-07
-2.62118e-06
4.41106e-07
-2.77974e-06
4.66062e-07
-2.94484e-06
4.9182e-07
-3.11564e-06
5.15253e-07
-3.2898e-06
5.31452e-07
-3.4628e-06
5.33314e-07
-3.62724e-06
5.11289e-07
-3.77215e-06
4.53517e-07
-3.8824e-06
3.46628e-07
-3.93853e-06
1.77584e-07
-3.91724e-06
-6.30681e-08
-3.79322e-06
-3.76259e-07
-3.54323e-06
-7.47956e-07
-3.15308e-06
-1.14255e-06
-2.62752e-06
-1.49932e-06
-2.00057e-06
-1.73741e-06
-1.34079e-06
-1.77497e-06
-7.42951e-07
-1.56423e-06
-2.99322e-07
-1.13194e-06
-5.78235e-08
-5.94995e-07
-1.22274e-07
-4.252e-08
9.29601e-08
-1.44081e-07
2.6519e-07
-2.83217e-07
3.93357e-07
-4.43529e-07
4.73382e-07
-6.13579e-07
5.15025e-07
-7.86233e-07
5.31337e-07
-9.5754e-07
5.33507e-07
-1.12558e-06
5.29128e-07
-1.28957e-06
5.22542e-07
-1.44939e-06
5.15938e-07
-1.60521e-06
5.10391e-07
-1.75745e-06
5.06522e-07
-1.90668e-06
5.04826e-07
-2.05362e-06
5.05811e-07
-2.19914e-06
5.1003e-07
-2.34426e-06
5.18069e-07
-2.49015e-06
5.305e-07
-2.63811e-06
5.47789e-07
-2.78952e-06
5.7016e-07
-2.94581e-06
5.97389e-07
-3.10824e-06
6.28499e-07
-3.27778e-06
6.6136e-07
-3.45471e-06
6.92183e-07
-3.6382e-06
7.14941e-07
-3.82568e-06
7.20786e-07
-4.012e-06
6.97611e-07
-4.18844e-06
6.29958e-07
-4.34142e-06
4.99614e-07
-4.45122e-06
2.87375e-07
-4.49095e-06
-2.33366e-08
-4.42704e-06
-4.40162e-07
-4.22266e-06
-9.52341e-07
-3.84598e-06
-1.51923e-06
-3.28409e-06
-2.0612e-06
-2.56047e-06
-2.46103e-06
-1.7496e-06
-2.58584e-06
-9.76959e-07
-2.33687e-06
-3.86209e-07
-1.72269e-06
-6.76757e-08
-9.13528e-07
-1.89949e-07
-5.13446e-08
1.44305e-07
-1.71369e-07
3.85215e-07
-3.32775e-07
5.54763e-07
-5.15698e-07
6.56305e-07
-7.07017e-07
7.06344e-07
-8.98966e-07
7.23286e-07
-1.08745e-06
7.21994e-07
-1.2706e-06
7.12274e-07
-1.44772e-06
6.99666e-07
-1.61877e-06
6.8698e-07
-1.784e-06
6.75622e-07
-1.94389e-06
6.66419e-07
-2.09909e-06
6.60025e-07
-2.25037e-06
6.57093e-07
-2.39867e-06
6.58327e-07
-2.54508e-06
6.64479e-07
-2.69089e-06
6.76306e-07
-2.83759e-06
6.94489e-07
-2.98691e-06
7.19482e-07
-3.14081e-06
7.51291e-07
-3.30145e-06
7.8914e-07
-3.47109e-06
8.31004e-07
-3.65191e-06
8.73002e-07
-3.84563e-06
9.08658e-07
-4.0529e-06
9.28059e-07
-4.27233e-06
9.17038e-07
-4.49891e-06
8.56542e-07
-4.72186e-06
7.22559e-07
-4.92175e-06
4.87266e-07
-5.06771e-06
1.2262e-07
-5.116e-06
-3.91873e-07
-5.01259e-06
-1.05575e-06
-4.70237e-06
-1.82945e-06
-4.14631e-06
-2.61727e-06
-3.34527e-06
-3.26207e-06
-2.36645e-06
-3.56465e-06
-1.36133e-06
-3.342e-06
-5.45021e-07
-2.539e-06
-9.2788e-08
-1.36576e-06
-2.82737e-07
-5.87008e-08
2.03005e-07
-1.94258e-07
5.20771e-07
-3.74158e-07
7.34663e-07
-5.75297e-07
8.57444e-07
-7.82998e-07
9.14045e-07
-9.88978e-07
9.29266e-07
-1.18914e-06
9.22152e-07
-1.38176e-06
9.04899e-07
-1.56636e-06
8.8427e-07
-1.74305e-06
8.63666e-07
-1.91222e-06
8.4479e-07
-2.07444e-06
8.28643e-07
-2.23042e-06
8.16007e-07
-2.38099e-06
8.07661e-07
-2.52712e-06
8.04451e-07
-2.66995e-06
8.07307e-07
-2.81086e-06
8.17225e-07
-2.95157e-06
8.35197e-07
-3.09417e-06
8.62081e-07
-3.24127e-06
8.98393e-07
-3.39609e-06
9.4396e-07
-3.56251e-06
9.97422e-07
-3.74503e-06
1.05552e-06
-3.94854e-06
1.11217e-06
-4.17771e-06
1.15723e-06
-4.43578e-06
1.17511e-06
-4.72248e-06
1.14324e-06
-5.03074e-06
1.03081e-06
-5.3423e-06
7.98828e-07
-5.62302e-06
4.03344e-07
-5.81986e-06
-1.95034e-07
-5.86263e-06
-1.01299e-06
-5.6732e-06
-2.01887e-06
-5.18298e-06
-3.10749e-06
-4.35813e-06
-4.08692e-06
-3.2347e-06
-4.68808e-06
-1.96275e-06
-4.61395e-06
-8.27998e-07
-3.67375e-06
-1.49261e-07
-2.0445e-06
-4.31998e-07
-6.5415e-08
2.6842e-07
-2.14994e-07
6.7035e-07
-4.11108e-07
9.30777e-07
-6.2749e-07
1.07383e-06
-8.48049e-07
1.1346e-06
-1.06416e-06
1.14538e-06
-1.27189e-06
1.12988e-06
-1.46983e-06
1.10283e-06
-1.65778e-06
1.07222e-06
-1.83609e-06
1.04198e-06
-2.00532e-06
1.01402e-06
-2.16616e-06
9.89479e-07
-2.31935e-06
9.69203e-07
-2.46575e-06
9.54059e-07
-2.60631e-06
9.45011e-07
-2.74218e-06
9.43171e-07
-2.87476e-06
9.49805e-07
-3.00586e-06
9.66306e-07
-3.13789e-06
9.94105e-07
-3.27399e-06
1.03449e-06
-3.41833e-06
1.08831e-06
-3.57632e-06
1.15541e-06
-3.75471e-06
1.23391e-06
-3.96147e-06
1.31893e-06
-4.20525e-06
1.40101e-06
-4.49395e-06
1.46381e-06
-4.83211e-06
1.4814e-06
-5.21675e-06
1.41545e-06
-5.63174e-06
1.21382e-06
-6.04198e-06
8.13585e-07
-6.3897e-06
1.52693e-07
-6.59604e-06
-8.06652e-07
-6.569e-06
-2.04591e-06
-6.21653e-06
-3.45997e-06
-5.46458e-06
-4.83886e-06
-4.29109e-06
-5.86158e-06
-2.79377e-06
-6.11128e-06
-1.28166e-06
-5.18585e-06
-2.56609e-07
-3.06955e-06
-6.88607e-07
-7.24476e-08
3.40868e-07
-2.36205e-07
8.34108e-07
-4.47922e-07
1.14249e-06
-6.7801e-07
1.30392e-06
-9.09118e-07
1.36571e-06
-1.13255e-06
1.36882e-06
-1.34478e-06
1.3421e-06
-1.54488e-06
1.30293e-06
-1.73307e-06
1.26042e-06
-1.91e-06
1.21891e-06
-2.07643e-06
1.18046e-06
-2.23316e-06
1.1462e-06
-2.38095e-06
1.117e-06
-2.52063e-06
1.09374e-06
-2.65308e-06
1.07746e-06
-2.77932e-06
1.06941e-06
-2.90066e-06
1.07115e-06
-3.01884e-06
1.08449e-06
-3.13628e-06
1.11154e-06
-3.25633e-06
1.15455e-06
-3.38367e-06
1.21565e-06
-3.52463e-06
1.29637e-06
-3.68742e-06
1.3967e-06
-3.88221e-06
1.51372e-06
-4.12049e-06
1.63929e-06
-4.41361e-06
1.75694e-06
-4.76989e-06
1.83768e-06
-5.18997e-06
1.83553e-06
-5.66098e-06
1.68483e-06
-6.15082e-06
1.30342e-06
-6.60528e-06
6.07156e-07
-6.95005e-06
-4.61887e-07
-7.09609e-06
-1.89986e-06
-6.94392e-06
-3.61214e-06
-6.38662e-06
-5.39616e-06
-5.32913e-06
-6.91907e-06
-3.7618e-06
-7.6786e-06
-1.91985e-06
-7.02781e-06
-4.41338e-07
-4.54806e-06
-1.12994e-06
-8.09115e-08
4.21779e-07
-2.60828e-07
1.01402e-06
-4.89179e-07
1.37084e-06
-7.32634e-07
1.54737e-06
-9.72806e-07
1.60588e-06
-1.20134e-06
1.59735e-06
-1.41547e-06
1.55623e-06
-1.615e-06
1.50247e-06
-1.80073e-06
1.44614e-06
-1.97365e-06
1.39183e-06
-2.13477e-06
1.34157e-06
-2.28496e-06
1.29639e-06
-2.42502e-06
1.25706e-06
-2.55568e-06
1.2244e-06
-2.67765e-06
1.19943e-06
-2.79174e-06
1.1835e-06
-2.89896e-06
1.17837e-06
-3.00071e-06
1.18624e-06
-3.09905e-06
1.20987e-06
-3.19698e-06
1.25248e-06
-3.29889e-06
1.31756e-06
-3.41094e-06
1.40842e-06
-3.54146e-06
1.52722e-06
-3.70096e-06
1.67321e-06
-3.90171e-06
1.84004e-06
-4.1563e-06
2.01152e-06
-4.47484e-06
2.15622e-06
-4.86085e-06
2.22154e-06
-5.30622e-06
2.1302e-06
-5.78716e-06
1.78436e-06
-6.26311e-06
1.0831e-06
-6.67903e-06
-4.59651e-08
-6.96719e-06
-1.61171e-06
-7.04121e-06
-3.53812e-06
-6.78138e-06
-5.65599e-06
-6.02978e-06
-7.67067e-06
-4.64267e-06
-9.06571e-06
-2.67548e-06
-8.99499e-06
-7.33676e-07
-6.48987e-06
-1.86362e-06
-9.22321e-08
5.14011e-07
-2.92349e-07
1.21414e-06
-5.39901e-07
1.6184e-06
-7.97154e-07
1.80462e-06
-1.04511e-06
1.85384e-06
-1.27642e-06
1.82866e-06
-1.48961e-06
1.76942e-06
-1.68554e-06
1.6984e-06
-1.86571e-06
1.62631e-06
-2.03159e-06
1.55771e-06
-2.18441e-06
1.4944e-06
-2.32518e-06
1.43716e-06
-2.45466e-06
1.38655e-06
-2.57348e-06
1.34321e-06
-2.68214e-06
1.30808e-06
-2.7811e-06
1.28246e-06
-2.87092e-06
1.26819e-06
-2.95239e-06
1.26771e-06
-3.02675e-06
1.28424e-06
-3.09601e-06
1.32174e-06
-3.16332e-06
1.38487e-06
-3.23338e-06
1.47848e-06
-3.3128e-06
1.60663e-06
-3.41029e-06
1.7707e-06
-3.53636e-06
1.96611e-06
-3.70229e-06
2.17746e-06
-3.91814e-06
2.37207e-06
-4.18987e-06
2.49327e-06
-4.5164e-06
2.45672e-06
-4.88767e-06
2.15564e-06
-5.28517e-06
1.4806e-06
-5.68354e-06
3.52401e-07
-6.04837e-06
-1.24687e-06
-6.32275e-06
-3.26375e-06
-6.39934e-06
-5.57939e-06
-6.09061e-06
-7.97941e-06
-5.13928e-06
-1.0017e-05
-3.36823e-06
-1.0766e-05
-1.13497e-06
-8.72313e-06
-2.99859e-06
-1.08499e-07
6.22511e-07
-3.35402e-07
1.44104e-06
-6.0606e-07
1.88906e-06
-8.77603e-07
2.07617e-06
-1.13133e-06
2.10757e-06
-1.362e-06
2.05933e-06
-1.57014e-06
1.97756e-06
-1.75805e-06
1.88631e-06
-1.92814e-06
1.7964e-06
-2.08241e-06
1.71197e-06
-2.22238e-06
1.63437e-06
-2.34918e-06
1.56397e-06
-2.46362e-06
1.50099e-06
-2.56622e-06
1.44581e-06
-2.65725e-06
1.39911e-06
-2.73684e-06
1.36205e-06
-2.80498e-06
1.33634e-06
-2.8617e-06
1.32442e-06
-2.9071e-06
1.32964e-06
-2.94168e-06
1.35632e-06
-2.96653e-06
1.40971e-06
-2.98368e-06
1.49563e-06
-2.99651e-06
1.61946e-06
-3.00997e-06
1.78416e-06
-3.03069e-06
1.98683e-06
-3.06675e-06
2.21352e-06
-3.12704e-06
2.43235e-06
-3.22038e-06
2.58662e-06
-3.35495e-06
2.59129e-06
-3.53828e-06
2.33897e-06
-3.77788e-06
1.7202e-06
-4.08061e-06
6.55133e-07
-4.44696e-06
-8.80523e-07
-4.85474e-06
-2.85597e-06
-5.22769e-06
-5.20643e-06
-5.38934e-06
-7.81776e-06
-5.02636e-06
-1.038e-05
-3.758e-06
-1.20344e-05
-1.56915e-06
-1.0912e-05
-4.56774e-06
-1.33171e-07
7.55682e-07
-3.96828e-07
1.7047e-06
-6.95394e-07
2.18762e-06
-9.80495e-07
2.36127e-06
-1.23569e-06
2.36277e-06
-1.45957e-06
2.2832e-06
-1.65565e-06
2.17363e-06
-1.82809e-06
2.05875e-06
-1.98036e-06
1.94868e-06
-2.1151e-06
1.84671e-06
-2.2342e-06
1.75347e-06
-2.33904e-06
1.6688e-06
-2.43051e-06
1.59246e-06
-2.50917e-06
1.52446e-06
-2.5752e-06
1.46514e-06
-2.62846e-06
1.41532e-06
-2.66852e-06
1.37639e-06
-2.69462e-06
1.35053e-06
-2.70577e-06
1.34079e-06
-2.70077e-06
1.35132e-06
-2.67833e-06
1.38728e-06
-2.63733e-06
1.45463e-06
-2.57705e-06
1.55919e-06
-2.4977e-06
1.7048e-06
-2.40092e-06
1.89006e-06
-2.29067e-06
2.10327e-06
-2.17421e-06
2.31589e-06
-2.06354e-06
2.47594e-06
-1.97697e-06
2.50472e-06
-1.94028e-06
2.30228e-06
-1.986e-06
1.76593e-06
-2.14917e-06
8.18305e-07
-2.45823e-06
-5.71467e-07
-2.91985e-06
-2.39434e-06
-3.49352e-06
-4.63276e-06
-4.04463e-06
-7.26665e-06
-4.27232e-06
-1.01523e-05
-3.68122e-06
-1.26255e-05
-1.89345e-06
-1.26998e-05
-6.46118e-06
-1.72497e-07
9.28179e-07
-4.87572e-07
2.01977e-06
-8.18485e-07
2.51853e-06
-1.11259e-06
2.65537e-06
-1.35977e-06
2.60995e-06
-1.56511e-06
2.48854e-06
-1.73625e-06
2.34478e-06
-1.87965e-06
2.20215e-06
-2.00005e-06
2.06907e-06
-2.10084e-06
1.9475e-06
-2.18452e-06
1.83714e-06
-2.25287e-06
1.73714e-06
-2.30714e-06
1.64674e-06
-2.34813e-06
1.56545e-06
-2.37617e-06
1.49319e-06
-2.39115e-06
1.4303e-06
-2.39246e-06
1.3777e-06
-2.37893e-06
1.337e-06
-2.34878e-06
1.31064e-06
-2.29951e-06
1.30204e-06
-2.22789e-06
1.31566e-06
-2.12999e-06
1.35673e-06
-2.00141e-06
1.43061e-06
-1.8378e-06
1.5412e-06
-1.63595e-06
1.6882e-06
-1.39547e-06
1.8628e-06
-1.1215e-06
2.04192e-06
-8.27998e-07
2.18244e-06
-5.41247e-07
2.21797e-06
-3.01665e-07
2.06269e-06
-1.61536e-07
1.6258e-06
-1.76931e-07
8.33701e-07
-3.95246e-07
-3.53153e-07
-8.419e-07
-1.94769e-06
-1.50586e-06
-3.9688e-06
-2.30749e-06
-6.46502e-06
-3.01599e-06
-9.44383e-06
-3.1264e-06
-1.25151e-05
-1.98086e-06
-1.38453e-05
-8.44204e-06
-2.38468e-07
1.16665e-06
-6.26014e-07
2.40732e-06
-9.89678e-07
2.8822e-06
-1.27868e-06
2.94437e-06
-1.4973e-06
2.82857e-06
-1.6609e-06
2.65214e-06
-1.78251e-06
2.4664e-06
-1.87135e-06
2.29099e-06
-1.9338e-06
2.13152e-06
-1.97444e-06
1.98815e-06
-1.99671e-06
1.85941e-06
-2.0032e-06
1.74363e-06
-1.99584e-06
1.63938e-06
-1.97597e-06
1.54558e-06
-1.94438e-06
1.4616e-06
-1.9013e-06
1.38722e-06
-1.84632e-06
1.32273e-06
-1.77835e-06
1.26902e-06
-1.69539e-06
1.22769e-06
-1.59449e-06
1.20114e-06
-1.47145e-06
1.19262e-06
-1.32081e-06
1.20609e-06
-1.13589e-06
1.24568e-06
-9.09293e-07
1.3146e-06
-6.34118e-07
1.41303e-06
-3.06198e-07
1.53488e-06
7.23611e-08
1.66336e-06
4.88528e-07
1.76628e-06
9.13533e-07
1.79296e-06
1.30023e-06
1.676e-06
1.58566e-06
1.34037e-06
1.70101e-06
7.18352e-07
1.5862e-06
-2.38343e-07
1.2027e-06
-1.56419e-06
5.38993e-07
-3.3051e-06
-3.78192e-07
-5.54784e-06
-1.42009e-06
-8.40193e-06
-2.16347e-06
-1.17717e-05
-1.77927e-06
-1.42295e-05
-1.02213e-05
-3.55111e-07
1.52176e-06
-8.4362e-07
2.89583e-06
-1.225e-06
3.26358e-06
-1.47112e-06
3.1905e-06
-1.61579e-06
2.97323e-06
-1.6897e-06
2.72605e-06
-1.71296e-06
2.48966e-06
-1.69856e-06
2.27659e-06
-1.65546e-06
2.08841e-06
-1.59018e-06
1.92287e-06
-1.50763e-06
1.77687e-06
-1.41154e-06
1.64754e-06
-1.3047e-06
1.53254e-06
-1.18912e-06
1.43001e-06
-1.06614e-06
1.33861e-06
-9.36409e-07
1.25748e-06
-7.9991e-07
1.18623e-06
-6.5586e-07
1.12497e-06
-5.02586e-07
1.07441e-06
-3.3734e-07
1.03589e-06
-1.56074e-07
1.01136e-06
4.67413e-08
1.00328e-06
2.78166e-07
1.01426e-06
5.46465e-07
1.0463e-06
8.60094e-07
1.0994e-06
1.2256e-06
1.16937e-06
1.6441e-06
1.24486e-06
2.1064e-06
1.30398e-06
2.5876e-06
1.31176e-06
3.0435e-06
1.22011e-06
3.41154e-06
9.72326e-07
3.61929e-06
5.10602e-07
3.5976e-06
-2.16655e-07
3.29323e-06
-1.25982e-06
2.6713e-06
-2.68316e-06
1.71445e-06
-4.59099e-06
4.51123e-07
-7.1386e-06
-8.37337e-07
-1.04833e-05
-1.27986e-06
-1.3787e-05
-1.15012e-05
-5.73846e-07
2.0956e-06
-1.18927e-06
3.51126e-06
-1.51764e-06
3.59195e-06
-1.618e-06
3.29085e-06
-1.58108e-06
2.93632e-06
-1.46147e-06
2.60644e-06
-1.28928e-06
2.31747e-06
-1.08287e-06
2.07018e-06
-8.54542e-07
1.86009e-06
-6.12774e-07
1.6811e-06
-3.63443e-07
1.52754e-06
-1.10658e-07
1.39476e-06
1.42719e-07
1.27916e-06
3.94772e-07
1.17795e-06
6.4434e-07
1.08905e-06
8.90924e-07
1.0109e-06
1.13465e-06
9.425e-07
1.3763e-06
8.83316e-07
1.61741e-06
8.33304e-07
1.86041e-06
7.92896e-07
2.1088e-06
7.62968e-07
2.36737e-06
7.44713e-07
2.64224e-06
7.39387e-07
2.94074e-06
7.47791e-07
3.2707e-06
7.69442e-07
3.63887e-06
8.01198e-07
4.04817e-06
8.3557e-07
4.49363e-06
8.58512e-07
4.95742e-06
8.47973e-07
5.40472e-06
7.72806e-07
5.78211e-06
5.94934e-07
6.02181e-06
2.70897e-07
6.04911e-06
-2.43951e-07
5.79205e-06
-1.00276e-06
5.18341e-06
-2.07452e-06
4.16415e-06
-3.57174e-06
2.68734e-06
-5.66179e-06
8.80117e-07
-8.67603e-06
-4.6206e-07
-1.24448e-05
-1.19632e-05
-1.01959e-06
3.1152e-06
-1.6643e-06
4.15597e-06
-1.64684e-06
3.57449e-06
-1.30049e-06
2.9445e-06
-8.31374e-07
2.4672e-06
-3.18623e-07
2.09369e-06
2.06783e-07
1.79206e-06
7.28174e-07
1.54879e-06
1.23604e-06
1.35222e-06
1.72555e-06
1.19159e-06
2.19457e-06
1.05852e-06
2.64236e-06
9.46971e-07
3.069e-06
8.52515e-07
3.47509e-06
7.71867e-07
3.86157e-06
7.02566e-07
4.22967e-06
6.42792e-07
4.58092e-06
5.91249e-07
4.91715e-06
5.47087e-07
5.2406e-06
5.09853e-07
5.55406e-06
4.79445e-07
5.86096e-06
4.56058e-07
6.16561e-06
4.40064e-07
6.47316e-06
4.31843e-07
6.7895e-06
4.31444e-07
7.1208e-06
4.38145e-07
7.47238e-06
4.49623e-07
7.84674e-06
4.61205e-07
8.24079e-06
4.64464e-07
8.64188e-06
4.46885e-07
9.0242e-06
3.90484e-07
9.34542e-06
2.73718e-07
9.54657e-06
6.97404e-08
9.55222e-06
-2.49601e-07
9.27295e-06
-7.23486e-07
8.60209e-06
-1.40365e-06
7.42408e-06
-2.39373e-06
5.62787e-06
-3.86558e-06
3.19012e-06
-6.23828e-06
7.49644e-07
-1.00043e-05
-1.12136e-05
-1.89581e-06
5.011e-06
-1.23447e-06
3.49463e-06
1.85072e-07
2.15495e-06
1.50362e-06
1.62595e-06
2.6704e-06
1.30042e-06
3.71943e-06
1.04466e-06
4.66375e-06
8.47745e-07
5.51265e-06
6.99885e-07
6.27742e-06
5.87453e-07
6.96921e-06
4.99799e-07
7.59769e-06
4.30046e-07
8.17094e-06
3.73712e-07
8.69579e-06
3.27665e-07
9.17803e-06
2.89629e-07
9.62266e-06
2.57936e-07
1.00341e-05
2.31372e-07
1.04163e-05
2.09072e-07
1.07729e-05
1.90445e-07
1.11076e-05
1.75126e-07
1.14241e-05
1.62931e-07
1.17264e-05
1.5382e-07
1.20186e-05
1.47822e-07
1.23055e-05
1.44965e-07
1.25919e-05
1.45086e-07
1.28823e-05
1.47685e-07
1.31804e-05
1.51513e-07
1.34872e-05
1.54432e-07
1.3799e-05
1.52706e-07
1.41046e-05
1.41231e-07
1.43826e-05
1.1249e-07
1.45982e-05
5.81405e-08
1.47008e-05
-3.28929e-08
1.46219e-05
-1.70667e-07
1.4269e-05
-3.70625e-07
1.35155e-05
-6.50148e-07
1.2182e-05
-1.06019e-06
1.00454e-05
-1.72903e-06
6.87368e-06
-3.06653e-06
2.79633e-06
-5.92698e-06
-8.41725e-06
5.011e-06
8.50563e-06
1.06606e-05
1.22865e-05
1.3587e-05
1.46316e-05
1.54794e-05
1.61792e-05
1.67667e-05
1.72665e-05
1.76965e-05
1.80703e-05
1.83979e-05
1.86875e-05
1.89455e-05
1.91769e-05
1.93859e-05
1.95764e-05
1.97515e-05
1.99144e-05
2.00682e-05
2.02161e-05
2.0361e-05
2.05061e-05
2.06538e-05
2.08053e-05
2.09597e-05
2.11125e-05
2.12537e-05
2.13662e-05
2.14243e-05
2.13914e-05
2.12208e-05
2.08501e-05
2.02e-05
1.91398e-05
1.74108e-05
1.43442e-05
8.41725e-06
)
;

boundaryField
{
    movingWall
    {
        type            calculated;
        value           uniform 0;
    }
    fixedWalls
    {
        type            calculated;
        value           uniform 0;
    }
    frontAndBack
    {
        type            empty;
        value           nonuniform 0();
    }
}


// ************************************************************************* //
