1.45 	0 	0 	-0.293877
2.35 	0 	0 	-0.128947
