1.45 	0 	0 	-0.222237
2.35 	0 	0 	0.00193833
