1.45 	0 	0 	-0.302526
2.35 	0 	0 	-0.134462
