1.45 	0 	0 	-0.00813531 	-0.00258539 	1.65342e-20
2.35 	0 	0 	0.0621196 	-0.00662703 	9.88732e-21
