/*--------------------------------*- C++ -*----------------------------------*\
  =========                 |
  \\      /  F ield         | OpenFOAM: The Open Source CFD Toolbox
   \\    /   O peration     | Website:  https://openfoam.org
    \\  /    A nd           | Version:  6.0
     \\/     M anipulation  |
\*---------------------------------------------------------------------------*/
FoamFile
{
    version     2.0;
    format      ascii;
    class       volVectorField;
    location    "21";
    object      U;
}
// * * * * * * * * * * * * * * * * * * * * * * * * * * * * * * * * * * * * * //

dimensions      [0 1 -1 0 0 0 0];

internalField   nonuniform List<vector> 
8000
(
(-0.000398515 0.000443297 -1.36301e-21)
(-0.00209837 0.00106804 7.94299e-21)
(-0.00514599 0.00147592 -9.90865e-21)
(-0.00877567 0.00171838 7.704e-21)
(-0.012591 0.00183274 3.82439e-21)
(-0.0163656 0.001848 -1.16693e-20)
(-0.019937 0.00178782 -1.04237e-21)
(-0.0231974 0.00167152 -3.65302e-22)
(-0.0260828 0.001515 -6.25861e-21)
(-0.0285616 0.00133151 -3.40832e-21)
(-0.0306254 0.00113226 2.59174e-21)
(-0.0322836 0.000926785 9.82121e-21)
(-0.0335587 0.000723288 -7.78403e-22)
(-0.0344829 0.000528781 1.03535e-21)
(-0.0350951 0.000349232 -1.00242e-20)
(-0.0354395 0.000189614 6.19651e-21)
(-0.0355635 5.39331e-05 -8.85942e-21)
(-0.0355078 -5.45884e-05 1.34751e-20)
(-0.0353038 -0.000133205 -1.5439e-23)
(-0.0350569 -0.000181143 3.36162e-21)
(-0.00046606 0.00132413 4.52279e-21)
(-0.00225088 0.00318844 -2.52508e-20)
(-0.00533381 0.00440427 -1.79119e-20)
(-0.00896075 0.00512557 -1.24268e-20)
(-0.012743 0.00546403 -1.62797e-20)
(-0.0164601 0.00550638 3.62591e-21)
(-0.0199542 0.00532332 -1.93192e-20)
(-0.0231214 0.00497252 -4.35982e-21)
(-0.0259005 0.00450143 1.45593e-21)
(-0.028262 0.00394964 1.48951e-20)
(-0.0301993 0.0033506 -1.63333e-20)
(-0.0317232 0.00273287 2.28735e-20)
(-0.0328572 0.00212096 -1.72092e-20)
(-0.0336345 0.00153595 -2.04555e-20)
(-0.034095 0.000995796 -2.81763e-20)
(-0.0342839 0.0005155 1.82512e-20)
(-0.0342495 0.000107187 -5.78765e-21)
(-0.0340335 -0.000219334 -2.12931e-20)
(-0.0336671 -0.000455647 2.02541e-20)
(-0.0332596 -0.000599501 -1.74458e-20)
(-0.000599773 0.00218826 4.42255e-20)
(-0.00255176 0.00526363 2.52028e-20)
(-0.00570268 0.00726514 2.89803e-20)
(-0.0093217 0.00844827 2.47728e-21)
(-0.0130357 0.00899825 1.66475e-20)
(-0.016636 0.00905871 2.0987e-20)
(-0.0199743 0.00874647 -3.89173e-20)
(-0.0229539 0.00815674 -2.07412e-20)
(-0.0255197 0.00736781 -2.7285e-20)
(-0.0276464 0.00644497 2.93818e-20)
(-0.0293307 0.00544348 -2.26175e-20)
(-0.0305862 0.00441062 -2.92441e-20)
(-0.0314385 0.00338711 -1.07438e-20)
(-0.0319226 0.00240811 1.02452e-20)
(-0.0320804 0.00150373 -2.70921e-21)
(-0.0319589 0.000699282 4.21714e-21)
(-0.0316086 1.53254e-05 4.75546e-20)
(-0.0310725 -0.000531304 -6.92387e-21)
(-0.0303823 -0.00092596 -4.84979e-20)
(-0.029655 -0.00116515 7.41237e-20)
(-0.000796873 0.00302461 1.55728e-20)
(-0.0029927 0.00726364 -2.37691e-20)
(-0.00623889 0.010014 -6.19967e-21)
(-0.00983989 0.0116311 1.18177e-20)
(-0.0134463 0.0123722 3.39718e-20)
(-0.0168669 0.0124365 7.54359e-20)
(-0.0199678 0.0119853 7.46777e-20)
(-0.0226637 0.0111501 6.27234e-21)
(-0.0249079 0.0100386 4.67191e-20)
(-0.0266817 0.00874088 7.21006e-20)
(-0.0279866 0.00733319 -5.7757e-20)
(-0.02884 0.005881 8.65066e-20)
(-0.0292708 0.00444103 -1.94165e-20)
(-0.0293166 0.00306252 5.12652e-21)
(-0.0290219 0.00178804 2.04714e-20)
(-0.0284366 0.00065364 2.71642e-20)
(-0.0276143 -0.000311093 -4.34323e-20)
(-0.0266 -0.00108153 -3.61436e-20)
(-0.0254262 -0.00163582 -6.37913e-20)
(-0.0242223 -0.00196965 1.07906e-19)
(-0.00105312 0.00382212 -8.04973e-21)
(-0.003561 0.00915869 -9.10774e-20)
(-0.00692146 0.012607 -2.76685e-20)
(-0.0104868 0.0146199 -6.86806e-20)
(-0.0139395 0.0155249 2.65324e-20)
(-0.0171121 0.0155743 -4.22332e-20)
(-0.01989 0.0149721 1.48736e-20)
(-0.0222028 0.0138838 -9.15687e-20)
(-0.0240151 0.012445 4.89355e-20)
(-0.0253168 0.0107687 -5.86659e-20)
(-0.0261159 0.00895104 -5.24381e-20)
(-0.0264344 0.00707495 -5.9018e-20)
(-0.0263052 0.00521269 5.37578e-20)
(-0.0257693 0.00342765 -4.84425e-20)
(-0.0248744 0.00177517 6.77806e-20)
(-0.0236741 0.000302736 1.94796e-20)
(-0.0222259 -0.000950185 4.8283e-20)
(-0.0205777 -0.00194999 2.10194e-20)
(-0.0187633 -0.00266618 -8.43172e-20)
(-0.0169296 -0.00309424 1.58958e-19)
(-0.00136272 0.00456974 3.61861e-20)
(-0.00423921 0.0109192 2.74674e-21)
(-0.00772165 0.015001 1.67133e-20)
(-0.0112233 0.0173625 5.92988e-20)
(-0.0144672 0.0183983 -8.96467e-21)
(-0.0173159 0.0184113 9.95008e-20)
(-0.019679 0.0176454 4.48392e-20)
(-0.0215049 0.0162972 3.9013e-21)
(-0.0227723 0.0145276 1.17095e-19)
(-0.0234814 0.0124709 3.84792e-20)
(-0.0236479 0.0102412 1.84445e-20)
(-0.0232997 0.00793762 5.88415e-20)
(-0.0224738 0.00564749 5.40774e-20)
(-0.0212153 0.00344818 9.87632e-20)
(-0.0195754 0.00140829 -8.89536e-20)
(-0.017612 -0.000412438 1.25102e-19)
(-0.0153874 -0.00196342 9.80649e-22)
(-0.0129529 -0.0032004 -1.60571e-19)
(-0.0103443 -0.00408222 2.08226e-19)
(-0.00773276 -0.00460499 9.94923e-20)
(-0.00171813 0.00525628 -2.11947e-20)
(-0.00500478 0.0125158 -4.27908e-20)
(-0.00860226 0.017154 -9.08729e-20)
(-0.0119988 0.0198086 -2.79455e-21)
(-0.0149671 0.0209379 1.62769e-20)
(-0.0174062 0.020892 -1.21762e-19)
(-0.019255 0.0199507 -9.13575e-20)
(-0.0204843 0.0183388 -1.32885e-20)
(-0.0210897 0.0162392 -1.17672e-19)
(-0.0210836 0.0138043 -8.18988e-20)
(-0.0204907 0.0111644 -2.40421e-20)
(-0.0193448 0.00843299 -7.78353e-20)
(-0.0176881 0.00571137 -1.49782e-21)
(-0.0155691 0.00309069 -1.04077e-19)
(-0.0130432 0.000653215 4.34745e-20)
(-0.0101728 -0.00152795 -5.01311e-20)
(-0.00702553 -0.0033895 3.79257e-20)
(-0.00365665 -0.0048742 -4.94286e-20)
(-0.000105162 -0.00592748 -1.39564e-19)
(0.00342597 -0.00654715 -4.9136e-20)
(-0.00210991 0.00587038 -8.33131e-21)
(-0.00582948 0.013919 -9.86093e-21)
(-0.00951689 0.0190247 7.65337e-20)
(-0.0127504 0.0219104 -1.27442e-19)
(-0.0153618 0.0230935 1.8938e-20)
(-0.0172934 0.0229671 -7.60951e-20)
(-0.0185182 0.0218429 3.60439e-20)
(-0.0190337 0.0199691 1.6401e-19)
(-0.0188548 0.0175469 -1.10245e-20)
(-0.0180081 0.0147436 -1.24229e-19)
(-0.0165278 0.0117022 2.26363e-20)
(-0.0144548 0.00854857 4.64698e-21)
(-0.0118356 0.00539635 -2.53608e-20)
(-0.00872263 0.0023498 3.23698e-21)
(-0.0051746 -0.000494812 2.27211e-19)
(-0.00125852 -0.0030498 -3.2856e-20)
(0.0029521 -0.00523709 -6.32538e-20)
(0.0073977 -0.00698336 -1.12831e-19)
(0.012035 -0.00821688 1.15974e-19)
(0.0166196 -0.00893843 5.78562e-20)
(-0.00252639 0.00640028 4.03836e-20)
(-0.00667878 0.0150991 -5.81763e-20)
(-0.0104091 0.0205729 8.41029e-20)
(-0.0134017 0.0236226 8.66917e-20)
(-0.0155574 0.0248195 8.10083e-20)
(-0.0168684 0.0245946 1.65856e-19)
(-0.0173475 0.0232861 1.08208e-19)
(-0.0170221 0.0211611 -2.34891e-19)
(-0.0159298 0.0184344 1.21072e-19)
(-0.0141126 0.0152834 9.53742e-20)
(-0.0116159 0.0118604 -1.72318e-21)
(-0.00848711 0.00830024 1.0757e-19)
(-0.00477724 0.00472645 8.34537e-20)
(-0.00054151 0.00125519 -4.62455e-20)
(0.00415859 -0.00200332 1.54476e-19)
(0.00925203 -0.00494558 -1.92723e-19)
(0.0146595 -0.00747622 7.6875e-20)
(0.0203171 -0.00950174 9.86426e-20)
(0.0261757 -0.0109283 -2.28831e-20)
(0.0319384 -0.0117608 2.30302e-19)
(-0.00295334 0.0068338 8.30123e-20)
(-0.00751117 0.0160267 5.03892e-21)
(-0.0112115 0.0217593 -3.29487e-20)
(-0.0138621 0.0249027 -3.5236e-20)
(-0.0154427 0.026075 -1.66952e-19)
(-0.0160023 0.0257395 2.46564e-20)
(-0.0155986 0.0242551 6.83748e-20)
(-0.0142934 0.021902 -3.37383e-20)
(-0.0121491 0.0189031 2.79157e-20)
(-0.00922591 0.0154413 -7.48389e-21)
(-0.00558062 0.0116727 -3.65515e-20)
(-0.00126798 0.00773679 3.51471e-20)
(0.00365746 0.00376372 -1.50261e-19)
(0.00913879 -0.000120926 1.45673e-19)
(0.0151132 -0.00379377 -1.25313e-19)
(0.0215071 -0.00713455 3.91944e-20)
(0.0282358 -0.0100278 8.79623e-20)
(0.0352317 -0.0123545 -1.88192e-20)
(0.0424384 -0.013992 -6.10377e-20)
(0.0494928 -0.0149503 -4.81812e-20)
(-0.00337364 0.00715826 -1.05088e-19)
(-0.00827756 0.0166717 -7.56967e-21)
(-0.0118454 0.0225462 2.46473e-20)
(-0.0140261 0.0257112 6.40714e-20)
(-0.0148887 0.0268241 -9.18253e-20)
(-0.0145453 0.026374 -8.08701e-20)
(-0.0131038 0.0247344 1.89908e-19)
(-0.0106644 0.0221923 -1.06863e-19)
(-0.00731785 0.0189728 -6.90889e-20)
(-0.00314424 0.0152579 -9.91594e-20)
(0.00178647 0.0112021 6.5946e-20)
(0.00741209 0.00694353 -2.40097e-21)
(0.0136751 0.00261381 -1.24336e-19)
(0.0205184 -0.00165603 -2.01717e-19)
(0.0278803 -0.00573168 1.54673e-19)
(0.0356866 -0.00947606 -1.24148e-19)
(0.0438496 -0.0127507 1.76742e-19)
(0.0522986 -0.015405 -5.01019e-20)
(0.0609694 -0.0172779 1.02189e-19)
(0.069417 -0.0183843 -4.09744e-19)
(-0.00376693 0.00736063 -2.17809e-19)
(-0.00892081 0.017005 1.5524e-19)
(-0.0122204 0.0228972 2.11151e-20)
(-0.0137738 0.0260116 4.33786e-21)
(-0.0137487 0.0270357 -9.92922e-20)
(-0.0123269 0.0264772 1.48009e-19)
(-0.00967144 0.0247175 1.56107e-20)
(-0.00592497 0.0220446 -3.05769e-20)
(-0.00120998 0.0186793 -9.93551e-20)
(0.00437072 0.0147963 1.07949e-19)
(0.010732 0.0105412 2.73298e-19)
(0.0178034 0.00604393 -6.10334e-20)
(0.0255245 0.00143014 1.37117e-19)
(0.0338401 -0.00317005 -1.61215e-19)
(0.0426922 -0.00761612 -1.53921e-19)
(0.0520098 -0.0117561 9.34374e-20)
(0.0617053 -0.0154267 1.5195e-19)
(0.0717082 -0.0184378 -4.94419e-19)
(0.0819465 -0.020578 5.93959e-20)
(0.0918747 -0.0218648 9.22071e-20)
(-0.00410943 0.00742785 1.62695e-19)
(-0.00937574 0.0169981 6.09219e-20)
(-0.012235 0.0227788 3.09212e-19)
(-0.0129714 0.0257714 1.62018e-20)
(-0.0118603 0.0266832 -3.47292e-20)
(-0.00915831 0.0260334 -1.68022e-19)
(-0.00508813 0.024205 1.4531e-19)
(0.000160994 0.0214807 2.62122e-19)
(0.00643111 0.0180712 1.73863e-19)
(0.0135931 0.0141373 1.26702e-19)
(0.0215438 0.00980845 1.09248e-19)
(0.0302022 0.00519757 -1.96304e-19)
(0.0395045 0.000414848 -6.05235e-20)
(0.0493983 -0.00442027 -4.50282e-20)
(0.0598329 -0.00916966 4.82538e-19)
(0.0707453 -0.0136722 -3.25007e-21)
(0.0820534 -0.0177405 -1.19255e-19)
(0.0936931 -0.0211376 -3.52383e-20)
(0.105587 -0.0235849 3.42514e-19)
(0.117069 -0.0250961 5.28979e-20)
(-0.00437393 0.00734743 -6.34144e-21)
(-0.00956958 0.0166254 -1.68454e-19)
(-0.0117777 0.0221609 -2.54871e-19)
(-0.011474 0.0249623 -7.19871e-20)
(-0.00904797 0.0257447 4.11234e-20)
(-0.00483535 0.0250314 9.25905e-21)
(0.000877768 0.023201 2.33546e-19)
(0.00785196 0.0205261 -2.92172e-19)
(0.0158899 0.0172023 -1.12e-19)
(0.0248319 0.0133712 -2.25011e-19)
(0.0345523 0.00913879 -1.91238e-19)
(0.0449557 0.0045918 -1.69381e-19)
(0.0559722 -0.00018665 4.27703e-20)
(0.0675516 -0.00510148 -5.51633e-20)
(0.0796531 -0.0100313 2.33902e-19)
(0.0922277 -0.0148182 -1.30028e-19)
(0.105207 -0.0192576 -3.99668e-19)
(0.118545 -0.0230609 -7.76083e-20)
(0.132167 -0.0258608 1.96052e-19)
(0.14526 -0.0276536 -1.9874e-19)
(-0.00453006 0.00710832 -2.53206e-20)
(-0.00942321 0.0158651 2.12205e-19)
(-0.0107298 0.0210196 -2.73413e-19)
(-0.00912863 0.023562 6.36592e-20)
(-0.00512799 0.0242028 -1.3179e-19)
(0.00085514 0.0234621 2.98941e-19)
(0.00846904 0.0217093 -2.14225e-19)
(0.0174214 0.0192031 2.4531e-19)
(0.0274717 0.0161215 -2.3517e-19)
(0.0384253 0.0125835 9.91618e-20)
(0.0501282 0.00866663 -4.93428e-20)
(0.0624642 0.00442344 -1.22413e-19)
(0.0753514 -0.000102271 -1.5003e-19)
(0.0887377 -0.00485689 1.49371e-19)
(0.102592 -0.00975696 -1.24629e-19)
(0.116884 -0.014671 -2.69252e-19)
(0.131571 -0.0193962 2.80486e-19)
(0.14664 -0.0235959 -3.54847e-19)
(0.162043 -0.0267894 1.5892e-19)
(0.176793 -0.0289306 4.04508e-21)
(-0.00454504 0.00670204 -2.50856e-19)
(-0.00885329 0.0147021 -2.91381e-19)
(-0.00896887 0.0193387 3.3413e-20)
(-0.00578015 0.0215559 -2.86394e-19)
(8.43367e-05 0.0220458 -2.57054e-20)
(0.0081266 0.0213184 -2.13109e-19)
(0.0179292 0.0197296 -4.94029e-20)
(0.0291457 0.017523 -1.44626e-19)
(0.0414904 0.0148592 4.53215e-22)
(0.0547291 0.0118349 -6.41529e-20)
(0.0686733 0.00849899 3.06868e-21)
(0.0831776 0.00486598 -1.83139e-19)
(0.0981379 0.000931232 1.99053e-19)
(0.113491 -0.00331035 -2.84722e-19)
(0.129207 -0.00784035 9.8947e-20)
(0.145276 -0.0125899 2.39419e-21)
(0.16169 -0.017398 -1.5684e-19)
(0.178497 -0.0219062 3.84093e-19)
(0.195718 -0.0255027 -9.18336e-20)
(0.21217 -0.0280632 -6.92112e-20)
(-0.00438477 0.00612398 2.85658e-19)
(-0.00777523 0.0131304 1.657e-19)
(-0.00637331 0.0171133 1.54645e-19)
(-0.00127752 0.0189401 2.28161e-20)
(0.00676601 0.0192698 2.14965e-19)
(0.0171813 0.0185948 3.10092e-19)
(0.0294878 0.0172547 2.55759e-19)
(0.0432868 0.0154787 2.10341e-20)
(0.0582473 0.0134127 1.86767e-19)
(0.0740938 0.011137 2.90021e-19)
(0.0905987 0.00867812 -7.57526e-20)
(0.107579 0.00601774 1.26933e-19)
(0.124895 0.00310307 1.03587e-19)
(0.142455 -0.0001392 1.04399e-19)
(0.160218 -0.00378106 6.03684e-19)
(0.178177 -0.00786352 -2.26804e-19)
(0.19636 -0.0123396 -1.35487e-20)
(0.214908 -0.0169079 2.53217e-19)
(0.233997 -0.020848 -1.4251e-19)
(0.252241 -0.0239044 8.3813e-20)
(-0.00401537 0.00537478 -2.35806e-19)
(-0.00610686 0.0111557 1.84796e-20)
(-0.00282822 0.0143531 -2.04096e-19)
(0.00451853 0.0157253 -2.51316e-20)
(0.0150761 0.0158821 1.52267e-19)
(0.0281969 0.0152909 -4.52646e-19)
(0.0433428 0.0142721 3.06768e-21)
(0.0600681 0.0130409 2.11732e-19)
(0.0780011 0.0117351 1.99523e-19)
(0.0968279 0.0104283 -8.83356e-20)
(0.116282 0.00913897 2.84181e-20)
(0.136138 0.0078337 6.77634e-20)
(0.156211 0.00642964 -3.24647e-20)
(0.176364 0.00479769 -3.5341e-19)
(0.196513 0.00277136 9.04956e-20)
(0.216625 0.000160018 2.40236e-19)
(0.236731 -0.00320523 -3.40188e-19)
(0.257075 -0.00724087 1.6628e-19)
(0.278127 -0.0112124 4.23501e-20)
(0.298399 -0.0146655 2.54071e-19)
(-0.00340493 0.00446149 -3.666e-20)
(-0.0037725 0.00879829 -1.79325e-19)
(0.00176899 0.0110864 8.12502e-20)
(0.0117277 0.0119416 -2.35975e-21)
(0.0251456 0.0119077 -3.67658e-19)
(0.0413121 0.0114184 5.81193e-20)
(0.0596405 0.01077 -1.0003e-20)
(0.0796472 0.0101643 7.45496e-20)
(0.100929 0.00973548 -3.42919e-19)
(0.123145 0.00956248 -2.18426e-20)
(0.145999 0.0096752 -7.85134e-20)
(0.169232 0.0100555 7.36846e-20)
(0.192615 0.010633 2.40843e-19)
(0.215953 0.0112772 -3.7762e-20)
(0.239089 0.0117866 1.33857e-20)
(0.261901 0.0118609 9.47116e-20)
(0.284316 0.0110926 -2.26472e-20)
(0.306578 0.00924794 1.73838e-19)
(0.329589 0.00699037 -1.11881e-19)
(0.352131 0.00462801 -1.86781e-19)
(-0.00252535 0.00339836 3.31008e-20)
(-0.000706826 0.00609494 7.43797e-21)
(0.00750339 0.00736295 7.40514e-20)
(0.0204437 0.00764343 1.81299e-19)
(0.0370682 0.00739683 1.01357e-19)
(0.0566145 0.00701172 1.0156e-20)
(0.0784578 0.00675279 -1.22679e-19)
(0.102088 0.00680448 3.23139e-20)
(0.127087 0.00729749 1.65121e-19)
(0.153103 0.00832141 -2.82003e-19)
(0.179836 0.00993245 2.13449e-19)
(0.207026 0.0121569 -1.60497e-19)
(0.234442 0.0149901 1.35973e-19)
(0.261875 0.0183914 -2.92195e-19)
(0.289138 0.0222681 3.17914e-19)
(0.316037 0.0264273 -3.41186e-19)
(0.342362 0.0305377 -8.57123e-20)
(0.368179 0.0344365 2.59542e-19)
(0.394482 0.0387404 -9.45498e-20)
(0.420377 0.041759 3.96743e-20)
(-0.0013538 0.00220704 -2.61836e-20)
(0.00314206 0.00309956 2.5889e-19)
(0.0144387 0.00325662 -3.30732e-21)
(0.0307298 0.00291497 -1.62543e-19)
(0.0508958 0.00243345 -1.08991e-19)
(0.0741333 0.0021423 2.02067e-19)
(0.0997901 0.00226316 -8.08735e-20)
(0.127342 0.00295244 -1.05412e-20)
(0.156367 0.0043273 1.66109e-19)
(0.186528 0.00647811 -2.10097e-19)
(0.217552 0.00947797 2.22771e-20)
(0.249231 0.0133905 -2.72913e-19)
(0.281421 0.0182768 1.43384e-19)
(0.314055 0.0242016 -4.12232e-19)
(0.347181 0.0312322 6.56632e-19)
(0.38102 0.0394212 -1.1912e-19)
(0.416147 0.0488262 1.24952e-19)
(0.45397 0.0596191 -3.30447e-19)
(0.497357 0.07123 4.69539e-21)
(0.550844 0.0778963 4.66219e-19)
(0.00012626 0.00091598 -8.1268e-20)
(0.00781078 -0.000117199 7.39508e-20)
(0.0226158 -0.00113383 -2.69481e-19)
(0.0426175 -0.00212702 4.01029e-19)
(0.0666377 -0.00285706 -2.90974e-19)
(0.0938408 -0.00306666 1.44514e-20)
(0.123554 -0.0025916 -3.14093e-19)
(0.155245 -0.0013192 2.25817e-19)
(0.188495 0.000835173 -3.37676e-20)
(0.222985 0.00393728 -2.0077e-19)
(0.258477 0.00804052 -1.16073e-19)
(0.294818 0.0131898 1.22796e-19)
(0.331951 0.0194216 8.17351e-20)
(0.369931 0.0267573 -3.66944e-19)
(0.408975 0.0351784 1.33995e-19)
(0.449523 0.0445801 -1.96704e-19)
(0.492387 0.0547383 2.14035e-20)
(0.538953 0.0651876 -1.73091e-19)
(0.590856 0.0740933 8.02178e-20)
(0.64878 0.0760953 -3.20748e-19)
(0.0019249 -0.000440727 2.28806e-19)
(0.0133204 -0.00346993 -1.45519e-19)
(0.032053 -0.00568634 1.20557e-19)
(0.0561096 -0.00733315 -1.52307e-19)
(0.0842668 -0.00830538 2.59751e-19)
(0.115664 -0.0084327 -5.67824e-21)
(0.14961 -0.00762249 -3.1681e-20)
(0.185564 -0.00582134 -2.35597e-20)
(0.223108 -0.00299552 1.45391e-19)
(0.261929 0.000873287 2.46577e-19)
(0.301803 0.00578945 -1.48469e-19)
(0.342601 0.0117414 1.42949e-19)
(0.384285 0.0186939 2.62561e-19)
(0.426931 0.0265709 -1.86938e-19)
(0.470737 0.0352208 -3.82023e-19)
(0.516058 0.044366 7.02869e-19)
(0.563454 0.0535676 -1.27405e-19)
(0.613704 0.0620935 -4.28583e-20)
(0.66729 0.0681161 4.64146e-19)
(0.72349 0.068053 -1.18734e-19)
(0.00404615 -0.00182509 -3.77261e-19)
(0.0196776 -0.00686205 -2.67137e-19)
(0.0427483 -0.0102598 -1.02538e-19)
(0.0711839 -0.012526 1.98438e-19)
(0.103728 -0.0137032 -4.49324e-19)
(0.139499 -0.0137195 2.31855e-19)
(0.177789 -0.0125657 2.93246e-20)
(0.218045 -0.0102592 2.83291e-20)
(0.259838 -0.00682963 -3.08253e-19)
(0.302846 -0.00231888 -1.1001e-19)
(0.346837 0.00321594 -1.93507e-19)
(0.391663 0.00969691 1.86965e-19)
(0.437257 0.0170147 5.30763e-20)
(0.483634 0.0250102 9.09768e-21)
(0.530883 0.0334449 2.49244e-19)
(0.57917 0.0419675 -2.54076e-19)
(0.628737 0.0501022 -1.09286e-20)
(0.679856 0.0571632 5.3e-21)
(0.732389 0.0616907 3.43013e-20)
(0.785392 0.0613455 2.49487e-19)
(0.00648896 -0.00319714 1.21625e-19)
(0.0268761 -0.01019 3.31816e-19)
(0.0546824 -0.0146999 2.66359e-19)
(0.0877979 -0.0175082 -9.16133e-20)
(0.124945 -0.0188138 3.18079e-19)
(0.165224 -0.0186524 -2.7387e-20)
(0.207913 -0.0171055 -3.8313e-20)
(0.252438 -0.0142691 2.27989e-20)
(0.298354 -0.0102415 3.13288e-19)
(0.345315 -0.00512865 1.83951e-19)
(0.393063 0.000950831 5.36056e-20)
(0.441408 0.00785891 3.31916e-21)
(0.490228 0.0154283 -3.626e-19)
(0.539452 0.0234481 3.16888e-19)
(0.589048 0.0316444 5.51963e-20)
(0.639012 0.0396647 -9.09234e-20)
(0.689358 0.0470881 -3.99875e-19)
(0.740069 0.0533687 -3.49892e-20)
(0.79076 0.0573872 1.61943e-19)
(0.840592 0.0575775 -3.76711e-20)
(0.00924831 -0.00451666 -3.08177e-19)
(0.0348993 -0.0133474 1.37169e-19)
(0.0678207 -0.018846 -6.69538e-19)
(0.105892 -0.0220718 2.74319e-19)
(0.147824 -0.0233861 -2.20346e-19)
(0.192707 -0.0229375 1.63436e-19)
(0.239799 -0.0209033 -2.53691e-19)
(0.288508 -0.0174603 2.408e-20)
(0.338366 -0.0127771 -1.25826e-20)
(0.388998 -0.00702145 6.82377e-20)
(0.440108 -0.000367087 9.92311e-20)
(0.491462 0.00699976 -1.89987e-19)
(0.542875 0.014873 1.00676e-19)
(0.594199 0.0230174 9.31891e-20)
(0.645305 0.0311577 4.05912e-19)
(0.69607 0.0389758 -1.77607e-19)
(0.746372 0.0461316 -1.19632e-19)
(0.796053 0.0522141 2.02996e-19)
(0.844656 0.0563512 1.11407e-19)
(0.891501 0.0574812 -2.58846e-19)
(0.0123163 -0.00574445 2.71498e-19)
(0.0437215 -0.0162293 2.77486e-19)
(0.0821157 -0.0225377 8.04398e-20)
(0.125391 -0.0260084 3.38758e-19)
(0.172258 -0.0271682 1.6497e-19)
(0.221799 -0.0262817 -3.02155e-19)
(0.27326 -0.0236236 4.58242e-19)
(0.326029 -0.0194522 -2.27456e-19)
(0.379613 -0.0140042 2.26762e-19)
(0.433608 -0.00750455 2.93856e-19)
(0.487684 -0.000174523 -1.69158e-19)
(0.541563 0.00776298 3.23847e-20)
(0.595012 0.016078 1.80882e-19)
(0.647822 0.0245281 1.28087e-19)
(0.6998 0.0328531 2.97116e-19)
(0.750752 0.0407788 -1.19664e-19)
(0.80049 0.0480403 -1.47092e-20)
(0.848792 0.0543311 1.9232e-19)
(0.895204 0.0589542 -4.13055e-20)
(0.939186 0.0612017 1.00579e-21)
(0.0156827 -0.00684319 -1.41395e-19)
(0.0533093 -0.0187341 -5.46818e-19)
(0.0975077 -0.0256199 1.28864e-19)
(0.146204 -0.0291171 -9.91797e-20)
(0.198122 -0.0299192 -2.27517e-19)
(0.252342 -0.028408 -1.61629e-19)
(0.308101 -0.0249555 -9.96036e-20)
(0.364771 -0.0199004 2.47156e-19)
(0.42184 -0.0135443 -1.47655e-19)
(0.47888 -0.00616454 -1.51573e-19)
(0.53553 0.00197709 -1.9222e-19)
(0.591485 0.0106295 -3.20094e-20)
(0.646473 0.0195481 -2.22101e-20)
(0.700253 0.0284918 -4.50897e-19)
(0.752595 0.0372202 2.19838e-19)
(0.803273 0.0454998 -2.91482e-19)
(0.852074 0.0531259 9.21923e-20)
(0.898758 0.0598677 -7.07592e-19)
(0.942903 0.0651583 2.14326e-19)
(0.984081 0.0685518 3.27349e-19)
(0.0193355 -0.00777775 -3.46245e-20)
(0.0636221 -0.0207665 2.67018e-19)
(0.113925 -0.0279469 1.76541e-20)
(0.168226 -0.0312108 4.12473e-20)
(0.225273 -0.0314181 -8.41954e-20)
(0.284156 -0.0290673 -1.72354e-21)
(0.344107 -0.0246269 -1.4379e-21)
(0.404492 -0.0185133 -5.02536e-20)
(0.464784 -0.01109 1.83342e-19)
(0.524538 -0.00268248 7.13182e-20)
(0.583379 0.00641255 3.23434e-19)
(0.640982 0.0159215 -8.93552e-20)
(0.697059 0.0255903 6.22405e-20)
(0.751355 0.0351821 -8.03452e-21)
(0.80363 0.0444756 1.74562e-19)
(0.853655 0.0532714 1.07486e-19)
(0.901215 0.0614099 2.60702e-19)
(0.946082 0.0687147 -4.24407e-19)
(0.987882 0.0747229 5.37964e-19)
(1.02627 0.0791879 -2.06406e-19)
(0.0232605 -0.00851521 -3.23455e-19)
(0.0746121 -0.0222375 -1.05845e-19)
(0.131283 -0.0293849 8.56201e-20)
(0.191334 -0.0321209 5.4142e-20)
(0.253552 -0.0314698 5.56041e-20)
(0.317042 -0.0280457 5.5089e-20)
(0.381046 -0.0224116 -1.41438e-19)
(0.444928 -0.0150592 -5.74012e-20)
(0.508158 -0.00641047 1.90026e-20)
(0.570287 0.00316512 -1.74482e-19)
(0.630936 0.0133399 -7.88465e-20)
(0.689775 0.0238216 4.82197e-19)
(0.74652 0.0343497 -1.25543e-19)
(0.800918 0.0446925 -1.73627e-19)
(0.852741 0.0546456 -8.27336e-20)
(0.901777 0.0640367 5.79066e-20)
(0.947832 0.0727404 7.07498e-20)
(0.990702 0.0806208 -3.41672e-19)
(1.03007 0.0873034 4.97316e-19)
(1.06567 0.0926939 -5.2016e-19)
(0.0274414 -0.00902478 -3.5793e-20)
(0.0862237 -0.0230655 1.07647e-20)
(0.149484 -0.0298137 -1.39767e-20)
(0.215388 -0.0316992 2.07268e-19)
(0.282775 -0.0299082 1.1516e-20)
(0.350779 -0.025168 7.63654e-20)
(0.418659 -0.0181333 -1.61766e-19)
(0.485792 -0.00936816 -5.58679e-21)
(0.551654 0.000650482 2.26489e-19)
(0.615806 0.0115129 3.14461e-20)
(0.677876 0.0228642 -1.99636e-19)
(0.73755 0.0343968 -1.76048e-20)
(0.794559 0.0458458 -1.65664e-19)
(0.848674 0.0569852 1.66728e-19)
(0.899693 0.0676257 2.3256e-19)
(0.947436 0.0776178 -2.5831e-20)
(0.991745 0.0868627 -3.14991e-20)
(1.03245 0.0952569 9.67383e-20)
(1.06931 0.102505 -3.12411e-19)
(1.10211 0.108627 3.3236e-19)
(0.0318586 -0.0092776 3.60179e-20)
(0.0983924 -0.0231765 -2.48974e-19)
(0.168419 -0.0291274 6.82469e-20)
(0.240232 -0.0298198 -2.07583e-19)
(0.312742 -0.0265977 7.28472e-20)
(0.385123 -0.0202985 -2.68036e-19)
(0.456667 -0.011665 1.09054e-19)
(0.526773 -0.00132966 -3.53899e-20)
(0.594939 0.0101795 -1.43298e-21)
(0.660748 0.0224166 3.60741e-20)
(0.723853 0.0350034 -1.32568e-19)
(0.783966 0.0476207 -1.9066e-19)
(0.840853 0.0600016 -3.92588e-20)
(0.89432 0.0719273 -1.77728e-20)
(0.944207 0.0832231 -4.55094e-20)
(0.990382 0.0937603 -1.49063e-20)
(1.03273 0.103462 -4.48982e-20)
(1.07114 0.112255 -3.91373e-20)
(1.10542 0.119914 -1.16717e-19)
(1.13541 0.126544 2.18282e-19)
(0.0364892 -0.0092468 8.65091e-20)
(0.111044 -0.0225039 -1.01235e-19)
(0.187961 -0.0272349 2.17792e-19)
(0.26569 -0.0263795 -9.55493e-20)
(0.343229 -0.0214339 2.56523e-19)
(0.41981 -0.0133409 4.6851e-21)
(0.494768 -0.00292718 1.30068e-19)
(0.567541 0.00911133 -3.58302e-20)
(0.637664 0.0222006 1.47776e-19)
(0.704754 0.0358635 1.03973e-20)
(0.768504 0.0497033 3.57742e-19)
(0.82867 0.0633931 -2.49253e-19)
(0.885063 0.076668 3.39581e-20)
(0.937542 0.0893187 6.52852e-20)
(0.985999 0.101187 3.43364e-19)
(1.03036 0.112164 -1.24334e-19)
(1.07056 0.122194 -2.47223e-20)
(1.10654 0.131232 -1.31025e-19)
(1.1382 0.13912 -1.35108e-20)
(1.16541 0.146019 7.78877e-20)
(0.0413062 -0.00890754 -3.94151e-20)
(0.124096 -0.0209892 1.23925e-19)
(0.207971 -0.0240603 -1.28292e-19)
(0.291569 -0.0212979 5.03271e-20)
(0.373996 -0.0143428 -6.19895e-20)
(0.454556 -0.00423731 2.26997e-19)
(0.532644 0.00811443 -3.27743e-20)
(0.607753 0.021959 7.84211e-20)
(0.679466 0.0366826 -4.75019e-20)
(0.747455 0.0517829 -1.64888e-21)
(0.811465 0.0668505 5.46736e-20)
(0.871308 0.0815565 -4.30432e-20)
(0.926858 0.0956425 1.12541e-19)
(0.978033 0.108913 -5.66838e-20)
(1.02479 0.121228 -2.51036e-19)
(1.06712 0.132502 2.51278e-19)
(1.10502 0.142701 -1.13559e-19)
(1.1385 0.151806 9.12062e-20)
(1.16751 0.159726 1.58238e-19)
(1.19199 0.166655 7.65883e-20)
(0.0462782 -0.0082374 9.85159e-20)
(0.137452 -0.0185828 -2.17215e-19)
(0.228295 -0.0195437 4.07476e-20)
(0.317662 -0.014518 -3.04902e-20)
(0.404786 -0.0052808 -1.25207e-19)
(0.489064 0.00703382 -9.82782e-20)
(0.569967 0.0214523 -1.98978e-20)
(0.647056 0.0371716 -1.79206e-19)
(0.719983 0.0535456 -1.14388e-20)
(0.788485 0.0700546 -3.41876e-20)
(0.852376 0.0862838 -9.37715e-20)
(0.91154 0.101909 -2.10227e-20)
(0.96592 0.116684 -7.32924e-20)
(1.01551 0.130433 -1.23528e-19)
(1.06034 0.143038 1.27474e-19)
(1.10046 0.154438 1.74448e-20)
(1.13595 0.164625 3.48323e-20)
(1.16686 0.173607 -1.49109e-19)
(1.19324 0.181357 -4.23437e-21)
(1.21506 0.188083 -2.69516e-19)
(0.0513692 -0.00721676 1.04998e-19)
(0.151009 -0.0152443 7.47209e-20)
(0.248767 -0.0136419 -1.22235e-19)
(0.343746 -0.00600648 1.92374e-19)
(0.435331 0.00576561 -2.17124e-20)
(0.523027 0.0204587 7.31682e-20)
(0.606399 0.0370396 2.5843e-20)
(0.685097 0.0546655 9.24571e-20)
(0.758853 0.0726675 -7.34501e-20)
(0.827488 0.0905175 2.50219e-20)
(0.890897 0.107804 -2.41366e-20)
(0.949046 0.124215 -1.06599e-20)
(1.00196 0.139525 2.07791e-20)
(1.04972 0.153582 -3.86035e-20)
(1.09242 0.166296 -1.19455e-20)
(1.1302 0.177636 -3.67411e-20)
(1.1632 0.187619 -5.99497e-20)
(1.19154 0.196286 3.90813e-20)
(1.21532 0.203668 -5.29716e-20)
(1.23459 0.209975 2.6879e-19)
(0.0565387 -0.00582943 -5.11288e-20)
(0.164652 -0.0109441 -1.5519e-19)
(0.269207 -0.0063292 -1.98242e-20)
(0.369588 0.00424601 -6.52776e-21)
(0.465352 0.0187805 -7.15689e-20)
(0.556131 0.0359897 -1.19427e-19)
(0.641606 0.0547931 3.96103e-20)
(0.721528 0.0743197 -5.53087e-20)
(0.79573 0.0938893 -6.2925e-20)
(0.864127 0.112976 3.58297e-20)
(0.92671 0.131181 -2.73913e-20)
(0.98354 0.148215 -5.64716e-20)
(1.03473 0.163879 -2.05334e-21)
(1.08045 0.178054 3.92229e-20)
(1.12087 0.190683 -4.03337e-20)
(1.15622 0.201767 5.65095e-20)
(1.18669 0.211352 1.54622e-20)
(1.21249 0.219515 3.86656e-20)
(1.23376 0.226343 7.47909e-20)
(1.25059 0.232035 -7.45449e-20)
(0.0617417 -0.00406318 4.77982e-20)
(0.178257 -0.00566447 -3.74204e-21)
(0.289428 0.00240108 2.38816e-20)
(0.394945 0.016224 -3.18606e-20)
(0.494563 0.0337186 3.35667e-21)
(0.588064 0.0535468 1.14371e-19)
(0.675257 0.0745955 -7.58292e-20)
(0.756015 0.0959795 3.32109e-20)
(0.830284 0.11702 3.00593e-20)
(0.898091 0.137206 -8.46608e-20)
(0.959532 0.156163 8.1163e-20)
(1.01477 0.173632 9.39739e-22)
(1.06402 0.189452 -5.89746e-20)
(1.10753 0.203541 7.18679e-20)
(1.14557 0.215882 -2.87021e-20)
(1.17844 0.226514 2.21145e-20)
(1.2064 0.235514 -2.50562e-20)
(1.2297 0.242995 -1.01748e-20)
(1.24857 0.249099 -8.7017e-20)
(1.26312 0.254004 3.08848e-20)
(0.0669298 -0.00191046 -1.52264e-20)
(0.191695 0.000599668 4.53239e-20)
(0.309232 0.0125361 7.39984e-21)
(0.41957 0.0298869 3.00927e-20)
(0.522682 0.0505054 1.48061e-20)
(0.618516 0.0730186 7.07398e-21)
(0.707032 0.0962979 4.05276e-20)
(0.788238 0.11946 -4.77395e-21)
(0.862212 0.141842 1.88214e-20)
(0.929099 0.162961 3.06943e-20)
(0.989114 0.182479 1.51842e-20)
(1.04253 0.200178 1.11146e-20)
(1.08966 0.215944 4.55613e-20)
(1.13084 0.229738 -4.44084e-20)
(1.16644 0.24159 9.65029e-21)
(1.19682 0.251578 -9.01669e-21)
(1.22231 0.259815 1.42027e-20)
(1.24323 0.266452 1.19421e-20)
(1.25982 0.271683 2.47176e-20)
(1.27227 0.275658 1.17408e-21)
(0.0720509 0.000631097 9.25972e-21)
(0.204829 0.00783931 8.75556e-21)
(0.32842 0.0240421 -1.22786e-20)
(0.443214 0.0451685 7.78494e-21)
(0.549425 0.0690382 4.51227e-21)
(0.647187 0.0942644 -1.43508e-20)
(0.736627 0.119723 4.86132e-21)
(0.817905 0.144549 9.70055e-22)
(0.891238 0.168115 8.78062e-21)
(0.956906 0.189977 -2.42262e-20)
(1.01525 0.209847 -1.40363e-22)
(1.06664 0.227561 6.98256e-21)
(1.11152 0.243056 -5.61263e-21)
(1.15031 0.256348 5.8098e-21)
(1.18345 0.267515 1.52848e-20)
(1.21138 0.276679 -8.72477e-21)
(1.23449 0.283992 2.49036e-21)
(1.25314 0.289642 9.59899e-21)
(1.26763 0.293872 -1.5831e-20)
(1.27817 0.2968 8.8777e-21)
(0.0770513 0.00355818 2.38955e-20)
(0.217521 0.0160308 -1.40948e-20)
(0.346789 0.0368645 1.68251e-20)
(0.465632 0.0619773 -1.27286e-20)
(0.574521 0.0891863 -5.88423e-21)
(0.673795 0.117115 1.84934e-21)
(0.763761 0.144666 -6.09623e-21)
(0.844747 0.171013 2.24278e-20)
(0.917121 0.195578 -1.92646e-20)
(0.981303 0.217975 4.67392e-21)
(1.03776 0.237977 -3.47888e-21)
(1.087 0.255484 -2.35881e-20)
(1.12953 0.270495 2.32229e-20)
(1.1659 0.283083 8.96838e-21)
(1.19661 0.293381 -9.01899e-21)
(1.22216 0.301558 2.12652e-20)
(1.243 0.307803 -3.62409e-22)
(1.25954 0.312345 -2.06893e-20)
(1.2721 0.315472 1.53088e-20)
(1.28094 0.317265 5.42258e-21)
(0.0818753 0.00686148 -8.59279e-21)
(0.229629 0.0251351 2.50079e-20)
(0.364139 0.0509269 2.9567e-20)
(0.486584 0.0801965 -1.44914e-20)
(0.597708 0.110793 2.53782e-20)
(0.698072 0.141377 4.1869e-20)
(0.788178 0.170899 -2.54522e-21)
(0.86853 0.198597 -8.03662e-21)
(0.939656 0.223958 3.90302e-20)
(1.00213 0.246669 1.96317e-20)
(1.05653 0.266578 -3.79365e-21)
(1.1035 0.283658 3.06781e-20)
(1.14366 0.297976 -3.37665e-20)
(1.17761 0.309671 5.2849e-20)
(1.20596 0.318932 -8.9389e-21)
(1.22924 0.325975 2.55988e-20)
(1.24797 0.331032 4.52363e-21)
(1.26257 0.334366 1.82996e-20)
(1.27341 0.33631 -1.75444e-20)
(1.28075 0.336908 4.78072e-21)
(0.086466 0.0105252 -1.26081e-20)
(0.241014 0.0350976 3.03571e-20)
(0.380274 0.0661315 2.26814e-20)
(0.50584 0.0996847 -3.58452e-21)
(0.618743 0.133675 3.8413e-20)
(0.719777 0.16683 -3.12407e-20)
(0.809651 0.198176 -3.12946e-21)
(0.889052 0.22703 2.80169e-20)
(0.958678 0.252969 8.6511e-21)
(1.01925 0.275766 1.35287e-20)