1.275 	2.15223e-18 	-2.76991e-20 	-0.0321064 	-0.000945865 	-2.06853e-22
1.825 	2.15223e-18 	-1.39322e-20 	0.0191338 	-0.00466665 	1.59955e-21
2.375 	2.15223e-18 	-2.66896e-23 	0.224453 	-0.00624824 	-6.05145e-22
