1.45 	0 	0 	0.00320867 	-0.00373011 	3.95749e-21
2.35 	0 	0 	0.110995 	-0.0083796 	1.98615e-21
