/*--------------------------------*- C++ -*----------------------------------*\
  =========                 |
  \\      /  F ield         | OpenFOAM: The Open Source CFD Toolbox
   \\    /   O peration     | Website:  https://openfoam.org
    \\  /    A nd           | Version:  6.0
     \\/     M anipulation  |
\*---------------------------------------------------------------------------*/
FoamFile
{
    version     2.0;
    format      ascii;
    class       volScalarField;
    location    "3";
    object      p;
}
// * * * * * * * * * * * * * * * * * * * * * * * * * * * * * * * * * * * * * //

dimensions      [0 2 -2 0 0 0 0];

internalField   nonuniform List<scalar> 
29500
(
1.00674
1.00656
1.00623
1.00567
1.00496
1.00418
1.00339
1.00262
1.00189
1.00121
1.00065
1.00015
0.999844
0.999499
0.999128
1.00674
1.0066
1.00633
1.00585
1.00522
1.0045
1.00374
1.00297
1.00221
1.00147
1.00081
1.00019
0.999787
0.99925
0.998796
1.00674
1.00658
1.0063
1.0058
1.00514
1.00439
1.00361
1.00284
1.00209
1.00138
1.00075
1.00016
0.999772
0.999199
0.998839
1.00675
1.00657
1.00627
1.00574
1.00506
1.00429
1.00349
1.00271
1.00196
1.00126
1.00065
1.00009
0.999709
0.99911
0.998724
1.00675
1.00657
1.00627
1.00574
1.00506
1.00429
1.00349
1.00269
1.00194
1.00122
1.0006
1.00002
0.999617
0.998977
0.998539
1.00675
1.00658
1.00627
1.00575
1.00509
1.00433
1.00352
1.00271
1.00194
1.00121
1.00057
0.999968
0.999543
0.998865
0.998399
1.00676
1.00658
1.00627
1.00575
1.0051
1.00434
1.00353
1.00272
1.00194
1.0012
1.00055
0.999935
0.999495
0.998787
0.998294
1.00676
1.00658
1.00626
1.00575
1.00509
1.00434
1.00354
1.00273
1.00194
1.00119
1.00054
0.999914
0.999456
0.998721
0.998191
1.00677
1.00659
1.00626
1.00574
1.00509
1.00434
1.00354
1.00273
1.00195
1.00119
1.00053
0.999893
0.999416
0.998656
0.998091
1.00677
1.00659
1.00626
1.00574
1.00508
1.00434
1.00355
1.00274
1.00195
1.00119
1.00051
0.999866
0.999369
0.99859
0.997994
1.00678
1.0066
1.00626
1.00574
1.00508
1.00434
1.00354
1.00273
1.00194
1.00118
1.00049
0.999833
0.99932
0.998526
0.997905
1.00679
1.00661
1.00627
1.00574
1.00508
1.00433
1.00354
1.00272
1.00193
1.00116
1.00047
0.999798
0.999269
0.998464
0.997821
1.0068
1.00662
1.00628
1.00575
1.00509
1.00434
1.00354
1.00272
1.00192
1.00114
1.00045
0.999765
0.99922
0.998406
0.997743
1.00681
1.00663
1.0063
1.00577
1.0051
1.00435
1.00354
1.00272
1.00192
1.00113
1.00043
0.999732
0.999171
0.99835
0.997668
1.00683
1.00664
1.00631
1.00579
1.00512
1.00436
1.00355
1.00273
1.00191
1.00112
1.00041
0.9997
0.999122
0.998294
0.997596
1.00684
1.00666
1.00633
1.00581
1.00514
1.00438
1.00357
1.00273
1.00191
1.00111
1.00038
0.999665
0.999071
0.998237
0.997526
1.00685
1.00667
1.00634
1.00582
1.00516
1.0044
1.00358
1.00274
1.00191
1.0011
1.00036
0.999626
0.999017
0.998181
0.99746
1.00687
1.00668
1.00636
1.00584
1.00517
1.00441
1.00359
1.00274
1.0019
1.00108
1.00033
0.999585
0.998963
0.998125
0.997397
1.00688
1.0067
1.00637
1.00585
1.00518
1.00442
1.00359
1.00274
1.00189
1.00106
1.0003
0.999545
0.99891
0.998073
0.997338
1.0069
1.00671
1.00638
1.00586
1.00519
1.00443
1.0036
1.00274
1.00188
1.00104
1.00027
0.999506
0.99886
0.998022
0.997282
1.00691
1.00672
1.00639
1.00586
1.0052
1.00444
1.0036
1.00273
1.00187
1.00102
1.00024
0.99947
0.998812
0.997974
0.997228
1.00693
1.00674
1.0064
1.00587
1.00521
1.00444
1.0036
1.00273
1.00186
1.00101
1.00021
0.999435
0.998765
0.997927
0.997176
1.00695
1.00675
1.00641
1.00588
1.00521
1.00444
1.0036
1.00273
1.00185
1.00099
1.00019
0.999401
0.998719
0.99788
0.997124
1.00696
1.00677
1.00642
1.00589
1.00522
1.00445
1.00361
1.00272
1.00184
1.00097
1.00017
0.999367
0.998673
0.997833
0.997073
1.00698
1.00679
1.00644
1.0059
1.00523
1.00446
1.00361
1.00272
1.00184
1.00096
1.00014
0.999333
0.998626
0.997786
0.997022
1.007
1.00681
1.00646
1.00592
1.00524
1.00446
1.00361
1.00272
1.00183
1.00094
1.00012
0.999297
0.998578
0.997737
0.996971
1.00702
1.00683
1.00648
1.00594
1.00526
1.00448
1.00362
1.00272
1.00182
1.00093
1.00009
0.99926
0.99853
0.997688
0.996921
1.00705
1.00685
1.0065
1.00596
1.00528
1.00449
1.00363
1.00272
1.00181
1.00091
1.00006
0.999221
0.99848
0.997638
0.99687
1.00707
1.00688
1.00652
1.00598
1.0053
1.00451
1.00363
1.00272
1.0018
1.00089
1.00003
0.999183
0.99843
0.997588
0.99682
1.00709
1.0069
1.00654
1.00601
1.00532
1.00452
1.00364
1.00272
1.00179
1.00087
1
0.999143
0.99838
0.997538
0.996769
1.00712
1.00692
1.00657
1.00603
1.00534
1.00454
1.00365
1.00272
1.00179
1.00085
0.999972
0.999103
0.998331
0.997488
0.99672
1.00714
1.00695
1.00659
1.00605
1.00536
1.00455
1.00366
1.00272
1.00178
1.00083
0.999941
0.999063
0.998281
0.997439
0.99667
1.00717
1.00697
1.00661
1.00607
1.00537
1.00456
1.00367
1.00272
1.00177
1.00081
0.999912
0.999025
0.998233
0.99739
0.996621
1.00719
1.007
1.00663
1.00609
1.00539
1.00458
1.00367
1.00272
1.00176
1.00079
0.999882
0.998986
0.998185
0.99734
0.996571
1.00722
1.00702
1.00666
1.00611
1.00541
1.00459
1.00368
1.00272
1.00175
1.00078
0.999854
0.998948
0.998137
0.997291
0.996521
1.00725
1.00705
1.00668
1.00613
1.00542
1.0046
1.00369
1.00272
1.00174
1.00076
0.999824
0.998909
0.998088
0.99724
0.99647
1.00728
1.00708
1.00671
1.00615
1.00544
1.00461
1.00369
1.00272
1.00173
1.00074
0.999795
0.99887
0.99804
0.99719
0.996418
1.00731
1.00711
1.00673
1.00617
1.00546
1.00462
1.0037
1.00272
1.00172
1.00072
0.999765
0.99883
0.99799
0.997138
0.996365
1.00734
1.00714
1.00676
1.0062
1.00548
1.00464
1.00371
1.00272
1.00171
1.0007
0.999735
0.99879
0.99794
0.997085
0.996312
1.00737
1.00717
1.00679
1.00622
1.0055
1.00466
1.00372
1.00272
1.0017
1.00068
0.999703
0.998749
0.997888
0.997031
0.996257
1.0074
1.0072
1.00682
1.00625
1.00552
1.00467
1.00373
1.00272
1.00169
1.00066
0.999672
0.998707
0.997837
0.996977
0.996202
1.00744
1.00724
1.00685
1.00628
1.00555
1.00469
1.00374
1.00272
1.00168
1.00064
0.999639
0.998664
0.997784
0.996922
0.996145
1.00747
1.00727
1.00688
1.00631
1.00558
1.00471
1.00375
1.00272
1.00167
1.00062
0.999607
0.998621
0.997732
0.996866
0.996089
1.00751
1.00731
1.00692
1.00634
1.0056
1.00473
1.00376
1.00272
1.00166
1.0006
0.999573
0.998577
0.997678
0.996809
0.99603
1.00755
1.00734
1.00695
1.00637
1.00563
1.00475
1.00377
1.00272
1.00165
1.00057
0.999539
0.998533
0.997625
0.996753
0.995971
1.00758
1.00738
1.00698
1.0064
1.00565
1.00477
1.00378
1.00272
1.00164
1.00055
0.999505
0.998488
0.997571
0.996695
0.995911
1.00762
1.00742
1.00702
1.00643
1.00568
1.00479
1.00379
1.00272
1.00163
1.00053
0.999471
0.998443
0.997516
0.996636
0.995851
1.00766
1.00746
1.00705
1.00646
1.0057
1.0048
1.0038
1.00272
1.00162
1.00051
0.999435
0.998398
0.997461
0.996577
0.995788
1.00771
1.0075
1.00709
1.00649
1.00573
1.00482
1.00381
1.00272
1.00161
1.00048
0.999401
0.998352
0.997406
0.996517
0.995725
1.00775
1.00754
1.00713
1.00652
1.00575
1.00484
1.00382
1.00272
1.0016
1.00046
0.999365
0.998306
0.997349
0.996455
0.995661
1.00779
1.00758
1.00717
1.00656
1.00578
1.00486
1.00383
1.00273
1.00159
1.00044
0.99933
0.99826
0.997293
0.996393
0.995596
1.00784
1.00762
1.00721
1.00659
1.00581
1.00488
1.00384
1.00273
1.00158
1.00042
0.999294
0.998212
0.997235
0.99633
0.995529
1.00788
1.00767
1.00725
1.00663
1.00584
1.00491
1.00386
1.00273
1.00157
1.00039
0.999259
0.998165
0.997177
0.996265
0.995461
1.00793
1.00771
1.00729
1.00667
1.00588
1.00493
1.00387
1.00273
1.00156
1.00037
0.999222
0.998116
0.997117
0.996199
0.995392
1.00798
1.00776
1.00733
1.00671
1.00591
1.00496
1.00389
1.00274
1.00155
1.00035
0.999185
0.998067
0.997056
0.996133
0.995322
1.00802
1.00781
1.00738
1.00675
1.00595
1.00499
1.0039
1.00274
1.00154
1.00032
0.999147
0.998016
0.996994
0.996064
0.99525
1.00807
1.00786
1.00743
1.0068
1.00598
1.00501
1.00392
1.00275
1.00153
1.0003
0.999109
0.997965
0.996932
0.995995
0.995177
1.00812
1.00791
1.00747
1.00684
1.00602
1.00504
1.00394
1.00275
1.00152
1.00027
0.999069
0.997913
0.996869
0.995924
0.995102
1.00818
1.00796
1.00752
1.00688
1.00606
1.00507
1.00395
1.00275
1.00151
1.00025
0.999029
0.99786
0.996805
0.995853
0.995026
1.00823
1.00801
1.00757
1.00692
1.00609
1.00509
1.00397
1.00276
1.0015
1.00022
0.998988
0.997806
0.996739
0.995779
0.994948
1.00828
1.00807
1.00762
1.00697
1.00613
1.00512
1.00399
1.00276
1.00148
1.0002
0.998948
0.997752
0.996673
0.995705
0.994869
1.00834
1.00812
1.00767
1.00701
1.00617
1.00515
1.004
1.00276
1.00147
1.00017
0.998906
0.997697
0.996606
0.995629
0.994788
1.0084
1.00818
1.00772
1.00706
1.00621
1.00518
1.00402
1.00276
1.00146
1.00014
0.998864
0.997641
0.996538
0.995552
0.994706
1.00846
1.00823
1.00777
1.00711
1.00624
1.00521
1.00404
1.00277
1.00145
1.00012
0.998821
0.997584
0.996468
0.995474
0.994621
1.00851
1.00829
1.00783
1.00716
1.00629
1.00524
1.00405
1.00277
1.00144
1.00009
0.998778
0.997527
0.996398
0.995394
0.994535
1.00858
1.00835
1.00788
1.00721
1.00633
1.00527
1.00407
1.00278
1.00143
1.00006
0.998735
0.997469
0.996326
0.995312
0.994447
1.00864
1.00841
1.00794
1.00726
1.00637
1.0053
1.00409
1.00278
1.00142
1.00003
0.998691
0.99741
0.996254
0.99523
0.994357
1.0087
1.00847
1.008
1.00731
1.00642
1.00534
1.00411
1.00279
1.00141
1.00001
0.998646
0.997349
0.99618
0.995145
0.994265
1.00877
1.00854
1.00806
1.00737
1.00646
1.00537
1.00414
1.0028
1.0014
0.999979
0.998601
0.997288
0.996105
0.99506
0.994172
1.00883
1.0086
1.00812
1.00742
1.00651
1.00541
1.00416
1.0028
1.00138
0.99995
0.998554
0.997225
0.996028
0.994972
0.994077
1.0089
1.00867
1.00819
1.00748
1.00656
1.00544
1.00418
1.00281
1.00137
0.999921
0.998507
0.997162
0.99595
0.994884
0.99398
1.00897
1.00874
1.00825
1.00754
1.00661
1.00548
1.0042
1.00281
1.00136
0.999891
0.998459
0.997097
0.99587
0.994793
0.993881
1.00904
1.00881
1.00832
1.0076
1.00666
1.00552
1.00423
1.00282
1.00135
0.999861
0.99841
0.997032
0.99579
0.994702
0.993782
1.00911
1.00888
1.00838
1.00766
1.00671
1.00556
1.00425
1.00283
1.00134
0.99983
0.99836
0.996965
0.995707
0.994608
0.993679
1.00918
1.00895
1.00845
1.00772
1.00676
1.00559
1.00427
1.00283
1.00133
0.999799
0.998311
0.996897
0.995624
0.994513
0.993576
1.00926
1.00902
1.00852
1.00778
1.00681
1.00563
1.0043
1.00284
1.00131
0.999767
0.998259
0.996828
0.995539
0.994416
0.99347
1.00934
1.0091
1.00859
1.00784
1.00686
1.00568
1.00432
1.00285
1.0013
0.999736
0.998208
0.996758
0.995453
0.994318
0.993363
1.00941
1.00918
1.00866
1.00791
1.00692
1.00572
1.00435
1.00286
1.00129
0.999704
0.998155
0.996686
0.995364
0.994217
0.993254
1.00949
1.00926
1.00874
1.00798
1.00697
1.00576
1.00438
1.00287
1.00128
0.999672
0.998102
0.996614
0.995276
0.994115
0.993143
1.00958
1.00934
1.00881
1.00804
1.00703
1.00581
1.0044
1.00288
1.00127
0.999638
0.998047
0.99654
0.995184
0.994011
0.993029
1.00966
1.00942
1.00889
1.00811
1.00709
1.00585
1.00443
1.00289
1.00126
0.999605
0.997993
0.996465
0.995092
0.993905
0.992914
1.00974
1.0095
1.00897
1.00819
1.00715
1.0059
1.00446
1.00289
1.00124
0.999571
0.997936
0.996389
0.994998
0.993797
0.992795
1.00983
1.00959
1.00905
1.00826
1.00722
1.00595
1.00449
1.00291
1.00123
0.999536
0.997879
0.996311
0.994903
0.993688
0.992676
1.00992
1.00967
1.00913
1.00833
1.00728
1.00599
1.00452
1.00292
1.00122
0.999501
0.99782
0.996232
0.994805
0.993575
0.992552
1.01001
1.00976
1.00922
1.00841
1.00734
1.00604
1.00456
1.00293
1.00121
0.999465
0.997762
0.996152
0.994707
0.993462
0.992428
1.0101
1.00985
1.0093
1.00849
1.00741
1.00609
1.00459
1.00294
1.0012
0.999428
0.997701
0.99607
0.994606
0.993346
0.9923
1.0102
1.00994
1.00939
1.00857
1.00748
1.00615
1.00462
1.00295
1.00118
0.999391
0.99764
0.995987
0.994504
0.993229
0.99217
1.01029
1.01004
1.00948
1.00865
1.00754
1.0062
1.00465
1.00296
1.00117
0.999353
0.997578
0.995902
0.9944
0.993108
0.992036
1.01039
1.01013
1.00957
1.00873
1.00761
1.00625
1.00469
1.00297
1.00116
0.999315
0.997516
0.995817
0.994294
0.992987
0.991901
1.01049
1.01023
1.00966
1.00881
1.00769
1.00631
1.00472
1.00298
1.00114
0.999277
0.997451
0.99573
0.994186
0.992862
0.991762
1.01059
1.01033
1.00976
1.0089
1.00776
1.00637
1.00476
1.003
1.00113
0.999238
0.997387
0.995642
0.994077
0.992736
0.991622
1.01069
1.01043
1.00985
1.00899
1.00783
1.00642
1.0048
1.00301
1.00112
0.999198
0.997321
0.995551
0.993965
0.992606
0.991477
1.0108
1.01054
1.00995
1.00908
1.00791
1.00648
1.00484
1.00302
1.00111
0.999159
0.997255
0.99546
0.993852
0.992475
0.991331
1.0109
1.01064
1.01005
1.00917
1.00799
1.00654
1.00488
1.00304
1.00109
0.999118
0.997187
0.995367
0.993736
0.99234
0.991181
1.01101
1.01075
1.01016
1.00927
1.00807
1.00661
1.00492
1.00305
1.00108
0.999077
0.997118
0.995272
0.993618
0.992204
0.991029
1.01112
1.01086
1.01026
1.00936
1.00815
1.00667
1.00496
1.00307
1.00107
0.999035
0.997048
0.995175
0.993497
0.992064
0.990873
1.01124
1.01098
1.01037
1.00946
1.00824
1.00674
1.005
1.00309
1.00106
0.998993
0.996976
0.995077
0.993375
0.991922
0.990715
1.01135
1.01109
1.01048
1.00956
1.00832
1.0068
1.00504
1.0031
1.00104
0.99895
0.996903
0.994976
0.99325
0.991776
0.990554
1.01147
1.01121
1.01059
1.00966
1.00841
1.00687
1.00509
1.00312
1.00103
0.998906
0.99683
0.994875
0.993123
0.991628
0.99039
1.01159
1.01133
1.0107
1.00977
1.0085
1.00694
1.00513
1.00313
1.00102
0.998861
0.996754
0.99477
0.992992
0.991477
0.990223
1.01171
1.01145
1.01082
1.00987
1.00859
1.00701
1.00518
1.00315
1.001
0.998816
0.996678
0.994664
0.99286
0.991323
0.990053
1.01184
1.01157
1.01094
1.00998
1.00868
1.00708
1.00522
1.00317
1.00099
0.99877
0.996599
0.994556
0.992725
0.991166
0.989879
1.01197
1.0117
1.01106
1.01009
1.00878
1.00716
1.00527
1.00319
1.00098
0.998724
0.99652
0.994446
0.992588
0.991006
0.989703
1.0121
1.01183
1.01118
1.01021
1.00887
1.00723
1.00532
1.00321
1.00096
0.998676
0.996439
0.994334
0.992447
0.990842
0.989522
1.01223
1.01196
1.01131
1.01032
1.00897
1.00731
1.00537
1.00323
1.00095
0.998628
0.996357
0.99422
0.992305
0.990676
0.989338
1.01237
1.0121
1.01144
1.01044
1.00907
1.00739
1.00543
1.00325
1.00094
0.998579
0.996273
0.994103
0.992158
0.990506
0.989149
1.01251
1.01224
1.01157
1.01056
1.00918
1.00747
1.00548
1.00327
1.00092
0.99853
0.996187
0.993984
0.99201
0.990333
0.988958
1.01265
1.01238
1.0117
1.01068
1.00928
1.00755
1.00553
1.00329
1.00091
0.998479
0.9961
0.993862
0.991858
0.990156
0.988762
1.01279
1.01252
1.01184
1.01081
1.00939
1.00764
1.00559
1.00332
1.00089
0.998428
0.996011
0.993739
0.991703
0.989976
0.988562
1.01294
1.01267
1.01198
1.01094
1.0095
1.00772
1.00565
1.00334
1.00088
0.998375
0.99592
0.993612
0.991544
0.989791
0.988358
1.01309
1.01282
1.01212
1.01107
1.00961
1.00781
1.00571
1.00336
1.00087
0.998321
0.995828
0.993484
0.991383
0.989604
0.98815
1.01324
1.01297
1.01227
1.0112
1.00973
1.0079
1.00577
1.00339
1.00085
0.998266
0.995733
0.993352
0.991218
0.989412
0.987938
1.01339
1.01312
1.01242
1.01134
1.00984
1.008
1.00583
1.00341
1.00084
0.998211
0.995637
0.993218
0.991051
0.989217
0.987722
1.01355
1.01328
1.01257
1.01148
1.00996
1.00809
1.00589
1.00344
1.00082
0.998153
0.995539
0.993081
0.990879
0.989018
0.987501
1.01372
1.01344
1.01272
1.01162
1.01009
1.00819
1.00596
1.00347
1.00081
0.998096
0.995439
0.992941
0.990704
0.988815
0.987277
1.01388
1.01361
1.01288
1.01177
1.01021
1.00829
1.00602
1.00349
1.00079
0.998036
0.995336
0.992798
0.990525
0.988607
0.987048
1.01405
1.01378
1.01304
1.01192
1.01034
1.00839
1.00609
1.00352
1.00078
0.997976
0.995232
0.992653
0.990343
0.988395
0.986815
1.01422
1.01395
1.01321
1.01207
1.01047
1.00849
1.00616
1.00355
1.00076
0.997914
0.995124
0.992503
0.990157
0.988179
0.986576
1.0144
1.01412
1.01338
1.01222
1.0106
1.0086
1.00623
1.00358
1.00074
0.997851
0.995016
0.992352
0.989967
0.987958
0.986334
1.01457
1.0143
1.01355
1.01238
1.01074
1.00871
1.0063
1.00361
1.00073
0.997786
0.994904
0.992196
0.989773
0.987733
0.986086
1.01476
1.01448
1.01372
1.01254
1.01088
1.00882
1.00638
1.00364
1.00071
0.997721
0.99479
0.992039
0.989576
0.987503
0.985833
1.01494
1.01467
1.0139
1.01271
1.01102
1.00893
1.00645
1.00367
1.00069
0.997653
0.994673
0.991876
0.989374
0.987269
0.985575
1.01513
1.01486
1.01408
1.01288
1.01117
1.00905
1.00653
1.0037
1.00068
0.997585
0.994555
0.991712
0.989169
0.98703
0.985312
1.01533
1.01505
1.01427
1.01305
1.01132
1.00917
1.00661
1.00373
1.00066
0.997514
0.994433
0.991543
0.988959
0.986786
0.985043
1.01552
1.01525
1.01446
1.01322
1.01147
1.00929
1.00669
1.00377
1.00064
0.997442
0.994309
0.991371
0.988745
0.986537
0.98477
1.01572
1.01545
1.01466
1.0134
1.01163
1.00941
1.00677
1.0038
1.00062
0.997368
0.994182
0.991195
0.988526
0.986283
0.984489
1.01593
1.01566
1.01486
1.01359
1.01179
1.00954
1.00686
1.00384
1.0006
0.997293
0.994053
0.991017
0.988304
0.986024
0.984204
1.01614
1.01587
1.01506
1.01378
1.01195
1.00967
1.00694
1.00387
1.00058
0.997216
0.993921
0.990833
0.988076
0.985759
0.983912
1.01635
1.01609
1.01527
1.01397
1.01212
1.0098
1.00703
1.00391
1.00056
0.997137
0.993786
0.990647
0.987844
0.98549
0.983614
1.01657
1.01631
1.01548
1.01416
1.01229
1.00994
1.00712
1.00394
1.00054
0.997057
0.993648
0.990456
0.987607
0.985214
0.983309
1.0168
1.01653
1.0157
1.01437
1.01247
1.01008
1.00722
1.00398
1.00051
0.996975
0.993507
0.990261
0.987365
0.984932
0.982998
1.01702
1.01676
1.01592
1.01457
1.01264
1.01022
1.00731
1.00402
1.00049
0.99689
0.993363
0.990062
0.987117
0.984644
0.98268
1.01726
1.017
1.01614
1.01478
1.01283
1.01037
1.00741
1.00406
1.00047
0.996804
0.993216
0.989859
0.986865
0.984351
0.982356
1.01749
1.01723
1.01637
1.015
1.01301
1.01052
1.0075
1.0041
1.00045
0.996716
0.993065
0.98965
0.986606
0.984051
0.982024
1.01774
1.01748
1.01661
1.01522
1.01321
1.01067
1.0076
1.00414
1.00042
0.996626
0.992911
0.989438
0.986343
0.983745
0.981685
1.01798
1.01773
1.01685
1.01544
1.0134
1.01082
1.00771
1.00418
1.0004
0.996533
0.992753
0.98922
0.986072
0.983431
0.981339
1.01824
1.01798
1.0171
1.01567
1.0136
1.01098
1.00781
1.00422
1.00037
0.996439
0.992592
0.988998
0.985797
0.983111
0.980986
1.01849
1.01825
1.01735
1.01591
1.01381
1.01114
1.00792
1.00426
1.00034
0.996341
0.992426
0.98877
0.985514
0.982784
0.980625
1.01876
1.01851
1.01761
1.01615
1.01402
1.01131
1.00803
1.0043
1.00032
0.996242
0.992257
0.988538
0.985227
0.982451
0.980257
1.01903
1.01879
1.01788
1.01639
1.01423
1.01148
1.00814
1.00435
1.00029
0.996139
0.992083
0.988299
0.984931
0.982109
0.97988
1.0193
1.01906
1.01815
1.01664
1.01445
1.01165
1.00825
1.00439
1.00026
0.996034
0.991906
0.988055
0.98463
0.981761
0.979496
1.01958
1.01935
1.01842
1.0169
1.01467
1.01183
1.00837
1.00444
1.00023
0.995926
0.991723
0.987805
0.984321
0.981404
0.979104
1.01987
1.01964
1.0187
1.01716
1.0149
1.01201
1.00849
1.00448
1.0002
0.995816
0.991537
0.987549
0.984006
0.98104
0.978703
1.02017
1.01994
1.01899
1.01743
1.01514
1.0122
1.00861
1.00453
1.00016
0.995702
0.991345
0.987287
0.983682
0.980668
0.978294
1.02047
1.02024
1.01929
1.01771
1.01538
1.01239
1.00873
1.00458
1.00013
0.995585
0.991148
0.987018
0.983352
0.980288
0.977876
1.02077
1.02055
1.01959
1.01799
1.01563
1.01258
1.00886
1.00463
1.00009
0.995464
0.990946
0.986742
0.983014
0.979899
0.977449
1.02109
1.02087
1.0199
1.01828
1.01588
1.01278
1.00899
1.00468
1.00006
0.99534
0.990738
0.98646
0.982668
0.979502
0.977014
1.02141
1.0212
1.02022
1.01858
1.01614
1.01298
1.00912
1.00473
1.00002
0.995211
0.990525
0.986171
0.982314
0.979095
0.976569
1.02174
1.02153
1.02054
1.01888
1.0164
1.01319
1.00925
1.00478
0.999979
0.995079
0.990306
0.985874
0.981951
0.97868
0.976115
1.02207
1.02187
1.02088
1.01919
1.01667
1.0134
1.00939
1.00483
0.999936
0.994942
0.99008
0.985569
0.98158
0.978256
0.975651
1.02242
1.02222
1.02122
1.01951
1.01695
1.01362
1.00953
1.00488
0.999892
0.994802
0.989849
0.985258
0.981201
0.977823
0.975178
1.02277
1.02258
1.02157
1.01984
1.01724
1.01384
1.00967
1.00493
0.999845
0.994656
0.98961
0.984937
0.980812
0.977379
0.974694
1.02313
1.02294
1.02192
1.02017
1.01753
1.01407
1.00982
1.00498
0.999796
0.994505
0.989365
0.984609
0.980414
0.976927
0.974201
1.02349
1.02332
1.02229
1.02051
1.01783
1.0143
1.00997
1.00504
0.999744
0.994349
0.989112
0.984272
0.980006
0.976463
0.973698
1.02387
1.0237
1.02266
1.02086
1.01813
1.01454
1.01012
1.00509
0.999689
0.994189
0.988853
0.983926
0.97959
0.97599
0.973184
1.02426
1.02409
1.02305
1.02122
1.01844
1.01479
1.01027
1.00514
0.999631
0.994022
0.988585
0.983571
0.979162
0.975507
0.972659
1.02465
1.0245
1.02344
1.02159
1.01877
1.01504
1.01043
1.00519
0.999571
0.99385
0.988311
0.983208
0.978725
0.975012
0.972123
1.02505
1.02491
1.02384
1.02197
1.01909
1.01529
1.01059
1.00525
0.999506
0.993671
0.988027
0.982834
0.978277
0.974507
0.971576
1.02547
1.02533
1.02426
1.02236
1.01943
1.01555
1.01076
1.0053
0.999439
0.993486
0.987735
0.98245
0.977818
0.97399
0.971017
1.02589
1.02576
1.02468
1.02275
1.01978
1.01582
1.01092
1.00535
0.999366
0.993294
0.987434
0.982056
0.977348
0.973461
0.970447
1.02632
1.0262
1.02511
1.02316
1.02013
1.0161
1.01109
1.0054
0.999291
0.993095
0.987124
0.981651
0.976867
0.972921
0.969864
1.02676
1.02666
1.02556
1.02358
1.02049
1.01638
1.01126
1.00545
0.99921
0.992889
0.986804
0.981235
0.976373
0.972368
0.969269
1.02722
1.02712
1.02602
1.02401
1.02087
1.01666
1.01144
1.0055
0.999125
0.992675
0.986475
0.980808
0.975868
0.971802
0.968662
1.02768
1.0276
1.02649
1.02445
1.02125
1.01696
1.01162
1.00554
0.999034
0.992452
0.986135
0.980368
0.975349
0.971223
0.96804
1.02816
1.02809
1.02697
1.0249
1.02164
1.01726
1.0118
1.00559
0.998939
0.992222
0.985784
0.979917
0.974817
0.970631
0.967406
1.02865
1.02859
1.02746
1.02536
1.02204
1.01756
1.01199
1.00563
0.998837
0.991982
0.985422
0.979452
0.974272
0.970024
0.966758
1.02915
1.02911
1.02797
1.02584
1.02245
1.01788
1.01217
1.00568
0.99873
0.991733
0.985048
0.978975
0.973713
0.969404
0.966095
1.02966
1.02963
1.02849
1.02633
1.02287
1.0182
1.01236
1.00572
0.998616
0.991474
0.984662
0.978484
0.973139
0.968769
0.965417
1.03019
1.03018
1.02902
1.02683
1.02331
1.01853
1.01255
1.00576
0.998495
0.991204
0.984263
0.977978
0.97255
0.968118
0.964725
1.03073
1.03073
1.02957
1.02734
1.02375
1.01886
1.01275
1.00579
0.998366
0.990924
0.98385
0.977458
0.971946
0.967452
0.964017
1.03129
1.0313
1.03014
1.02787
1.02421
1.0192
1.01295
1.00582
0.99823
0.990632
0.983424
0.976922
0.971326
0.966769
0.963293
1.03186
1.03189
1.03072
1.02842
1.02467
1.01955
1.01314
1.00585
0.998085
0.990328
0.982983
0.97637
0.970689
0.96607
0.962552
1.03244
1.03249
1.03131
1.02897
1.02515
1.01991
1.01335
1.00587
0.997932
0.990011
0.982527
0.975802
0.970035
0.965354
0.961795
1.03304
1.03311
1.03192
1.02955
1.02565
1.02028
1.01355
1.00589
0.997768
0.98968
0.982055
0.975216
0.969363
0.96462
0.96102
1.03366
1.03375
1.03255
1.03014
1.02615
1.02065
1.01375
1.00591
0.997595
0.989336
0.981566
0.974612
0.968673
0.963868
0.960228
1.03429
1.0344
1.0332
1.03075
1.02667
1.02103
1.01396
1.00592
0.99741
0.988976
0.981059
0.97399
0.967964
0.963097
0.959417
1.03494
1.03507
1.03387
1.03137
1.0272
1.02142
1.01417
1.00592
0.997213
0.9886
0.980535
0.973348
0.967235
0.962306
0.958587
1.0356
1.03576
1.03455
1.03201
1.02775
1.02182
1.01437
1.00592
0.997004
0.988208
0.979991
0.972686
0.966486
0.961496
0.957738
1.03629
1.03647
1.03526
1.03267
1.02831
1.02223
1.01458
1.00591
0.996782
0.987798
0.979427
0.972002
0.965716
0.960665
0.956869
1.037
1.0372
1.03598
1.03335
1.02889
1.02264
1.01479
1.00589
0.996544
0.987369
0.978842
0.971297
0.964924
0.959813
0.95598
1.03772
1.03796
1.03673
1.03405
1.02948
1.02306
1.01499
1.00586
0.996292
0.986921
0.978235
0.97057
0.964109
0.958939
0.95507
1.03847
1.03873
1.0375
1.03477
1.03008
1.02349
1.0152
1.00582
0.996022
0.986451
0.977605
0.969819
0.963272
0.958043
0.954138
1.03923
1.03953
1.03829
1.03551
1.03071
1.02393
1.0154
1.00577
0.995735
0.98596
0.976951
0.969043
0.96241
0.957124
0.953184
1.04002
1.04035
1.03911
1.03628
1.03135
1.02437
1.0156
1.00571
0.995429
0.985445
0.976271
0.968241
0.961523
0.95618
0.952208
1.04083
1.0412
1.03995
1.03706
1.032
1.02483
1.0158
1.00564
0.995102
0.984906
0.975565
0.967413
0.960611
0.955213
0.951208
1.04167
1.04207
1.04082
1.03787
1.03268
1.02529
1.01599
1.00555
0.994754
0.98434
0.974832
0.966558
0.959672
0.95422
0.950185
1.04253
1.04297
1.04172
1.03871
1.03337
1.02575
1.01618
1.00545
0.994382
0.983747
0.97407
0.965674
0.958705
0.953201
0.949136
1.04342
1.04389
1.04264
1.03957
1.03408
1.02622
1.01636
1.00532
0.993984
0.983125
0.973277
0.96476
0.957711
0.952155
0.948063
1.04433
1.04485
1.0436
1.04045
1.0348
1.0267
1.01654
1.00518
0.99356
0.982471
0.972452
0.963815
0.956687
0.951082
0.946964
1.04528
1.04584
1.04458
1.04137
1.03555
1.02719
1.0167
1.00502
0.993107
0.981786
0.971594
0.962838
0.955632
0.949981
0.945839
1.04625
1.04685
1.0456
1.04231
1.03631
1.02768
1.01685
1.00483
0.992623
0.981066
0.970702
0.961828
0.954547
0.94885
0.944686
1.04725
1.04791
1.04665
1.04328
1.0371
1.02817
1.01699
1.00462
0.992106
0.980309
0.969773
0.960783
0.953429
0.94769
0.943506
1.04829
1.04899
1.04774
1.04429
1.0379
1.02866
1.01712
1.00438
0.991553
0.979515
0.968806
0.959702
0.952278
0.946499
0.942297
1.04936
1.05012
1.04886
1.04532
1.03872
1.02916
1.01723
1.00411
0.990963
0.978679
0.967799
0.958584
0.951092
0.945277
0.94106
1.05046
1.05128
1.05003
1.04639
1.03957
1.02966
1.01732
1.00381
0.990332
0.977801
0.966751
0.957427
0.949872
0.944022
0.939792
1.0516
1.05248
1.05123
1.04749
1.04043
1.03015
1.01739
1.00347
0.989657
0.976878
0.96566
0.95623
0.948614
0.942734
0.938494
1.05278
1.05372
1.05247
1.04863
1.04131
1.03065
1.01744
1.0031
0.988936
0.975907
0.964523
0.954992
0.947319
0.941412
0.937165
1.054
1.05501
1.05376
1.04981
1.04221
1.03114
1.01746
1.00268
0.988165
0.974886
0.963339
0.95371
0.945986
0.940056
0.935804
1.05526
1.05634
1.0551
1.05102
1.04313
1.03162
1.01744
1.00221
0.987341
0.973812
0.962105
0.952384
0.944613
0.938663
0.93441
1.05657
1.05772
1.05648
1.05227
1.04407
1.03209
1.01739
1.00169
0.986461
0.972683
0.96082
0.951012
0.943198
0.937234
0.932983
1.05792
1.05916
1.05792
1.05356
1.04502
1.03255
1.01731
1.00112
0.98552
0.971494
0.959481
0.949592
0.941742
0.935766
0.931521
1.05932
1.06064
1.05941
1.0549
1.04599
1.03299
1.01717
1.00049
0.984515
0.970244
0.958087
0.948124
0.940242
0.934261
0.930025
1.06077
1.06218
1.06095
1.05628
1.04698
1.03341
1.01699
0.999787
0.983441
0.968929
0.956635
0.946604
0.938698
0.932716
0.928493
1.06228
1.06378
1.06256
1.0577
1.04797
1.0338
1.01675
0.999017
0.982294
0.967546
0.955122
0.945032
0.937108
0.931131
0.926924
1.06384
1.06545
1.06422
1.05917
1.04898
1.03417
1.01645
0.998171
0.981069
0.966092
0.953546
0.943405
0.935472
0.929505
0.925319
1.06547
1.06718
1.06596
1.06068
1.05
1.03449
1.01608
0.997241
0.979761
0.964562
0.951906
0.941724
0.933787
0.927837
0.923675
1.06715
1.06898
1.06776
1.06224
1.05102
1.03477
1.01564
0.996222
0.978366
0.962954
0.950198
0.939984
0.932054
0.926126
0.921993
1.0689
1.07085
1.06963
1.06385
1.05203
1.03501
1.0151
0.995105
0.976878
0.961264
0.94842
0.938187
0.930271
0.924371
0.920272
1.07073
1.07281
1.07158
1.06551
1.05305
1.03518
1.01448
0.993883
0.975291
0.959489
0.94657
0.936329
0.928436
0.922572
0.918509
1.07262
1.07484
1.07361
1.06721
1.05405
1.03528
1.01374
0.992548
0.9736
0.957624
0.944646
0.934409
0.926549
0.920727
0.916707
1.0746
1.07697
1.07573
1.06896
1.05503
1.0353
1.01289
0.991092
0.9718
0.955667
0.942646
0.932426
0.92461
0.918837
0.914862
1.07666
1.07919
1.07794
1.07076
1.05599
1.03522
1.01192
0.989505
0.969885
0.953613
0.940566
0.930378
0.922616
0.916899
0.912975
1.07881
1.08151
1.08024
1.07259
1.05691
1.03504
1.0108
0.987779
0.967848
0.95146
0.938406
0.928265
0.920567
0.914914
0.911045
1.08105
1.08394
1.08263
1.07447
1.05778
1.03473
1.00952
0.985904
0.965684
0.949203
0.936163
0.926085
0.918463
0.912882
0.909073
1.0834
1.08648
1.08513
1.07639
1.05858
1.03429
1.00808
0.983869
0.963387
0.94684
0.933835
0.923837
0.916303
0.9108
0.907056
1.08585
1.08915
1.08774
1.07833
1.05931
1.03368
1.00645
0.981665
0.960952
0.944367
0.931421
0.92152
0.914085
0.908669
0.904995
1.08841
1.09195
1.09046
1.0803
1.05993
1.03289
1.00461
0.979283
0.958373
0.941782
0.92892
0.919133
0.911811
0.906489
0.90289
1.0911
1.09489
1.0933
1.08227
1.06044
1.03189
1.00256
0.976711
0.955645
0.939082
0.926329
0.916677
0.909479
0.904259
0.900739
1.09393
1.09799
1.09625
1.08425
1.0608
1.03066
1.00027
0.97394
0.952763
0.936264
0.923649
0.91415
0.907089
0.901978
0.898542
1.09689
1.10125
1.09932
1.0862
1.06098
1.02916
0.99772
0.970961
0.949724
0.933328
0.920878
0.911553
0.904641
0.899648
0.8963
1.10001
1.10469
1.10252
1.08812
1.06096
1.02738
0.994895
0.967765
0.946523
0.930271
0.918016
0.908885
0.902136
0.897266
0.894011
1.10329
1.10832
1.10584
1.08997
1.06068
1.02527
0.991774
0.964343
0.943158
0.927093
0.915064
0.906147
0.899573
0.894835
0.891676
1.10675
1.11216
1.10927
1.09172
1.06011
1.02279
0.98834
0.96069
0.939626
0.923793
0.912022
0.903341
0.896953
0.892352
0.889294
1.11041
1.11623
1.11282
1.09334
1.0592
1.01992
0.984574
0.956799
0.935926
0.920373
0.908891
0.900466
0.894278
0.88982
0.886866
1.11428
1.12053
1.11646
1.09478
1.05789
1.01661
0.980461
0.952667
0.932059
0.916832
0.905672
0.897524
0.891547
0.887238
0.88439
1.11838
1.1251
1.12019
1.09599
1.05611
1.01283
0.975986
0.948292
0.928026
0.913173
0.902367
0.894518
0.888762
0.884608
0.881868
1.12274
1.12994
1.12397
1.09689
1.05381
1.00852
0.971139
0.943674
0.923828
0.909398
0.89898
0.891449
0.885925
0.881928
0.879299
1.12738
1.13508
1.12778
1.09741
1.05091
1.00367
0.965911
0.938816
0.91947
0.905511
0.895513
0.88832
0.883037
0.879201
0.876684
1.13234
1.14053
1.13156
1.09746
1.04732
0.998225
0.9603
0.933725
0.914957
0.901515
0.891971
0.885135
0.8801
0.876428
0.874021
1.13764
1.1463
1.13525
1.09693
1.04296
0.992161
0.954309
0.928408
0.910295
0.897418
0.888358
0.881897
0.877118
0.873609
0.871313
1.14333
1.15241
1.13878
1.0957
1.03775
0.985454
0.947947
0.922878
0.905492
0.893224
0.88468
0.878609
0.874092
0.870745
0.868558
1.14946
1.15886
1.14205
1.09362
1.03159
0.97809
0.94123
0.917149
0.900558
0.888942
0.880943
0.875278
0.871025
0.867839
0.865759
1.15608
1.16564
1.14492
1.09054
1.0244
0.970065
0.934183
0.911238
0.895502
0.884579
0.877154
0.871908
0.867921
0.864891
0.862913
1.16326
1.17273
1.14723
1.08629
1.01612
0.961394
0.926838
0.905167
0.890336
0.880146
0.873322
0.868507
0.864785
0.861904
0.860022
1.17107
1.18008
1.14879
1.08066
1.00666
0.952109
0.919237
0.898955
0.885074
0.875653
0.869456
0.865079
0.86162
0.858879
0.857086
1.17958
1.18761
1.14936
1.07347