/*--------------------------------*- C++ -*----------------------------------*\
  =========                 |
  \\      /  F ield         | OpenFOAM: The Open Source CFD Toolbox
   \\    /   O peration     | Website:  https://openfoam.org
    \\  /    A nd           | Version:  6.0
     \\/     M anipulation  |
\*---------------------------------------------------------------------------*/
FoamFile
{
    version     2.0;
    format      ascii;
    class       volScalarField;
    location    "3";
    object      p;
}
// * * * * * * * * * * * * * * * * * * * * * * * * * * * * * * * * * * * * * //

dimensions      [0 2 -2 0 0 0 0];

internalField   nonuniform List<scalar> 
15000
(
1.00665
1.00653
1.00597
1.00505
1.00389
1.00272
1.00175
1.00096
1.00033
0.999922
0.999486
0.999177
1.00666
1.00659
1.00612
1.00532
1.00422
1.00304
1.00202
1.00113
1.00036
0.999836
0.999186
0.998757
1.00666
1.00657
1.00609
1.00528
1.00418
1.00299
1.00194
1.00104
1.00027
0.999782
0.999096
0.998741
1.00666
1.00655
1.00605
1.00524
1.00416
1.00299
1.00196
1.00108
1.00033
0.999852
0.999127
0.99879
1.00666
1.00654
1.00604
1.00526
1.00421
1.00308
1.00208
1.00121
1.00045
0.99994
0.999145
0.99876
1.00666
1.00654
1.00604
1.00526
1.00422
1.00312
1.00213
1.00125
1.00048
0.999938
0.999087
0.998657
1.00667
1.00653
1.00602
1.00523
1.00419
1.00309
1.00209
1.00121
1.00042
0.999862
0.998984
0.998534
1.00667
1.00653
1.00601
1.00521
1.00417
1.00306
1.00205
1.00116
1.00036
0.999798
0.998904
0.998443
1.00668
1.00653
1.00601
1.00522
1.00418
1.00307
1.00206
1.00116
1.00035
0.999781
0.998864
0.99838
1.00668
1.00654
1.00603
1.00524
1.00421
1.00311
1.0021
1.00121
1.00038
0.999796
0.998849
0.998329
1.00669
1.00655
1.00605
1.00526
1.00424
1.00315
1.00215
1.00125
1.00041
0.999807
0.99883
0.99827
1.0067
1.00656
1.00606
1.00529
1.00428
1.00319
1.00218
1.00128
1.00043
0.999801
0.9988
0.998207
1.00671
1.00657
1.00607
1.00531
1.0043
1.00321
1.0022
1.00128
1.00042
0.999778
0.99876
0.998144
1.00672
1.00658
1.00608
1.00532
1.00432
1.00323
1.00221
1.00129
1.00042
0.999755
0.998725
0.99809
1.00673
1.00659
1.00609
1.00534
1.00434
1.00326
1.00223
1.0013
1.00041
0.999736
0.998697
0.998041
1.00674
1.0066
1.0061
1.00535
1.00436
1.00328
1.00226
1.00132
1.00042
0.999726
0.998677
0.998
1.00675
1.00661
1.00611
1.00536
1.00438
1.00331
1.00228
1.00134
1.00043
0.999718
0.998658
0.99796
1.00676
1.00662
1.00612
1.00537
1.0044
1.00333
1.00231
1.00136
1.00043
0.999712
0.998643
0.997924
1.00678
1.00664
1.00614
1.00539
1.00442
1.00335
1.00233
1.00137
1.00044
0.999704
0.998627
0.997889
1.00679
1.00665
1.00616
1.00541
1.00444
1.00338
1.00235
1.00139
1.00045
0.999698
0.998613
0.997858
1.0068
1.00667
1.00618
1.00544
1.00447
1.00341
1.00238
1.00141
1.00046
0.999691
0.998599
0.997828
1.00682
1.00669
1.00621
1.00547
1.00451
1.00344
1.00241
1.00143
1.00047
0.999685
0.998588
0.9978
1.00683
1.00671
1.00624
1.0055
1.00454
1.00348
1.00244
1.00145
1.00048
0.999678
0.998573
0.997772
1.00685
1.00673
1.00626
1.00553
1.00458
1.00352
1.00247
1.00147
1.00049
0.999669
0.99856
0.997746
1.00687
1.00675
1.00628
1.00556
1.00461
1.00355
1.00249
1.00149
1.00049
0.999658
0.998545
0.99772
1.00689
1.00677
1.0063
1.00558
1.00464
1.00358
1.00252
1.00151
1.00049
0.999647
0.998531
0.997697
1.0069
1.00679
1.00632
1.0056
1.00466
1.0036
1.00254
1.00152
1.00049
0.999635
0.998516
0.997674
1.00692
1.00681
1.00633
1.00562
1.00468
1.00363
1.00256
1.00153
1.0005
0.999625
0.998504
0.997654
1.00694
1.00683
1.00635
1.00564
1.00471
1.00365
1.00258
1.00154
1.0005
0.999615
0.998492
0.997634
1.00697
1.00685
1.00637
1.00567
1.00473
1.00367
1.0026
1.00156
1.00051
0.999607
0.998482
0.997616
1.00699
1.00687
1.0064
1.00569
1.00476
1.0037
1.00262
1.00157
1.00051
0.999599
0.998471
0.997598
1.00701
1.0069
1.00643
1.00572
1.00479
1.00373
1.00265
1.00159
1.00052
0.999593
0.998462
0.997581
1.00704
1.00693
1.00646
1.00575
1.00482
1.00376
1.00268
1.00161
1.00052
0.999585
0.998451
0.997564
1.00706
1.00696
1.00649
1.00579
1.00486
1.0038
1.0027
1.00163
1.00053
0.999579
0.998441
0.997548
1.00709
1.00699
1.00652
1.00583
1.0049
1.00383
1.00273
1.00165
1.00054
0.999572
0.99843
0.997531
1.00712
1.00702
1.00656
1.00586
1.00493
1.00387
1.00276
1.00166
1.00055
0.999565
0.99842
0.997515
1.00715
1.00705
1.00659
1.0059
1.00497
1.0039
1.00279
1.00168
1.00055
0.999557
0.998409
0.997498
1.00718
1.00709
1.00663
1.00594
1.005
1.00394
1.00282
1.0017
1.00056
0.999551
0.998399
0.997483
1.00721
1.00712
1.00666
1.00597
1.00504
1.00397
1.00284
1.00172
1.00056
0.999543
0.998387
0.997467
1.00725
1.00716
1.0067
1.00601
1.00508
1.004
1.00287
1.00173
1.00057
0.999537
0.998378
0.997452
1.00728
1.00719
1.00674
1.00605
1.00511
1.00404
1.0029
1.00175
1.00058
0.99953
0.998366
0.997435
1.00732
1.00723
1.00678
1.00609
1.00515
1.00407
1.00292
1.00177
1.00058
0.999524
0.998356
0.997419
1.00735
1.00727
1.00682
1.00613
1.00519
1.00411
1.00295
1.00179
1.00059
0.999517
0.998344
0.997401
1.00739
1.00731
1.00686
1.00618
1.00524
1.00415
1.00298
1.00181
1.0006
0.999511
0.998332
0.997385
1.00743
1.00735
1.0069
1.00622
1.00528
1.00419
1.00301
1.00182
1.0006
0.999503
0.998319
0.997366
1.00746
1.0074
1.00695
1.00627
1.00532
1.00423
1.00304
1.00184
1.00061
0.999495
0.998306
0.997348
1.0075
1.00744
1.00699
1.00631
1.00537
1.00426
1.00307
1.00186
1.00061
0.999486
0.998291
0.997329
1.00754
1.00748
1.00703
1.00635
1.00541
1.0043
1.0031
1.00188
1.00062
0.999477
0.998277
0.99731
1.00759
1.00752
1.00708
1.0064
1.00545
1.00434
1.00313
1.00189
1.00062
0.999467
0.998262
0.997289
1.00763
1.00757
1.00712
1.00644
1.00549
1.00438
1.00316
1.00191
1.00063
0.999458
0.998247
0.997269
1.00767
1.00762
1.00716
1.00649
1.00553
1.00441
1.00318
1.00192
1.00063
0.999448
0.998231
0.997247
1.00772
1.00766
1.00721
1.00653
1.00558
1.00445
1.00321
1.00194
1.00063
0.99944
0.998216
0.997226
1.00776
1.00771
1.00726
1.00658
1.00562
1.00449
1.00324
1.00196
1.00064
0.99943
0.998199
0.997203
1.00781
1.00776
1.00731
1.00663
1.00567
1.00453
1.00327
1.00197
1.00064
0.999421
0.998183
0.997181
1.00786
1.00781
1.00736
1.00668
1.00571
1.00457
1.0033
1.00199
1.00065
0.999411
0.998166
0.997156
1.00791
1.00787
1.00741
1.00674
1.00576
1.00461
1.00333
1.00201
1.00065
0.999402
0.998149
0.997132
1.00796
1.00792
1.00747
1.00679
1.00581
1.00465
1.00336
1.00203
1.00066
0.999392
0.99813
0.997106
1.00801
1.00798
1.00753
1.00685
1.00586
1.0047
1.0034
1.00205
1.00066
0.999382
0.998112
0.997081
1.00806
1.00804
1.00758
1.00691
1.00592
1.00474
1.00343
1.00207
1.00066
0.999371
0.998092
0.997053
1.00812
1.0081
1.00764
1.00696
1.00597
1.00479
1.00346
1.00209
1.00067
0.999361
0.998072
0.997025
1.00817
1.00816
1.0077
1.00702
1.00602
1.00483
1.00349
1.0021
1.00067
0.999349
0.998051
0.996996
1.00823
1.00822
1.00776
1.00708
1.00608
1.00488
1.00353
1.00212
1.00068
0.999338
0.99803
0.996966
1.00829
1.00828
1.00782
1.00714
1.00613
1.00492
1.00356
1.00214
1.00068
0.999326
0.998007
0.996935
1.00835
1.00835
1.00789
1.00721
1.00619
1.00497
1.0036
1.00216
1.00068
0.999314
0.997985
0.996903
1.00841
1.00841
1.00795
1.00727
1.00625
1.00502
1.00363
1.00218
1.00069
0.999301
0.997961
0.99687
1.00847
1.00848
1.00802
1.00734
1.0063
1.00507
1.00367
1.0022
1.00069
0.999288
0.997937
0.996836
1.00853
1.00855
1.00809
1.0074
1.00636
1.00512
1.0037
1.00222
1.00069
0.999274
0.997911
0.9968
1.0086
1.00861
1.00815
1.00747
1.00642
1.00517
1.00374
1.00224
1.0007
0.99926
0.997885
0.996764
1.00866
1.00869
1.00822
1.00754
1.00648
1.00522
1.00377
1.00226
1.0007
0.999244
0.997857
0.996725
1.00873
1.00876
1.00829
1.00761
1.00655
1.00527
1.00381
1.00228
1.0007
0.999228
0.997829
0.996687
1.0088
1.00883
1.00837
1.00768
1.00661
1.00532
1.00385
1.00229
1.0007
0.999212
0.997799
0.996646
1.00887
1.00891
1.00844
1.00775
1.00667
1.00537
1.00388
1.00231
1.0007
0.999195
0.99777
0.996606
1.00894
1.00898
1.00851
1.00782
1.00673
1.00542
1.00392
1.00233
1.0007
0.999177
0.997738
0.996563
1.00901
1.00906
1.00859
1.00789
1.0068
1.00548
1.00396
1.00235
1.0007
0.999159
0.997707
0.99652
1.00909
1.00914
1.00867
1.00797
1.00687
1.00553
1.004
1.00237
1.0007
0.99914
0.997674
0.996474
1.00916
1.00922
1.00875
1.00805
1.00693
1.00559
1.00403
1.00239
1.0007
0.999121
0.99764
0.996429
1.00924
1.00931
1.00883
1.00812
1.007
1.00564
1.00407
1.00241
1.0007
0.999101
0.997605
0.996381
1.00932
1.00939
1.00891
1.0082
1.00707
1.0057
1.00411
1.00243
1.0007
0.999081
0.997569
0.996332
1.0094
1.00948
1.009
1.00829
1.00715
1.00576
1.00415
1.00245
1.0007
0.999059
0.997532
0.996282
1.00948
1.00957
1.00909
1.00837
1.00722
1.00582
1.00419
1.00247
1.0007
0.999037
0.997494
0.99623
1.00957
1.00966
1.00917
1.00846
1.00729
1.00588
1.00424
1.00249
1.0007
0.999014
0.997455
0.996177
1.00966
1.00975
1.00927
1.00854
1.00737
1.00594
1.00428
1.00251
1.00069
0.998991
0.997415
0.996123
1.00974
1.00985
1.00936
1.00863
1.00745
1.006
1.00432
1.00253
1.00069
0.998966
0.997373
0.996067
1.00983
1.00994
1.00945
1.00872
1.00753
1.00607
1.00436
1.00255
1.00069
0.998941
0.99733
0.99601
1.00993
1.01004
1.00955
1.00881
1.00761
1.00613
1.00441
1.00257
1.00068
0.998914
0.997286
0.99595
1.01002
1.01014
1.00965
1.00891
1.00769
1.0062
1.00445
1.00259
1.00068
0.998887
0.99724
0.99589
1.01012
1.01024
1.00975
1.009
1.00777
1.00626
1.00449
1.00261
1.00067
0.998858
0.997193
0.995827
1.01022
1.01035
1.00985
1.0091
1.00785
1.00633
1.00454
1.00263
1.00067
0.998829
0.997145
0.995763
1.01032
1.01045
1.00995
1.0092
1.00794
1.0064
1.00458
1.00265
1.00066
0.998799
0.997095
0.995698
1.01042
1.01056
1.01006
1.0093
1.00802
1.00647
1.00463
1.00267
1.00065
0.998767
0.997044
0.99563
1.01052
1.01067
1.01016
1.0094
1.00811
1.00654
1.00467
1.00268
1.00064
0.998734
0.996991
0.995561
1.01063
1.01078
1.01027
1.0095
1.0082
1.00661
1.00472
1.0027
1.00063
0.998701
0.996936
0.99549
1.01074
1.01089
1.01038
1.00961
1.00829
1.00668
1.00476
1.00272
1.00062
0.998666
0.99688
0.995417
1.01085
1.01101
1.0105
1.00972
1.00838
1.00675
1.00481
1.00274
1.00061
0.99863
0.996822
0.995342
1.01096
1.01113
1.01061
1.00983
1.00848
1.00682
1.00485
1.00276
1.0006
0.998593
0.996763
0.995265
1.01108
1.01125
1.01073
1.00994
1.00857
1.0069
1.0049
1.00278
1.00059
0.998554
0.996702
0.995186
1.01119
1.01137
1.01085
1.01005
1.00867
1.00697
1.00495
1.00279
1.00058
0.998515
0.996639
0.995105
1.01131
1.0115
1.01097
1.01017
1.00877
1.00705
1.005
1.00281
1.00057
0.998474
0.996575
0.995021
1.01143
1.01163
1.0111
1.01028
1.00887
1.00713
1.00505
1.00283
1.00055
0.998432
0.996508
0.994936
1.01156
1.01176
1.01123
1.0104
1.00897
1.00721
1.0051
1.00285
1.00054
0.998389
0.99644
0.994848
1.01169
1.01189
1.01136
1.01053
1.00907
1.00729
1.00515
1.00287
1.00052
0.998344
0.996369
0.994758
1.01182
1.01203
1.01149
1.01065
1.00918
1.00737
1.0052
1.00289
1.0005
0.998298
0.996297
0.994666
1.01195
1.01217
1.01163
1.01078
1.00929
1.00746
1.00525
1.0029
1.00049
0.99825
0.996222
0.994571
1.01208
1.01231
1.01177
1.01091
1.0094
1.00754
1.0053
1.00292
1.00047
0.9982
0.996145
0.994473
1.01222
1.01245
1.01191
1.01104
1.00951
1.00763
1.00535
1.00294
1.00045
0.998149
0.996067
0.994372
1.01236
1.0126
1.01205
1.01118
1.00963
1.00772
1.00541
1.00296
1.00043
0.998096
0.995985
0.994269
1.0125
1.01275
1.0122
1.01131
1.00974
1.00781
1.00546
1.00297
1.00041
0.998041
0.995901
0.994163
1.01265
1.0129
1.01235
1.01145
1.00986
1.0079
1.00552
1.00299
1.00039
0.997984
0.995815
0.994054
1.0128
1.01306
1.0125
1.0116
1.00998
1.00799
1.00557
1.00301
1.00036
0.997926
0.995726
0.993942
1.01295
1.01322
1.01266
1.01174
1.0101
1.00809
1.00563
1.00302
1.00034
0.997865
0.995634
0.993827
1.0131
1.01338
1.01282
1.01189
1.01023
1.00818
1.00568
1.00304
1.00031
0.997802
0.99554
0.993708
1.01326
1.01355
1.01298
1.01204
1.01036
1.00828
1.00574
1.00306
1.00028
0.997737
0.995443
0.993586
1.01342
1.01371
1.01314
1.0122
1.01049
1.00838
1.0058
1.00307
1.00026
0.99767
0.995343
0.993462
1.01359
1.01389
1.01331
1.01235
1.01062
1.00848
1.00585
1.00308
1.00023
0.9976
0.99524
0.993333
1.01375
1.01406
1.01348
1.01251
1.01075
1.00858
1.00591
1.0031
1.00019
0.997529
0.995135
0.993201
1.01392
1.01424
1.01366
1.01267
1.01089
1.00868
1.00597
1.00311
1.00016
0.997455
0.995025
0.993065
1.0141
1.01442
1.01384
1.01284
1.01103
1.00879
1.00603
1.00313
1.00013
0.997378
0.994914
0.992926
1.01428
1.01461
1.01402
1.01301
1.01118
1.00889
1.0061
1.00314
1.00009
0.997299
0.994798
0.992782
1.01446
1.0148
1.01421
1.01318
1.01132
1.009
1.00616
1.00315
1.00005
0.997217
0.994679
0.992635
1.01464
1.015
1.0144
1.01336
1.01147
1.00911
1.00622
1.00316
1.00002
0.997133
0.994557
0.992484
1.01483
1.01519
1.01459
1.01354
1.01162
1.00923
1.00628
1.00317
0.999976
0.997046
0.994431
0.992329
1.01502
1.0154
1.01479
1.01372
1.01178
1.00934
1.00635
1.00319
0.999933
0.996955
0.994301
0.992169
1.01522
1.0156
1.01499
1.01391
1.01194
1.00946
1.00641
1.0032
0.999889
0.996862
0.994168
0.992005
1.01542
1.01581
1.0152
1.0141
1.0121
1.00958
1.00648
1.00321
0.999843
0.996766
0.994031
0.991835
1.01563
1.01603
1.01541
1.0143
1.01226
1.0097
1.00655
1.00321
0.999794
0.996666
0.993889
0.991662
1.01584
1.01625
1.01562
1.0145
1.01243
1.00982
1.00661
1.00322
0.999744
0.996563
0.993743
0.991484
1.01605
1.01647
1.01584
1.0147
1.0126
1.00995
1.00668
1.00323
0.999691
0.996457
0.993594
0.991301
1.01627
1.0167
1.01606
1.01491
1.01277
1.01007
1.00675
1.00323
0.999636
0.996347
0.993439
0.991112
1.01649
1.01694
1.01629
1.01512
1.01295
1.0102
1.00682
1.00324
0.999579
0.996234
0.99328
0.990919
1.01672
1.01717
1.01653
1.01534
1.01313
1.01033
1.00689
1.00324
0.999519
0.996116
0.993116
0.99072
1.01695
1.01742
1.01676
1.01556
1.01332
1.01046
1.00696
1.00325
0.999456
0.995995
0.992948
0.990517
1.01719
1.01767
1.01701
1.01578
1.0135
1.0106
1.00703
1.00325
0.999391
0.995869
0.992774
0.990307
1.01743
1.01792
1.01726
1.01601
1.01369
1.01074
1.0071
1.00325
0.999323
0.99574
0.992596
0.990092
1.01768
1.01818
1.01751
1.01624
1.01389
1.01088
1.00717
1.00325
0.999252
0.995606
0.992412
0.98987
1.01793
1.01844
1.01777
1.01648
1.01409
1.01102
1.00724
1.00324
0.999178
0.995469
0.992223
0.989643
1.01819
1.01871
1.01803
1.01673
1.01429
1.01116
1.00732
1.00324
0.9991
0.995326
0.992028
0.989409
1.01845
1.01899
1.0183
1.01698
1.0145
1.01131
1.00739
1.00323
0.99902
0.995179
0.991828
0.98917
1.01872
1.01927
1.01858
1.01723
1.01471
1.01146
1.00746
1.00323
0.998936
0.995027
0.991621
0.988923
1.01899
1.01956
1.01886
1.01749
1.01492
1.01161
1.00754
1.00322
0.998849
0.99487
0.991409
0.988671
1.01927
1.01985
1.01915
1.01776
1.01514
1.01176
1.00761
1.00321
0.998758
0.994707
0.99119
0.988411
1.01956
1.02015
1.01944
1.01803
1.01537
1.01192
1.00769
1.0032
0.998663
0.99454
0.990966
0.988144
1.01985
1.02046
1.01974
1.01831
1.0156
1.01208
1.00776
1.00318
0.998565
0.994367
0.990734
0.98787
1.02015
1.02077
1.02005
1.01859
1.01583
1.01224
1.00783
1.00317
0.998462
0.994189
0.990496
0.987588
1.02046
1.02109
1.02037
1.01888
1.01607
1.0124
1.00791
1.00315
0.998355
0.994004
0.99025
0.987299
1.02077
1.02142
1.02069
1.01917
1.01631
1.01257
1.00799
1.00313
0.998243
0.993813
0.989998
0.987002
1.02109
1.02176
1.02102
1.01948
1.01656
1.01274
1.00806
1.0031
0.998127
0.993616
0.989738
0.986697
1.02141
1.0221
1.02135
1.01978
1.01681
1.01291
1.00814
1.00308
0.998005
0.993413
0.98947
0.986384
1.02175
1.02245
1.0217
1.0201
1.01707
1.01308
1.00821
1.00305
0.997879
0.993202
0.989194
0.986062
1.02209
1.02281
1.02205
1.02042
1.01733
1.01326
1.00829
1.00301
0.997747
0.992985
0.988911
0.985732
1.02243
1.02317
1.02241
1.02075
1.0176
1.01344
1.00836
1.00298
0.99761
0.99276
0.988619
0.985392
1.02279
1.02355
1.02278
1.02109
1.01787
1.01362
1.00843
1.00294
0.997467
0.992529
0.988319
0.985044
1.02315
1.02393
1.02315
1.02143
1.01815
1.01381
1.00851
1.0029
0.997318
0.992289
0.988009
0.984685
1.02353
1.02432
1.02354
1.02179
1.01844
1.01399
1.00858
1.00285
0.997164
0.992041
0.987691
0.984318
1.02391
1.02473
1.02393
1.02215
1.01873
1.01419
1.00865
1.0028
0.997002
0.991785
0.987362
0.98394
1.0243
1.02514
1.02434
1.02252
1.01903
1.01438
1.00872
1.00275
0.996834
0.991521
0.987025
0.983553
1.02469
1.02556
1.02475
1.02289
1.01933
1.01457
1.00879
1.00269
0.996658
0.991248
0.986678
0.983154
1.0251
1.02599
1.02518
1.02328
1.01964
1.01477
1.00886
1.00262
0.996476
0.990966
0.98632
0.982745
1.02552
1.02643
1.02561
1.02368
1.01996
1.01497
1.00893
1.00256
0.996285
0.990673
0.985952
0.982325
1.02595
1.02688
1.02605
1.02408
1.02028
1.01518
1.009
1.00248
0.996087
0.990372
0.985573
0.981894
1.02638
1.02734
1.02651
1.02449
1.02061
1.01538
1.00906
1.0024
0.99588
0.99006
0.985182
0.981451
1.02683
1.02782
1.02698
1.02492
1.02094
1.01559
1.00912
1.00232
0.995665
0.989738
0.984781
0.980996
1.02729
1.0283
1.02745
1.02535
1.02129
1.0158
1.00918
1.00223
0.99544
0.989405
0.984367
0.980529
1.02776
1.0288
1.02794
1.0258
1.02164
1.01602
1.00924
1.00213
0.995207
0.989061
0.983941
0.980049
1.02824
1.02931
1.02845
1.02625
1.02199
1.01623
1.00929
1.00202
0.994963
0.988704
0.983502
0.979556
1.02873
1.02983
1.02896
1.02672
1.02236
1.01645
1.00935
1.00191
0.994709
0.988336
0.983051
0.979051
1.02924
1.03037
1.02949
1.0272
1.02273
1.01667
1.0094
1.00179
0.994444
0.987955
0.982585
0.978531
1.02976
1.03092
1.03003
1.02769
1.02311
1.0169
1.00944
1.00167
0.994168
0.987562
0.982107
0.977997
1.03029
1.03148
1.03059
1.02819
1.0235
1.01712
1.00948
1.00153
0.993879
0.987155
0.981613
0.977449
1.03083
1.03206
1.03116
1.0287
1.02389
1.01735
1.00952
1.00138
0.993579
0.986734
0.981106
0.976887
1.03139
1.03266
1.03174
1.02923
1.0243
1.01757
1.00955
1.00123
0.993266
0.986298
0.980583
0.976308
1.03196
1.03327
1.03234
1.02977
1.02471
1.0178
1.00958
1.00106
0.99294
0.985847
0.980045
0.975715
1.03255
1.03389
1.03296
1.03032
1.02513
1.01803
1.0096
1.00088
0.992599
0.985381
0.97949
0.975106
1.03315
1.03453
1.0336
1.03089
1.02555
1.01826
1.00961
1.0007
0.992243
0.984899
0.978919
0.97448
1.03376
1.03519
1.03425
1.03147
1.02599
1.01849
1.00962
1.00049
0.991872
0.9844
0.978331
0.973837
1.0344
1.03587
1.03492
1.03207
1.02643
1.01872
1.00962
1.00028
0.991486
0.983884
0.977725
0.973177
1.03505
1.03657
1.0356
1.03268
1.02689
1.01895
1.00961
1.00005
0.991082
0.983349
0.977101
0.972499
1.03572
1.03728
1.03631
1.03331
1.02735
1.01918
1.00959
0.999812
0.990661
0.982796
0.976459
0.971804
1.0364
1.03802
1.03704
1.03395
1.02782
1.01941
1.00956
0.999554
0.990221
0.982224
0.975797
0.971089
1.03711
1.03877
1.03778
1.03461
1.0283
1.01964
1.00953
0.99928
0.989762
0.981632
0.975116
0.970355
1.03783
1.03955
1.03855
1.03529
1.02878
1.01986
1.00948
0.998988
0.989283
0.981018
0.974414
0.969602
1.03858
1.04035
1.03934
1.03599
1.02928
1.02009
1.00942
0.998679
0.988783
0.980384
0.973692
0.968828
1.03934
1.04117
1.04016
1.0367
1.02978
1.0203
1.00934
0.998349
0.988261
0.979727
0.972947
0.968034
1.04013
1.04202
1.041
1.03743
1.03029
1.02052
1.00925
0.998
0.987716
0.979047
0.972181
0.967219
1.04094
1.04289
1.04186
1.03819
1.03081
1.02073
1.00914
0.997627
0.987146
0.978343
0.971391
0.966382
1.04177
1.04379
1.04275
1.03896
1.03134
1.02093
1.00902
0.997233
0.986552
0.977614
0.970578
0.965522
1.04263
1.04471
1.04367
1.03975
1.03187
1.02112
1.00888
0.996813
0.985931
0.976859
0.96974
0.96464
1.04351
1.04567
1.04461
1.04056
1.03241
1.02131
1.00872
0.996367
0.985283
0.976078
0.968877
0.963734
1.04442
1.04665
1.04559
1.0414
1.03296
1.02148
1.00853
0.995894
0.984606
0.975269
0.967989
0.962804
1.04535
1.04767
1.04659
1.04226
1.03352
1.02165
1.00833
0.995391
0.983898
0.974432
0.967074
0.96185
1.04632
1.04871
1.04763
1.04314
1.03407
1.0218
1.00809
0.994857
0.983159
0.973564
0.966132
0.960871
1.04731
1.0498
1.0487
1.04404
1.03464
1.02194
1.00783
0.994291
0.982388
0.972666
0.965162
0.959866
1.04834
1.05091
1.0498
1.04497
1.0352
1.02206
1.00754
0.99369
0.981581
0.971736
0.964163
0.958834
1.04939
1.05207
1.05095
1.04592
1.03577
1.02216
1.00722
0.993052
0.98074
0.970773
0.963134
0.957775
1.05048
1.05326
1.05213
1.04689
1.03634
1.02224
1.00686
0.992375
0.97986
0.969776
0.962075
0.956689
1.05161
1.05449
1.05334
1.04789
1.03691
1.02229
1.00647
0.991657
0.978941
0.968744
0.960985
0.955574
1.05277
1.05577
1.0546
1.04891
1.03748
1.02232
1.00604
0.990895
0.977981
0.967676
0.959863
0.954431
1.05397
1.05709
1.05591
1.04996
1.03804
1.02232
1.00556
0.990088
0.976979
0.96657
0.958708
0.953258
1.05521
1.05845
1.05725
1.05103
1.0386
1.02229
1.00503
0.989232
0.975932
0.965425
0.957518
0.952055
1.05649
1.05987
1.05865
1.05213
1.03915
1.02222
1.00446
0.988325
0.974839
0.96424
0.956295
0.950821
1.05782
1.06134
1.06009
1.05326
1.03968
1.0221
1.00383
0.987363
0.973698
0.963014
0.955036
0.949555
1.05919
1.06286
1.06159
1.0544
1.04021
1.02194
1.00314
0.986345
0.972507
0.961746
0.953741
0.948258
1.06061
1.06444
1.06314
1.05557
1.04071
1.02173
1.00239
0.985266
0.971263
0.960433
0.952408
0.946927
1.06209
1.06609
1.06474
1.05677
1.04119
1.02147
1.00157
0.984125
0.969966
0.959076
0.951038
0.945564
1.06361
1.0678
1.0664
1.05798
1.04164
1.02114
1.00068
0.982916
0.968612
0.957672
0.949629
0.944166
1.0652
1.06957
1.06812
1.05921
1.04205
1.02074
0.999711
0.981638
0.967201
0.956221
0.94818
0.942734
1.06684
1.07142
1.06991
1.06046
1.04243
1.02027
0.998661
0.980286
0.965729
0.95472
0.946691
0.941266
1.06854
1.07335
1.07175
1.06172
1.04276
1.01972
0.997523
0.978858
0.964195
0.95317
0.945161
0.939762
1.07031
1.07536
1.07367
1.063
1.04303
1.01907
0.99629
0.97735
0.962596
0.951569
0.943589
0.938222
1.07215
1.07745
1.07566
1.06427
1.04324
1.01832
0.994957
0.975757
0.960932
0.949916
0.941974
0.936645
1.07407
1.07964
1.07771
1.06555
1.04338
1.01746
0.993517
0.974077
0.959199
0.948209
0.940316
0.935031
1.07607
1.08193
1.07984
1.06682
1.04343
1.01649
0.991964
0.972306
0.957397
0.946447
0.938614
0.933378
1.07814
1.08432
1.08204
1.06808
1.04338
1.01538
0.99029
0.97044
0.955522
0.944631
0.936868
0.931686
1.08031
1.08682
1.08432
1.06932
1.04323
1.01412
0.988489
0.968477
0.953574
0.942758
0.935077
0.929955
1.08257
1.08945
1.08667
1.07052
1.04294
1.01272
0.986554
0.966411
0.951551
0.940829
0.933241
0.928184
1.08494
1.0922
1.0891
1.07167
1.04251
1.01114
0.984477
0.964242
0.949452
0.938842
0.931359
0.926374
1.08741
1.09508
1.0916
1.07277
1.04191
1.00938
0.982252
0.961964
0.947275
0.936796
0.92943
0.924523
1.09001
1.09812
1.09416
1.07378
1.04113
1.00742
0.979872
0.959577
0.94502
0.934693
0.927456
0.922633
1.09272
1.1013
1.0968
1.0747
1.04014
1.00525
0.977329
0.957077
0.942685
0.932531
0.925435
0.920701
1.09558
1.10466
1.09949
1.07549
1.03892
1.00286
0.974619
0.954464
0.940271
0.930311
0.923367
0.91873
1.09858
1.10819
1.10222
1.07613
1.03744
1.00021
0.971736
0.951734
0.937776
0.928031
0.921254
0.916718
1.10173
1.1119
1.105
1.07659
1.03566
0.997315
0.968674
0.948889
0.935203
0.925694
0.919094
0.914666
1.10507
1.11581
1.10779
1.07683
1.03357
0.994141
0.965429
0.945927
0.932549
0.9233
0.916888
0.912574
1.10859
1.11993
1.11059
1.07681
1.03112
0.990677
0.962
0.942849
0.929818
0.920848
0.914637
0.910441
1.11232
1.12426
1.11335
1.07649
1.02827
0.98691
0.958384
0.939657
0.92701
0.918341
0.912341
0.908269
1.11628
1.12882
1.11605
1.0758
1.025
0.982828
0.954581
0.936352
0.924127
0.915781
0.910001
0.906058
1.12048
1.13361
1.11866
1.0747
1.02126
0.978421
0.950594
0.932938
0.921171
0.913167
0.907618
0.903807
1.12497
1.13864
1.12111
1.07312
1.01702
0.97368
0.946426
0.929418
0.918145
0.910503
0.905193
0.901517
1.12976
1.1439
1.12335
1.07097
1.01222
0.968601
0.942084
0.925798
0.915052
0.90779
0.902727
0.899189
1.13489
1.14939
1.1253
1.06819
1.00685
0.963186
0.937577
0.922085
0.911897
0.905032
0.900221
0.896824
1.14039
1.15509
1.12688
1.06469
1.00087
0.957438
0.932915
0.918283
0.908684
0.902231
0.897677
0.894421
1.14632
1.16098
1.12799
1.06037
0.994235
0.95137
0.928113
0.914402
0.905416
0.899391
0.895098
0.891983
1.15271
1.16702
1.12851
1.05514
0.98694
0.944999
0.923187
0.910451
0.902101
0.896514
0.892483
0.889509
1.15962
1.17317
1.12829
1.04889
0.978967
0.938352
0.918157
0.906438
0.898743
0.893605
0.889836
0.887001
1.16711
1.17934
1.12718
1.04152
0.970317
0.931462
0.913043
0.902373
0.895349
0.890669
0.887158
0.88446
1.17525
1.18543
1.12498
1.03295
0.961007
0.924371
0.907869
0.898268
0.891926
0.887709
0.884452
0.881888
1.18409
1.19132
1.1215
1.02307
0.951071
0.917132
0.902659
0.894133
0.888481
0.88473
0.88172
0.879285
1.19371
1.19682
1.1165
1.01181
0.94057
0.909803
0.897439
0.889978
0.885022
0.881739
0.878966
0.876654
1.20418
1.20173
1.10973
0.999129
0.929587
0.902449
0.892232
0.885816
0.881557
0.87874
0.876192
0.873997
1.21556
1.20575
1.10092
0.985004
0.918238
0.895143
0.887062
0.881656
0.878095
0.87574
0.873403
0.871316
1.22791
1.20853
1.08978
0.969468
0.906665
0.887954
0.881949
0.877511
0.874646
0.872748
0.870605
0.868611
1.24126
1.20965
1.07604
0.952618
0.89504
0.880954
0.876911
0.873389
0.87122
0.869771
0.867807
0.865886
1.25559
1.20855
1.05942
0.934628
0.88356
0.874206
0.871962
0.869302
0.867826
0.866814
0.865007
0.863129
1.27084
1.20459
1.03969
0.915772
0.872431
0.867755
0.867109
0.865267
0.864496
0.863925
0.862255
0.860378
1.28684
1.19696
1.01671
0.896444
0.861882
0.861651
0.86235
0.861257
0.861168
0.860997
0.859433
0.857534
1.30327
1.18471
0.990474
0.877106
0.852047
0.855891
0.857774
0.857482
0.858165
0.858419
0.856881
0.854813
1.31962
1.16669
0.961318
0.858536
0.843213
0.850296
0.852881
0.853224
0.8546
0.855353
0.853889
0.851731
1.33492
1.14151
0.92967
0.840945
0.835822
0.846137
0.849558
0.850629
0.852567
0.853479
0.851645
0.849023
1.34803
1.1083
0.898528
0.824496
0.826792
0.838939
0.843258
0.845724
0.849093
0.850748
0.84881
0.845776
1.35536
1.06282
0.872218
0.818056
0.826568
0.838163
0.841349
0.843742
0.847586
0.84947
0.847268
0.843911
1.35828
0.991253
0.822358
0.793858
0.815704
0.832745
0.838409
0.842326
0.847098
0.849341
0.847207
0.843912
0.988471
0.989621
0.992509
0.99481
0.99559
0.995246
0.994739
0.994703
0.995137
0.995663
0.99596
0.995979
0.990012
0.990708
0.992942
0.994809
0.995486
0.995237
0.994828
0.994798
0.995174
0.995643
0.995923
0.995948
0.991688
0.991772
0.993179
0.994562
0.995215
0.99518
0.994938
0.994915
0.995196
0.99558
0.995842
0.995891
0.992828
0.992428
0.993224
0.994317
0.995045
0.995232
0.995121
0.995062
0.995222
0.995514
0.995761
0.995844
0.993472
0.992843
0.993328
0.994285
0.995061
0.995355
0.995282
0.995161
0.995218
0.995446
0.995692
0.995813
0.9939
0.993238
0.993578
0.99441
0.995127
0.995411
0.995333
0.995181
0.995196
0.995398
0.995651
0.995799
0.994302
0.993674
0.993898
0.994562
0.995155
0.995397
0.995334
0.995208
0.995226
0.995415
0.995658
0.995809
0.994708
0.994096
0.994192
0.994682
0.995155
0.995373
0.995353
0.99527
0.995295
0.995457
0.995669
0.995808
0.995065
0.994446
0.994427
0.994778
0.995167
0.995378
0.995396
0.995345
0.995364
0.995493
0.995672
0.995799
0.995341
0.99472
0.994623
0.99488
0.995209
0.995411
0.995449
0.995413
0.995423
0.995524
0.995678
0.995797
0.995546
0.994943
0.994803
0.994996
0.995275
0.995456
0.995497
0.995469
0.995475
0.995557
0.995692
0.995802
0.995712
0.99514
0.99498
0.995121
0.995349
0.995503
0.995542
0.995521
0.995525
0.995594
0.99571
0.995808
0.995859
0.995323
0.995147
0.995242
0.995423
0.99555
0.995585
0.995569
0.995573
0.995629
0.995727
0.995813
0.995996
0.99549
0.995301
0.995356
0.995496
0.9956
0.99563
0.995616
0.995616
0.995661
0.995743
0.99582
0.996118
0.995638
0.995439
0.995461
0.995568
0.99565
0.995672
0.995657
0.995654
0.995689
0.99576
0.99583
0.996226
0.995769
0.995563
0.99556
0.995638
0.9957
0.995713
0.995694
0.995688
0.995716
0.995779
0.995844
0.996317
0.995883
0.995675
0.995651
0.995704
0.995746
0.995749
0.995728
0.995719
0.995743
0.9958
0.995859
0.996398
0.995986
0.995776
0.995734
0.995764
0.995789
0.995783
0.99576
0.995751
0.995772
0.995822
0.995877
0.996468
0.996076
0.995865
0.995807
0.995818
0.995828
0.995816
0.995791
0.995782
0.9958
0.995845
0.995894
0.99653
0.996156
0.995944
0.995873
0.995868
0.995867
0.995849
0.995823
0.995813
0.995828
0.995868
0.995912
0.996583
0.996224
0.996012
0.995931
0.995914
0.995904
0.995882
0.995854
0.995842
0.995854
0.995889
0.995928
0.996627
0.996283
0.996073
0.995984
0.995958
0.99594
0.995915
0.995885
0.995871
0.995879
0.99591
0.995945
0.996664
0.996333
0.996127
0.996033
0.995999
0.995975
0.995946
0.995914
0.995897
0.995902
0.995928
0.99596
0.996696
0.996379
0.996177
0.99608
0.996039
0.996009
0.995976
0.995941
0.995922
0.995923
0.995947
0.995975
0.996723
0.99642
0.996222
0.996122
0.996075
0.99604
0.996003
0.995966
0.995944
0.995943
0.995963
0.995989
0.99675
0.996459
0.996264
0.996161
0.996109
0.99607
0.996028
0.995989
0.995966
0.995962
0.99598
0.996004
0.996772
0.996493
0.996301
0.996196
0.99614
0.996095
0.996051
0.99601
0.995985
0.99598
0.995996
0.996018
0.996794
0.996524
0.996335
0.996228
0.996167
0.996119
0.996073
0.99603
0.996004
0.995997
0.996011
0.996031
0.996812
0.996551
0.996365
0.996255
0.996191
0.99614
0.996092
0.996048
0.996021
0.996013
0.996025
0.996044
0.996829
0.996575
0.996392
0.99628
0.996213
0.99616
0.99611
0.996065
0.996037
0.996028
0.996039
0.996056
0.996841
0.996596
0.996414
0.996302
0.996232
0.996177
0.996126
0.996081
0.996052
0.996041
0.99605
0.996066
0.996853
0.996614
0.996434
0.996321
0.99625
0.996193
0.996141
0.996095
0.996065
0.996053
0.996061
0.996075
0.996861
0.996628
0.996451
0.996337
0.996265
0.996207
0.996154
0.996107
0.996077
0.996063
0.99607
0.996082
0.996868
0.996641
0.996466
0.996352
0.996278
0.99622
0.996166
0.996119
0.996087
0.996072
0.996077
0.996089
0.996873
0.996651
0.996478
0.996363
0.996289
0.99623
0.996176
0.996127
0.996094
0.996079
0.996083
0.996095
0.996877
0.99666
0.996489
0.996374
0.996299
0.996238
0.996184
0.996135
0.996101
0.996085
0.996089
0.9961
0.996879
0.996666
0.996497
0.996382
0.996306
0.996244
0.996189
0.996139
0.996105
0.996089
0.996093
0.996104
0.99688
0.996672
0.996504
0.996388
0.996311
0.996249
0.996193
0.996143
0.996109
0.996092
0.996096
0.996108
0.996879
0.996675
0.996508
0.996391
0.996313
0.996251
0.996195
0.996145
0.996111
0.996095
0.996099
0.996111
0.996878
0.996677
0.99651
0.996393
0.996314
0.996251
0.996195
0.996146
0.996112
0.996096
0.996101
0.996114
0.996874
0.996675
0.99651
0.996392
0.996313
0.996249
0.996194
0.996145
0.996113
0.996097
0.996103
0.996115
0.99687
0.996673
0.996508
0.99639
0.99631
0.996247
0.996192
0.996144
0.996112
0.996097
0.996103
0.996117
0.996862
0.996668
0.996503
0.996385
0.996305
0.996243
0.996189
0.996142
0.99611
0.996096
0.996103
0.996117