/*--------------------------------*- C++ -*----------------------------------*\
  =========                 |
  \\      /  F ield         | OpenFOAM: The Open Source CFD Toolbox
   \\    /   O peration     | Website:  https://openfoam.org
    \\  /    A nd           | Version:  6.0
     \\/     M anipulation  |
\*---------------------------------------------------------------------------*/
FoamFile
{
    version     2.0;
    format      ascii;
    class       surfaceScalarField;
    location    "3";
    object      phi;
}
// * * * * * * * * * * * * * * * * * * * * * * * * * * * * * * * * * * * * * //

dimensions      [0 3 -1 0 0 0 0];

internalField   nonuniform List<scalar> 
93586
(
2.28664e-05
0.0015472
3.2898e-08
4.61625e-05
0.00154264
6.97496e-05
0.00153395
9.34743e-05
0.00152105
0.000117201
0.00150386
0.00014078
0.00148233
0.000164089
0.00145653
0.000186991
0.00142658
0.000209395
0.00139265
0.000231197
0.00135492
0.000252337
0.00131355
0.000272743
0.00126872
0.000292375
0.00122054
0.000311175
0.00116914
0.000329107
0.00111466
0.000346119
0.0010572
0.000362174
0.000996905
0.000377224
0.000933915
0.000391233
0.000868373
0.000404159
0.000800455
0.00041597
0.000730323
0.000426628
0.000658168
0.000436106
0.000584173
0.000444376
0.000508542
0.000451413
0.000431468
0.000457197
0.000353161
0.000461706
0.000273824
0.000464926
0.000193644
0.000466568
0.00011291
2.99649e-05
0.000465954
2.26555e-05
0.00152447
7.1324e-08
4.57601e-05
0.00151953
6.91233e-05
0.00151058
9.25839e-05
0.00149757
0.000116005
0.00148041
0.000139241
0.00145906
0.000162179
0.00143356
0.000184691
0.00140402
0.000206698
0.0013706
0.000228104
0.00133345
0.000248857
0.00129275
0.000268889
0.00124862
0.000288163
0.0012012
0.000306623
0.00115062
0.000324236
0.00109698
0.000340946
0.00104043
0.000356721
0.000981071
0.000371509
0.000919063
0.000385279
0.000854546
0.000397984
0.000787688
0.000409596
0.000718654
0.000420074
0.000647629
0.000429394
0.000574795
0.000437525
0.000500349
0.000444445
0.000424485
0.00045013
0.000347408
0.000454561
0.000269319
0.000457707
0.000190417
0.000459403
0.000111122
2.98206e-05
0.000459403
2.24393e-05
0.00150194
8.74393e-08
4.53199e-05
0.00149665
6.84245e-05
0.00148747
9.15878e-05
0.0014744
0.000114675
0.00145732
0.000137548
0.00143618
0.000160105
0.00141099
0.00018223
0.00138188
0.00020385
0.00134897
0.000224878
0.00131241
0.000245264
0.00127235
0.000264946
0.00122893
0.000283886
0.00118226
0.000302029
0.00113247
0.000319342
0.00107967
0.00033577
0.00102399
0.000351281
0.000965564
0.000365823
0.000904521
0.000379365
0.000841011
0.00039186
0.000775197
0.00040328
0.000707244
0.000413587
0.000637332
0.000422754
0.000565642
0.000430751
0.000492366
0.000437558
0.000417698
0.000443148
0.000341838
0.000447503
0.000264991
0.000450585
0.000187367
0.000452308
0.000109436
2.95951e-05
0.000452633
2.21818e-05
0.00147966
9.80955e-08
4.47964e-05
0.00147403
6.76098e-05
0.00146465
9.04554e-05
0.00145155
0.000113201
0.00143456
0.000135715
0.00141364
0.000157904
0.00138878
0.000179658
0.0013601
0.000200912
0.00132769
0.000221584
0.00129171
0.000241627
0.00125228
0.000260978
0.00120954
0.000279603
0.0011636
0.000297445
0.00111459
0.000314473
0.00106261
0.000330631
0.0010078
0.000345889
0.000950273
0.000360194
0.000890177
0.000373516
0.000827654
0.000385809
0.000762865
0.000397045
0.000695972
0.000407185
0.000627152
0.000416204
0.000556584
0.000424072
0.000484456
0.000430767
0.000410959
0.000436265
0.000336292
0.000440545
0.000260659
0.000443573
0.000184281
0.000445305
0.000107639
2.90445e-05
0.000445755
2.19048e-05
0.00145765
1.05284e-07
4.42326e-05
0.0014517
6.6739e-05
0.00144215
8.92577e-05
0.00142903
0.000111659
0.00141216
0.000133818
0.00139148
0.000155646
0.00136696
0.000177042
0.0013387
0.000197944
0.00130679
0.000218274
0.00127138
0.000237986
0.00123258
0.00025702
0.00119051
0.000275342
0.00114529
0.000292895
0.00109704
0.000309648
0.00104587
0.000325547
0.000991906
0.00034056
0.000935274
0.000354635
0.000876111
0.000367744
0.000814562
0.00037984
0.000750783
0.000390897
0.000684935
0.000400874
0.000617191
0.000409749
0.00054773
0.00041749
0.000476736
0.000424078
0.000404398
0.000429486
0.000330912
0.000433695
0.000256484
0.000436675
0.000181341
0.000438404
0.000105958
2.86401e-05
0.000438913
2.16132e-05
0.00143592
1.13119e-07
4.36394e-05
0.00142967
6.58282e-05
0.00141995
8.80145e-05
0.00140683
0.000110072
0.0013901
0.00013188
0.00136966
0.000153356
0.00134547
0.000174404
0.00131764
0.000194966
0.00128621
0.000214965
0.00125136
0.000234359
0.00121317
0.000253087
0.00117176
0.000271116
0.00112724
0.000288389
0.00107974
0.000304876
0.00102936
0.000320522
0.000976232
0.000335297
0.000920475
0.00034915
0.000862229
0.000362051
0.000801635
0.000373956
0.000738847
0.000384837
0.000674026
0.000394656
0.00060734
0.00040339
0.000538965
0.000411008
0.000469083
0.00041749
0.00039788
0.000422811
0.00032555
0.000426952
0.000252299
0.000429888
0.000178357
0.000431609
0.000104184
2.80297e-05
0.000432138
2.13115e-05
0.00141449
1.12984e-07
4.30259e-05
0.00140796
6.48904e-05
0.00139809
8.6742e-05
0.00138498
0.000108457
0.00136839
0.00012992
0.00134819
0.000151052
0.00132434
0.00017176
0.00129693
0.000191992
0.00126599
0.000211671
0.00123168
0.000230756
0.00119409
0.000249188
0.00115333
0.000266932
0.00110951
0.000283934
0.00106274
0.000300162
0.00101315
0.000315562
0.000960841
0.000330105
0.000905949
0.00034374
0.000848606
0.000356439
0.000788955
0.000368156
0.000727146
0.000378867
0.000663337
0.000388531
0.000597694
0.000397128
0.000530392
0.000404625
0.000461609
0.000411004
0.000391528
0.00041624
0.000320343
0.000420315
0.000248259
0.000423209
0.000175505
0.000424914
0.000102526
2.75899e-05
0.000425454
2.10035e-05
0.00139338
1.08518e-07
4.23997e-05
0.00138656
6.39365e-05
0.00137655
8.54531e-05
0.00136345
0.000106828
0.001347
0.000127951
0.00132706
0.000148746
0.00130354
0.000169124
0.00127653
0.000189033
0.00124607
0.000208401
0.0012123
0.000227186
0.00117529
0.000245329
0.00113517
0.000262796
0.00109203
0.000279533
0.00104598
0.000295509
0.000997155
0.000310669
0.000945657
0.000324986
0.000891613
0.000338408
0.000835159
0.000350909
0.000776433
0.000362443
0.000715585
0.000372986
0.00065277
0.000382499
0.000588152
0.000390961
0.000521903
0.00039834
0.000454198
0.000404618
0.000385218
0.000409772
0.000315154
0.000413782
0.000244209
0.000416635
0.00017261
0.000418324
0.000100789
2.69825e-05
0.00041886
2.06917e-05
0.00137258
1.05848e-07
4.17666e-05
0.00136548
6.29748e-05
0.00135534
8.41578e-05
0.00134227
0.000105197
0.00132597
0.000125985
0.00130627
0.00014645
0.00128308
0.000166505
0.00125648
0.0001861
0.00122648
0.000205163
0.00119323
0.000223655
0.00115681
0.000241516
0.00111731
0.000258713
0.00107484
0.00027519
0.00102951
0.000290919
0.000981442
0.000305845
0.000930741
0.00031994
0.000877535
0.000333154
0.000821957
0.00034546
0.000764145
0.000356815
0.000704245
0.000367194
0.000642413
0.000376558
0.000578805
0.000384888
0.000513597
0.000392152
0.000446957
0.000398332
0.000379065
0.000403404
0.00031011
0.000407352
0.000240294
0.000410163
0.000169841
0.000411831
9.91676e-05
2.65411e-05
0.000412366
2.03785e-05
0.0013521
1.03476e-07
4.11314e-05
0.00134473
6.20117e-05
0.00133446
8.28637e-05
0.00132141
0.000103571
0.00130525
0.000124031
0.0012858
0.000144171
0.00126293
0.00016391
0.00123673
0.000183196
0.00120719
0.000201963
0.00117445
0.000220167
0.0011386
0.000237753
0.00109971
0.000254684
0.0010579
0.000270908
0.00101327
0.000286394
0.000965941
0.000301091
0.000916024
0.000314968
0.000863641
0.000327978
0.000808925
0.000340094
0.00075201
0.000351273
0.000693043
0.00036149
0.000632174
0.000370709
0.00056956
0.000378909
0.000505372
0.000386059
0.000439777
0.000392143
0.000372953
0.000397136
0.000305084
0.000401023
0.00023637
0.000403793
0.000167032
0.000405441
9.74763e-05
2.59514e-05
0.000405966
2.00655e-05
0.00133193
1.0117e-07
4.04973e-05
0.0013243
6.10519e-05
0.00131391
8.15763e-05
0.00130089
0.000101957
0.00128488
0.000122093
0.00126566
0.000141915
0.00124311
0.000161343
0.0012173
0.000180328
0.00118821
0.000198803
0.00115598
0.000216726
0.00112068
0.000234041
0.0010824
0.000250712
0.00104124
0.000266687
0.000997304
0.000281936
0.000950707
0.000296406
0.000901563
0.00031007
0.000849994
0.000322879
0.000796127
0.000334809
0.000740099
0.000345815
0.000682052
0.000355874
0.000622135
0.00036495
0.000560502
0.000373022
0.000497323
0.000380061
0.00043276
0.00038605
0.000366991
0.000390965
0.000300197
0.000394793
0.000232575
0.000397522
0.000164343
0.000399146
9.58959e-05
2.55178e-05
0.000399667
1.97543e-05
0.00131208
9.82545e-08
3.98671e-05
0.00130418
6.00989e-05
0.00129367
8.02998e-05
0.00128068
0.000100358
0.00126481
0.000120176
0.00124584
0.000139685
0.0012236
0.000158809
0.00119817
0.000177498
0.00116951
0.000195687
0.00113778
0.000213333
0.00110303
0.000230382
0.00106534
0.000246798
0.00102481
0.000262528
0.000981556
0.000277543
0.00093568
0.000291792
0.000887296
0.000305246
0.000836525
0.000317859
0.000783494
0.000329604
0.000728337
0.00034044
0.000671194
0.000350344
0.000612212
0.00035928
0.000551543
0.000367227
0.000489353
0.000374157
0.000425804
0.000380052
0.000361068
0.000384891
0.000295326
0.00038866
0.000228772
0.000391349
0.000161619
0.000392951
9.42529e-05
2.49484e-05
0.000393462
1.94455e-05
0.00129254
9.63207e-08
3.92424e-05
0.00128439
5.91553e-05
0.00127376
7.9037e-05
0.0012608
9.87777e-05
0.00124508
0.000118283
0.00122633
0.000137485
0.0012044
0.00015631
0.00117935
0.000174708
0.00115112
0.000192615
0.00111988
0.00020999
0.00108566
0.000226777
0.00104856
0.000242942
0.00100866
0.000258432
0.000966074
0.000273217
0.000920909
0.000287248
0.000873276
0.000300495
0.000823294
0.000312914
0.000771088
0.000324479
0.00071679
0.000335149
0.000660539
0.000344899
0.00060248
0.000353697
0.000542763
0.000361521
0.000481551
0.000368343
0.000419003
0.000374147
0.00035529
0.000378912
0.000290589
0.000382623
0.000225092
0.000385271
0.000159009
0.00038685
9.27163e-05
2.45253e-05
0.000387355
1.91401e-05
0.0012733
9.43209e-08
3.86246e-05
0.0012649
5.82227e-05
0.00125416
7.77899e-05
0.00124123
9.72183e-05
0.00122564
0.000116416
0.00120713
0.000135316
0.00118549
0.000153847
0.0011608
0.000171959
0.001133
0.00018959
0.00110224
0.000206697
0.00106855
0.000223227
0.00103201
0.000239144
0.000992732
0.000254398
0.000950806
0.000268957
0.000906339
0.000282773
0.000859443
0.000295818
0.000810236
0.000308046
0.00075884
0.000319433
0.000705387
0.000329938
0.000650014
0.000339539
0.000592862
0.000348201
0.000534078
0.000355904
0.000473826
0.000362621
0.000412261
0.000368334
0.00034955
0.000373026
0.00028587
0.00037668
0.000221406
0.000379289
0.000156367
0.000380845
9.11221e-05
2.39759e-05
0.000381339
1.88384e-05
0.00125437
9.22632e-08
3.80147e-05
0.00124573
5.73025e-05
0.00123487
7.65598e-05
0.00122198
9.56809e-05
0.00120653
0.000114576
0.00118824
0.000133179
0.00116689
0.000151421
0.00114257
0.000169252
0.00111518
0.00018661
0.00108488
0.000203454
0.00105171
0.000219731
0.00101574
0.000235404
0.00097707
0.000250425
0.000935793
0.000264762
0.000892016
0.000278367
0.000845848
0.000291212
0.000797406
0.000303253
0.000746811
0.000314465
0.000694193
0.000324809
0.000639685
0.000334261
0.000583428
0.000342789
0.000525567
0.000350374
0.000466263
0.000356987
0.000405669
0.000362612
0.00034395
0.000367231
0.000281278
0.000370829
0.000217838
0.000373399
0.000153835
0.000374931
8.96296e-05
2.35639e-05
0.00037542
1.85409e-05
0.00123574
9.01418e-08
3.74133e-05
0.00122685
5.63953e-05
0.00121589
7.53476e-05
0.00120302
9.41664e-05
0.0011877
0.000112763
0.00116963
0.000131075
0.00114858
0.000149032
0.0011246
0.000166586
0.00109762
0.000183676
0.00106778
0.000200262
0.00103512
0.000216289
0.000999704
0.000231723
0.000961628
0.000246514
0.000920988
0.000260631
0.000877888
0.000274028
0.000832436
0.000286677
0.000784745
0.000298533
0.000734937
0.000309574
0.000683138
0.000319758
0.000629481
0.000329066
0.000574104
0.000337462
0.00051715
0.00034493
0.000458776
0.00035144
0.000399134
0.000356979
0.000338387
0.000361527
0.000276703
0.00036507
0.000214265
0.000367601
0.000151273
0.000369111
8.80836e-05
2.30333e-05
0.00036959
1.82476e-05
0.00121741
8.79149e-08
3.68207e-05
0.00120828
5.55016e-05
0.00119721
7.41538e-05
0.00118437
9.26752e-05
0.00116919
0.000110979
0.00115133
0.000129004
0.00113056
0.000146681
0.00110693
0.000163962
0.00108034
0.000180789
0.00105096
0.000197119
0.0010188
0.0002129
0.000983929
0.000228098
0.000946442
0.000242663
0.000906432
0.000256565
0.000864
0.000269757
0.000819254
0.000282212
0.000772306
0.000293887
0.000723274
0.000304758
0.000672284
0.000314786
0.000619467
0.00032395
0.000564959
0.000332218
0.000508899
0.00033957
0.000451445
0.00034598
0.000392744
0.000351434
0.000332957
0.000355912
0.000272251
0.0003594
0.000210805
0.000361893
0.000148817
0.00036338
8.66347e-05
2.26324e-05
0.000363854
1.79589e-05
0.00119936
8.56274e-08
3.62372e-05
0.00119
5.46218e-05
0.00117882
7.29787e-05
0.00116601
9.12074e-05
0.00115095
0.000109224
0.00113331
0.000126966
0.00111281
0.000144367
0.00108952
0.00016138
0.00106332
0.000177947
0.00103439
0.000194025
0.00100271
0.000209565
0.000968379
0.00022453
0.000931469
0.000238872
0.000892077
0.000252561
0.000850302
0.000265552
0.000806249
0.000277816
0.00076003
0.000289312
0.000711762
0.000300017
0.000661567
0.000309891
0.000609575
0.000318914
0.00055592
0.000327055
0.000500739
0.000334294
0.000444187
0.000340605
0.00038641
0.000345975
0.000327565
0.000350384
0.000267817
0.000353819
0.000207341
0.000356275
0.000146333
0.000357739
8.51356e-05
2.21197e-05
0.000358204
1.76747e-05
0.00118161
8.32535e-08
3.56628e-05
0.00117202
5.37558e-05
0.00116074
7.18222e-05
0.00114795
8.97631e-05
0.00113302
0.000107496
0.00111558
0.00012496
0.00109535
0.00014209
0.0010724
0.000158839
0.00104658
0.00017515
0.00101808
0.000190981
0.000986894
0.000206282
0.000953086
0.000221018
0.000916745
0.00023514
0.000877962
0.00024862
0.000836836
0.000261412
0.000793468
0.000273489
0.000747969
0.000284809
0.000700453
0.000295349
0.000651044
0.000305072
0.000599866
0.000313957
0.000547053
0.000321972
0.00049274
0.000329099
0.00043708
0.000335314
0.000380215
0.000340601
0.000322302
0.000344942
0.000263501
0.000348325
0.000203986
0.000350743
0.00014395
0.000352185
8.37293e-05
2.17296e-05
0.000352644
1.73951e-05
0.00116413
8.08553e-08
3.50976e-05
0.00115431
5.29038e-05
0.00114293
7.06844e-05
0.00113016
8.83422e-05
0.00111536
0.000105796
0.00109812
0.000122987
0.00107816
0.000139849
0.00105553
0.000156339
0.00103009
0.000172397
0.00100202
0.000187985
0.0009713
0.000203051
0.00093801
0.00021756
0.000902228
0.000231467
0.000864044
0.000244741
0.000823553
0.000257337
0.000780858
0.000269229
0.000736066
0.000280375
0.000689291
0.000290754
0.000640653
0.000300328
0.000590276
0.000309076
0.00053829
0.000316968
0.000484829
0.000323986
0.000430044
0.000330105
0.000374075
0.000335311
0.000317074
0.000339586
0.000259202
0.000342917
0.000200628
0.000345298
0.000141541
0.000346719
8.22757e-05
2.12337e-05
0.000347169
1.712e-05
0.00114693
7.84042e-08
3.45416e-05
0.0011369
5.20656e-05
0.00112541
6.9565e-05
0.00111267
8.69443e-05
0.00109798
0.000104124
0.00108095
0.000121045
0.00106124
0.000137645
0.00103893
0.000153878
0.00101386
0.000169689
0.000986212
0.000185036
0.000955964
0.00019987
0.000923183
0.000214157
0.000887952
0.000227851
0.000850359
0.000240922
0.000810496
0.000253325
0.000768465
0.000265035
0.000724371
0.000276011
0.000678327
0.00028623
0.000630449
0.000295657
0.000580862
0.000304271
0.000529694
0.000312042
0.000477074
0.000318952
0.000423153
0.000324977
0.000368069
0.000330103
0.000311971
0.000334312
0.000255017
0.000337593
0.000197374
0.000339938
0.00013923
0.000341337
8.0911e-05
2.08542e-05
0.000341782
1.68494e-05
0.00113001
7.59663e-08
3.39947e-05
0.00111975
5.12411e-05
0.00110816
6.8464e-05
0.00109544
8.55692e-05
0.00108087
0.000102479
0.00106403
0.000119135
0.00104458
0.000135476
0.00102258
0.000151458
0.000997878
0.000167023
0.000970639
0.000182134
0.000940847
0.00019674
0.000908567
0.000210808
0.000873877
0.000224292
0.000836864
0.000237162
0.000797618
0.000249376
0.000756239
0.000260906
0.000712831
0.000271714
0.000667504
0.000281777
0.000620375
0.00029106
0.000571564
0.000299541
0.000521198
0.000307193
0.000469405
0.000313997
0.000416332
0.00031993
0.000362116
0.000324977
0.000306904
0.000329121
0.00025085
0.000332352
0.000194118
0.000334661
0.000136895
0.00033604
7.95014e-05
2.03741e-05
0.000336476
1.65832e-05
0.00111335
7.35065e-08
3.34567e-05
0.00110288
5.04301e-05
0.00109119
6.73809e-05
0.0010785
8.42166e-05
0.00106404
0.000100861
0.00104739
0.000117257
0.00102819
0.000133343
0.0010065
0.000149076
0.000982154
0.000164401
0.000955321
0.000179278
0.00092598
0.00019366
0.000894193
0.000207512
0.000860037
0.000220789
0.000823595
0.000233462
0.000784958
0.000245488
0.000744222
0.000256842
0.000701491
0.000267484
0.000656873
0.000277393
0.000610482
0.000286533
0.000562437
0.000294885
0.000512863
0.000302419
0.000461886
0.000309119
0.000409652
0.00031496
0.000356293
0.00031993
0.000301956
0.000324011
0.000246792
0.000327192
0.000190963
0.000329467
0.000134653
0.000330824
7.81769e-05
2.00047e-05
0.000331256
1.63214e-05
0.00109696
7.10898e-08
3.29276e-05
0.00108627
4.96324e-05
0.00107448
6.63156e-05
0.00106181
8.28861e-05
0.00104747
9.9269e-05
0.001031
0.000115408
0.00101205
0.000131244
0.000990661
0.000146732
0.00096666
0.00016182
0.000940226
0.000176468
0.000911327
0.000190628
0.000880024
0.000204267
0.000846392
0.00021734
0.000810511
0.000229819
0.000772472
0.000241661
0.000732368
0.000252841
0.000690302
0.000263321
0.00064638
0.000273078
0.000600714
0.000282078
0.000553422
0.000290301
0.000504626
0.00029772
0.00045445
0.000304317
0.000403039
0.000310069
0.000350522
0.000314962
0.000297043
0.000318981
0.000242751
0.000322113
0.000187806
0.000324354
0.000132388
0.000325691
7.681e-05
1.95398e-05
0.000326114
1.60639e-05
0.00108083
6.86729e-08
3.24071e-05
0.00106994
4.88477e-05
0.00105805
6.52677e-05
0.0010454
8.15774e-05
0.00103117
9.77032e-05
0.00101488
0.00011359
0.000996169
0.000129178
0.000975078
0.000144426
0.000951421
0.00015928
0.000925379
0.000173702
0.000896916
0.000187644
0.00086609
0.000201073
0.000832974
0.000213946
0.000797647
0.000226234
0.000760197
0.000237894
0.000720718
0.000248903
0.000679307
0.000259222
0.000636072
0.000268829
0.000591122
0.000277691
0.000544573
0.000285789
0.000496545
0.000293094
0.00044716
0.00029959
0.000396562
0.000305253
0.000344876
0.000310072
0.000292246
0.000314029
0.000238816
0.000317114
0.000184747
0.00031932
0.000130213
0.000320637
7.55246e-05
1.91803e-05
0.000321056
1.58107e-05
0.00106495
6.63189e-08
3.18952e-05
0.00105385
4.8076e-05
0.00104186
6.4237e-05
0.00102923
8.029e-05
0.00101511
9.61628e-05
0.000999006
0.000111801
0.000980526
0.000127147
0.000959726
0.000142157
0.000936406
0.000156781
0.000910748
0.00017098
0.000882712
0.000184707
0.000852354
0.00019793
0.000819745
0.000210605
0.000784962
0.000222704
0.000748091
0.000234186
0.000709224
0.000245026
0.000668459
0.000255187
0.000625898
0.000264647
0.000581651
0.000273374
0.000535832
0.000281347
0.000488559
0.00028854
0.000439951
0.000294936
0.00039015
0.000300513
0.000339281
0.000305258
0.000287482
0.000309155
0.000234899
0.000312193
0.000181685
0.000314365
0.000128018
0.000315663
7.41989e-05
1.87299e-05
0.000316074
1.55616e-05
0.00104933
6.39784e-08
3.13917e-05
0.00103803
4.73169e-05
0.00102594
6.32232e-05
0.00101333
7.90236e-05
0.000999314
9.46475e-05
0.000983388
0.000110041
0.00096514
0.000125147
0.000944626
0.000139925
0.000921637
0.000154322
0.000896358
0.000168301
0.000868744
0.000181817
0.000838847
0.000194837
0.000806737
0.000207317
0.00077249
0.00021923
0.000736191
0.000230536
0.000697928
0.00024121
0.000657799
0.000251215
0.000615904
0.00026053
0.000572351
0.000269123
0.000527252
0.000276974
0.000480724
0.000284057
0.000432883
0.000290355
0.00038387
0.000295847
0.000333807
0.000300519
0.00028283
0.000304357
0.000231083
0.000307348
0.000178718
0.000309488
0.000125908
0.000310765
7.29513e-05
1.83798e-05
0.000311172
1.53166e-05
0.00103395
6.17131e-08
3.08965e-05
0.00102244
4.65702e-05
0.00101027
6.22259e-05
0.000997671
7.77779e-05
0.000983758
9.31567e-05
0.000968004
0.000108309
0.000949983
0.00012318
0.00092975
0.000137728
0.000907085
0.000151902
0.000882177
0.000165665
0.000854976
0.000178973
0.000825532
0.000191792
0.000793912
0.00020408
0.000760192
0.000215811
0.000724453
0.000226943
0.000686785
0.000237453
0.00064728
0.000247305
0.00060604
0.000256478
0.000563169
0.000264939
0.000518778
0.00027267
0.000472981
0.000279644
0.000425893
0.000285846
0.000377653
0.000291254
0.000328381
0.000295854
0.000278212
0.000299633
0.000227285
0.000302579
0.00017575
0.000304687
0.000123779
0.000305945
7.16654e-05
1.79433e-05
0.000306344
1.50756e-05
0.00101882
5.94672e-08
3.04093e-05
0.00100712
4.58358e-05
0.000994847
6.12448e-05
0.000982268
7.65523e-05
0.000968457
9.16901e-05
0.000952872
0.000106606
0.000935075
0.000121245
0.000915117
0.000135566
0.000892772
0.000149521
0.00086823
0.000163071
0.000841436
0.000176173
0.000812438
0.000188795
0.000781302
0.000200895
0.000748101
0.000212445
0.000712916
0.000223407
0.000675833
0.000233756
0.000636945
0.000243457
0.00059635
0.000252489
0.000554151
0.00026082
0.000510459
0.000268433
0.000465383
0.0002753
0.000419039
0.000281407
0.000371564
0.000286732
0.000323073
0.000291262
0.000273701
0.000294984
0.000223584
0.000297885
0.000172872
0.00029996
0.000121732
0.0003012
7.04545e-05
1.76025e-05
0.000301594
1.48386e-05
0.00100392
5.73022e-08
2.99301e-05
0.000992024
4.51133e-05
0.00097966
6.02798e-05
0.000967098
7.53467e-05
0.000953386
9.02473e-05
0.000937967
0.00010493
0.000920388
0.000119341
0.000900701
0.000133439
0.000878669
0.000147178
0.000854485
0.000160518
0.00082809
0.000173418
0.00079953
0.000185845
0.000768869
0.000197759
0.000736178
0.000209132
0.000701536
0.000219925
0.000665029
0.000230116
0.000626746
0.000239668
0.000586786
0.000248562
0.000545248
0.000256765
0.000502242
0.000264262
0.000457876
0.000271024
0.000412262
0.000277038
0.000365536
0.000282281
0.000317813
0.000286742
0.000269222
0.000290407
0.000219901
0.000293264
0.000169993
0.000295308
0.000119667
0.000296529
6.92071e-05
1.71794e-05
0.000296917
1.46054e-05
0.000989269
5.51584e-08
2.94587e-05
0.000977178
4.44025e-05
0.000964723
5.93304e-05
0.000952177
7.41606e-05
0.000938563
8.88277e-05
0.000923307
0.000103281
0.000905943
0.000117467
0.000886522
0.000131346
0.000864798
0.000144872
0.000840968
0.000158006
0.000814967
0.000170707
0.000786838
0.000182942
0.000756645
0.000194673
0.000724457
0.000205871
0.000690351
0.000216499
0.000654411
0.000226533
0.000616725
0.000235939
0.00057739
0.000244696
0.000536505
0.000252774
0.000494175
0.000260156
0.000450509
0.000266815
0.000405617
0.000272736
0.000359631
0.0002779
0.000312666
0.000282293
0.000264848
0.000285902
0.000216312
0.000288715
0.000167202
0.000290728
0.000117682
0.000291931
6.80318e-05
1.68475e-05
0.000292314
1.4376e-05
0.000974838
5.30975e-08
2.8995e-05
0.000962556
4.37033e-05
0.000950011
5.83964e-05
0.000937481
7.29937e-05
0.000923961
8.7431e-05
0.000908865
0.000101658
0.000891711
0.000115623
0.000872551
0.000129287
0.00085113
0.000142602
0.000827647
0.000155533
0.000802031
0.000168038
0.000774326
0.000180085
0.000744592
0.000191635
0.000712898
0.000202661
0.000679318
0.000213126
0.000643936
0.000223006
0.000606838
0.000232268
0.000568117
0.000240891
0.000527873
0.000248846
0.000486208
0.000256114
0.00044323
0.000262671
0.000399046
0.000268502
0.000353787
0.000273587
0.000307565
0.000277913
0.000260506
0.000281467
0.000212741
0.000284238
0.000164411
0.000286221
0.000115679
0.000287405
6.68217e-05
1.64372e-05
0.000287782
1.41503e-05
0.000960642
5.10558e-08
2.85388e-05
0.000948175
4.30154e-05
0.000935541
5.74774e-05
0.000923026
7.18457e-05
0.0009096
8.60568e-05
0.000894661
0.000100061
0.000877714
0.000113809
0.000858811
0.00012726
0.000837688
0.000140369
0.000814546
0.0001531
0.000789311
0.000165411
0.000762023
0.000177273
0.000732742
0.000188645
0.000701535
0.000199502
0.000668474
0.000209806
0.000633641
0.000219534
0.000597122
0.000228654
0.000559008
0.000237145
0.000519396
0.000244978
0.000478387
0.000252136
0.000436087
0.000258592
0.000392602
0.000264334
0.000348061
0.000269341
0.000302574
0.000273602
0.000256264
0.000277101
0.00020926
0.00027983
0.000161703
0.000281783
0.000113753
0.00028295
6.56808e-05
1.61142e-05
0.000283322
1.39283e-05
0.000946663
4.90956e-08
2.809e-05
0.000934011
4.23387e-05
0.000921289
5.65734e-05
0.000908788
7.07161e-05
0.000895453
8.47047e-05
0.000880668
9.84905e-05
0.000863924
0.000112024
0.000845273
0.000125266
0.000824442
0.000138171
0.000801634
0.000150705
0.000776772
0.000162826
0.000749895
0.000174505
0.000721058
0.000185702
0.000690329
0.000196392
0.000657778
0.000206538
0.000623486
0.000216117
0.000587535
0.000225097
0.000550017
0.000233459
0.000511026
0.000241171
0.000470662
0.000248219
0.000429029
0.000254578
0.00038623
0.000260232
0.000342394
0.000265162
0.000297628
0.000269358
0.000252053
0.000272804
0.000205797
0.000275492
0.000158996
0.000277415
0.00011181
0.000278565
6.45068e-05
1.57162e-05
0.00027893
1.37099e-05
0.000932912
4.71514e-08
2.76485e-05
0.00092008
4.16729e-05
0.000907272
5.56839e-05
0.000894784
6.96047e-05
0.00088154
8.33743e-05
0.000866905
9.69447e-05
0.000850362
0.000110267
0.000831958
0.000123303
0.000811415
0.000136008
0.000788937
0.000148348
0.000764443
0.000160282
0.000737969
0.000171781
0.000709571
0.000182806
0.000679313
0.000193331
0.000647265
0.000203321
0.000613505
0.000212754
0.000578115
0.000221596
0.000541185
0.000229829
0.000502806
0.000237424
0.000463079
0.000244364
0.000422103
0.000250625
0.000379982
0.000256193
0.000336842
0.000261049
0.000292788
0.00026518
0.000247939
0.000268574
0.000202421
0.000271221
0.00015637
0.000273116
0.000109941
0.000274248
6.33993e-05
1.54016e-05
0.000274609
1.3495e-05
0.000919369
4.52862e-08
2.72141e-05
0.000906358
4.10178e-05
0.000893465
5.48087e-05
0.00088099
6.85112e-05
0.000867833
8.20653e-05
0.000853347
9.54236e-05
0.000836999
0.000108538
0.000818838
0.000121372
0.000798578
0.00013388
0.000776424
0.000146028
0.00075229
0.000157778
0.000726213
0.000169099
0.000698245
0.000179955
0.00066845
0.000190318
0.000636896
0.000200155
0.000603659
0.000209443
0.00056882
0.00021815
0.000532467
0.000226257
0.000494691
0.000233736
0.000455588
0.00024057
0.000415259
0.000246735
0.000373803
0.000252218
0.000331347
0.000257
0.000287991
0.000261068
0.000243855
0.000264411
0.000199062
0.000267017
0.000153744
0.000268884
0.000108057
0.00027
6.22602e-05
1.50156e-05
0.000270354
1.32835e-05
0.000906048
4.34322e-08
2.67866e-05
0.000892863
4.03733e-05
0.000879885
5.39476e-05
0.000867423
6.74352e-05
0.000854353
8.07772e-05
0.000840012
9.39268e-05
0.000823857
0.000106837
0.000805936
0.000119471
0.000785953
0.000131785
0.000764118
0.000143745
0.00074034
0.000155314
0.000714653
0.00016646
0.00068711
0.000177148
0.000657771
0.000187353
0.000626704
0.000197038
0.000593983
0.000206184
0.000559687
0.000214757
0.000523904
0.000222741
0.000486721
0.000230105
0.000448235
0.000236835
0.000408543
0.000242906
0.000367745
0.000248305
0.000325963
0.000253014
0.000283298
0.000257021
0.000239866
0.000260312
0.000195789
0.00026288
0.000151197
0.000264718
0.000106244
0.000265817
6.1185e-05
1.47093e-05
0.000266168
1.30755e-05
0.000892929
4.16532e-08
2.63661e-05
0.00087957
3.97391e-05
0.000866509
5.31003e-05
0.000854059
6.63764e-05
0.000841073
7.95097e-05
0.000826875
9.24539e-05
0.000810909
0.000105163
0.000793222
0.0001176
0.000773512
0.000129723
0.000751989
0.000141499
0.00072856
0.000152888
0.000703257
0.000163863
0.00067613
0.000174386
0.00064724
0.000184434
0.000616651
0.000193971
0.000584437
0.000202976
0.000550675
0.000211418
0.000515451
0.000219279
0.000478852
0.000226531
0.000440972
0.000233158
0.000401907
0.000239137
0.000361753
0.000244454
0.000320634
0.000249091
0.000278646
0.000253036
0.000235905
0.000256278
0.000192531
0.000258807
0.00014865
0.000260617
0.000104416
0.0002617
6.00797e-05
1.43347e-05
0.000262045
1.28708e-05
0.000880025
3.9881e-08
2.59523e-05
0.000866496
3.91151e-05
0.000853353
5.22666e-05
0.000840915
6.53346e-05
0.000828012
7.82624e-05
0.000813955
9.10045e-05
0.000798175
0.000103516
0.000780719
0.000115759
0.000761277
0.000127694
0.000740063
0.000139287
0.000716978
0.000150501
0.000692052
0.000161306
0.000665336
0.000171668
0.000636887
0.000181561
0.00060677
0.000190951
0.000575055
0.000199819
0.00054182
0.000208132
0.000507148
0.000215872
0.000471125
0.000223013
0.000433842
0.000229539
0.000395395
0.000235426
0.000355878
0.000240662
0.000315412
0.000245229
0.000274094
0.000249115
0.000232036
0.000252307
0.000189356
0.000254798
0.000146179
0.000256581
0.000102657
0.000257648
5.90358e-05
1.40364e-05
0.000257989
1.26694e-05
0.000867315
3.81801e-08
2.55452e-05
0.000853618
3.85011e-05
0.000840394
5.14463e-05
0.000827966
6.43094e-05
0.000815145
7.7035e-05
0.000801225
8.95781e-05
0.000785627
0.000101894
0.000768398
0.000113948
0.000749219
0.000125698
0.000728308
0.000137111
0.00070556
0.000148151
0.000681006
0.00015879
0.000654693
0.000168992
0.000626678
0.000178733
0.000597023
0.000187979
0.0005658
0.000196711
0.000533083
0.000204896
0.000498953
0.000212519
0.000463495
0.000219551
0.000426799
0.000225977
0.000388959
0.000231774
0.000350068
0.000236931
0.000310245
0.000241428
0.000269584
0.000245254
0.000228195
0.000248399
0.000186196
0.000250852
0.000143709
0.000252608
0.000100884
0.000253659
5.79632e-05
1.3673e-05
0.000253994
1.24711e-05
0.000854813
3.64812e-08
2.51445e-05
0.000840952
3.78969e-05
0.000827649
5.0639e-05
0.000815232
6.33006e-05
0.000802491
7.58272e-05
0.000788706
8.81745e-05
0.000773288
0.000100299
0.000756282
0.000112165
0.000737363
0.000123732
0.000716749
0.000134969
0.000694334
0.000145839
0.000670145
0.000156313
0.000644229
0.000166358
0.000616642
0.000175949
0.000587444
0.000185054
0.000556705
0.000193652
0.000524497
0.000201712
0.000490902
0.000209218
0.000456002
0.000216142
0.000419886
0.00022247
0.000382645
0.00022818
0.00034437
0.000233257
0.000305181
0.000237686
0.000265169
0.000241455
0.000224442
0.000244552