/*--------------------------------*- C++ -*----------------------------------*\
  =========                 |
  \\      /  F ield         | OpenFOAM: The Open Source CFD Toolbox
   \\    /   O peration     | Website:  https://openfoam.org
    \\  /    A nd           | Version:  6.0
     \\/     M anipulation  |
\*---------------------------------------------------------------------------*/
FoamFile
{
    version     2.0;
    format      ascii;
    class       surfaceScalarField;
    location    "3";
    object      phi;
}
// * * * * * * * * * * * * * * * * * * * * * * * * * * * * * * * * * * * * * //

dimensions      [0 3 -1 0 0 0 0];

internalField   nonuniform List<scalar> 
58656
(
2.37901e-05
0.00311205
-3.78308e-10
4.78809e-05
0.00307725
7.16862e-05
0.00300894
9.48149e-05
0.00290768
0.000116963
0.00277456
0.000137857
0.00261109
0.00015725
0.00241908
0.000174919
0.00220066
0.000190661
0.00195826
0.000204297
0.00169462
0.000215674
0.00141266
0.000224658
0.00111569
0.000231142
0.000806819
0.000235075
0.000490698
0.000178363
0.000238214
2.36394e-05
0.00308841
-5.63933e-11
4.75779e-05
0.00305331
7.12329e-05
0.00298528
9.42149e-05
0.0028847
0.000116222
0.00275255
0.000136981
0.00259033
0.00015625
0.00239981
0.000173806
0.0021831
0.000189448
0.00194262
0.000202998
0.00168107
0.000214303
0.00140135
0.000223235
0.00110676
0.000229648
0.000800403
0.000233841
0.000486503
0.000175101
0.0002371
2.34898e-05
0.00306492
4.02496e-10
4.72771e-05
0.00302953
7.07826e-05
0.00296178
9.3619e-05
0.00286186
0.000115486
0.00273069
0.000136113
0.0025697
0.00015526
0.00238066
0.000172704
0.00216566
0.000188246
0.00192708
0.00020171
0.00166761
0.000212942
0.00139012
0.000221823
0.00109788
0.000228182
0.000794045
0.000232301
0.000482385
0.000172142
0.000235262
2.33412e-05
0.00304157
8.99881e-10
4.69783e-05
0.00300589
7.03353e-05
0.00293842
9.30268e-05
0.00283916
0.000114755
0.00270896
0.000135251
0.0025492
0.000154275
0.00236163
0.000171608
0.00214832
0.000187052
0.00191163
0.000200429
0.00165423
0.00021159
0.00137896
0.00022042
0.00108904
0.00022674
0.000787723
0.000230753
0.000478369
0.000169475
0.000233417
2.31935e-05
0.00301838
1.54742e-09
4.66815e-05
0.0029824
6.98906e-05
0.00291521
9.2438e-05
0.00281662
0.000114027
0.00268737
0.000134393
0.00252884
0.000153296
0.00234273
0.000170519
0.0021311
0.000185864
0.00189629
0.000199157
0.00164094
0.000210246
0.00136787
0.000219025
0.00108027
0.000225319
0.000781431
0.000229263
0.000474426
0.000167061
0.000231679
2.30468e-05
0.00299533
2.17682e-09
4.63864e-05
0.00295906
6.94484e-05
0.00289215
9.18525e-05
0.00279421
0.000113304
0.00266591
0.00013354
0.0025086
0.000152324
0.00232395
0.000169437
0.00211398
0.000184684
0.00188104
0.000197892
0.00162773
0.00020891
0.00135685
0.000217637
0.00107154
0.000223911
0.000775155
0.000227812
0.000470523
0.000164843
0.000230028
2.29009e-05
0.00297243
2.72503e-09
4.60931e-05
0.00293587
6.90088e-05
0.00286923
9.12705e-05
0.00277195
0.000112586
0.0026446
0.000132693
0.00248849
0.000151357
0.00230528
0.000168361
0.00209698
0.000183511
0.00186589
0.000196636
0.0016146
0.000207584
0.0013459
0.000216258
0.00106287
0.000222512
0.000768903
0.000226383
0.000466653
0.000162781
0.000228447
2.27559e-05
0.00294967
3.16944e-09
4.58014e-05
0.00291282
6.85716e-05
0.00284646
9.06919e-05
0.00274983
0.000111872
0.00262342
0.000131851
0.00246851
0.000150396
0.00228674
0.000167293
0.00208008
0.000182346
0.00185083
0.000195387
0.00160156
0.000206266
0.00133502
0.000214885
0.00105424
0.000221118
0.000762669
0.000224968
0.0004628
0.000160828
0.000226918
2.26117e-05
0.00292705
3.41772e-09
4.55114e-05
0.00288992
6.8137e-05
0.00282384
9.01168e-05
0.00272785
0.000111162
0.00260237
0.000131015
0.00244866
0.000149442
0.00226831
0.000166231
0.00206329
0.000181189
0.00183588
0.000194147
0.0015886
0.000204956
0.00132421
0.000213521
0.00104568
0.000219729
0.000756463
0.000223561
0.00045897
0.000158969
0.000225422
2.24684e-05
0.00290458
3.48659e-09
4.5223e-05
0.00286717
6.7705e-05
0.00280135
8.95451e-05
0.00270601
0.000110457
0.00258146
0.000130183
0.00242893
0.000148494
0.00225
0.000165176
0.00204661
0.000180038
0.00182101
0.000192915
0.00157573
0.000203656
0.00131347
0.000212166
0.00103717
0.000218345
0.000750282
0.00022216
0.000455153
0.000157179
0.000223947
2.2326e-05
0.00288225
3.38155e-09
4.49363e-05
0.00284455
6.72755e-05
0.00277902
8.89769e-05
0.00268431
0.000109756
0.00256068
0.000129357
0.00240933
0.000147552
0.0022318
0.000164128
0.00203003
0.000178896
0.00180625
0.00019169
0.00156293
0.000202364
0.0013028
0.000210819
0.00102872
0.000216967
0.000744136
0.000220764
0.000451358
0.000155456
0.000222488
2.21845e-05
0.00286006
3.11975e-09
4.46513e-05
0.00282209
6.68486e-05
0.00275682
8.84123e-05
0.00266274
0.000109059
0.00254003
0.000128537
0.00238985
0.000146615
0.00221372
0.000163086
0.00201356
0.00017776
0.00179157
0.000190473
0.00155022
0.00020108
0.00129219
0.000209481
0.00102031
0.000215596
0.000738019
0.000219373
0.000447579
0.000153783
0.000221043
2.20438e-05
0.00283801
2.75299e-09
4.43681e-05
0.00279976
6.64243e-05
0.00273476
8.78511e-05
0.00264131
0.000108367
0.00251952
0.000127721
0.0023705
0.000145685
0.00219576
0.000162051
0.0019972
0.000176632
0.00177699
0.000189265
0.00153759
0.000199805
0.00128165
0.000208152
0.00101197
0.000214232
0.000731941
0.000217988
0.000443825
0.000152162
0.00021961
2.19041e-05
0.00281611
2.2987e-09
4.40866e-05
0.00277758
6.60027e-05
0.00271284
8.72935e-05
0.00262002
0.00010768
0.00249913
0.000126911
0.00235127
0.000144761
0.00217791
0.000161023
0.00198093
0.000175511
0.0017625
0.000188063
0.00152503
0.000198538
0.00127118
0.000206831
0.00100367
0.000212876
0.000725895
0.000216611
0.000440088
0.000150578
0.000218191
2.17652e-05
0.00279434
1.77878e-09
4.38068e-05
0.00275554
6.55837e-05
0.00269107
8.67395e-05
0.00259887
0.000106997
0.00247887
0.000126106
0.00233216
0.000143842
0.00216017
0.000160001
0.00196478
0.000174397
0.00174811
0.00018687
0.00151256
0.000197279
0.00126077
0.00020552
0.000995434
0.000211528
0.000719889
0.00021524
0.000436378
0.000149036
0.000216785
2.16273e-05
0.00277271
1.20146e-09
4.35289e-05
0.00273364
6.51675e-05
0.00266943
8.6189e-05
0.00257784
0.000106318
0.00245874
0.000125306
0.00231317
0.00014293
0.00214255
0.000158986
0.00194872
0.00017329
0.0017338
0.000185684
0.00150017
0.000196028
0.00125043
0.000204217
0.000987244
0.000210189
0.000713916
0.000213878
0.000432687
0.000147521
0.00021539
2.14902e-05
0.00275122
5.59409e-10
4.32527e-05
0.00271187
6.47539e-05
0.00264793
8.56421e-05
0.00255696
0.000105643
0.00243874
0.000124511
0.0022943
0.000142023
0.00212504
0.000157977
0.00193277
0.00017219
0.00171959
0.000184506
0.00148785
0.000194785
0.00124015
0.000202923
0.000979108
0.000208857
0.000707984
0.000212524
0.000429022
0.000146041
0.000214007
2.13541e-05
0.00272987
-1.50603e-10
4.29784e-05
0.00269025
6.4343e-05
0.00262656
8.50988e-05
0.0025362
0.000104973
0.00241887
0.000123721
0.00227555
0.000141122
0.00210764
0.000156974
0.00191691
0.000171097
0.00170546
0.000183335
0.00147561
0.00019355
0.00122993
0.000201637
0.00097102
0.000207534
0.000702085
0.000211178
0.000425376
0.000144582
0.000212634
2.12189e-05
0.00270865
-9.31216e-10
4.27058e-05
0.00266876
6.39349e-05
0.00260533
8.45589e-05
0.00251558
0.000104307
0.00239912
0.000122936
0.00225693
0.000140226
0.00209035
0.000155978
0.00190116
0.000170012
0.00169143
0.000182172
0.00146346
0.000192323
0.00121978
0.000200359
0.000962986
0.00020622
0.000696226
0.00020984
0.000421758
0.000143154
0.000211272
2.10847e-05
0.00268757
-1.78224e-09
4.2435e-05
0.00264741
6.35293e-05
0.00258424
8.40226e-05
0.00249508
0.000103646
0.0023795
0.000122156
0.00223842
0.000139336
0.00207317
0.000154988
0.00188551
0.000168933
0.00167749
0.000181016
0.00145137
0.000191104
0.0012097
0.00019909
0.000954999
0.000204914
0.000690401
0.000208511
0.000418159
0.000141745
0.000209919
2.09513e-05
0.00266662
-2.69485e-09
4.2166e-05
0.0026262
6.31264e-05
0.00256328
8.34897e-05
0.00247472
0.000102988
0.00236
0.000121381
0.00222002
0.000138452
0.0020561
0.000154004
0.00186996
0.000167861
0.00166363
0.000179868
0.00143937
0.000189893
0.00119967
0.000197829
0.000947064
0.000203617
0.000684615
0.00020719
0.000414588
0.000140364
0.000208576
2.08188e-05
0.0026458
-3.66171e-09
4.18988e-05
0.00260512
6.27261e-05
0.00254245
8.29602e-05
0.00245448
0.000102335
0.00234062
0.000120611
0.00220175
0.000137574
0.00203913
0.000153027
0.0018545
0.000166796
0.00164986
0.000178727
0.00142743
0.000188689
0.00118971
0.000196576
0.000939176
0.000202328
0.000678862
0.000205877
0.000411036
0.000138997
0.000207242
2.06873e-05
0.00262512
-4.67144e-09
4.16333e-05
0.00258417
6.23284e-05
0.00252176
8.24341e-05
0.00243438
0.000101686
0.00232137
0.000119846
0.00218359
0.000136701
0.00202228
0.000152056
0.00183915
0.000165737
0.00163618
0.000177593
0.00141558
0.000187493
0.00117981
0.000195332
0.000931339
0.000201047
0.000673149
0.000204573
0.000407511
0.000137656
0.000205919
2.05566e-05
0.00260457
-5.71438e-09
4.13696e-05
0.00256336
6.19332e-05
0.00250119
8.19113e-05
0.0024144
0.000101041
0.00230224
0.000119085
0.00216554
0.000135833
0.00200553
0.000151091
0.00182389
0.000164685
0.00162259
0.000176466
0.0014038
0.000186305
0.00116997
0.000194095
0.000923548
0.000199774
0.000667468
0.000203277
0.000404006
0.000136326
0.000204605
2.04269e-05
0.00258415
-6.77603e-09
4.11075e-05
0.00254268
6.15406e-05
0.00248076
8.13918e-05
0.00239455
0.0001004
0.00228323
0.00011833
0.00214761
0.000134971
0.00198889
0.000150132
0.00180873
0.000163641
0.00160908
0.000175347
0.0013921
0.000185124
0.0011602
0.000192865
0.000915809
0.000198509
0.000661827
0.000201989
0.000400528
0.000135018
0.000203301
2.02979e-05
0.00256386
-7.83936e-09
4.08471e-05
0.00252213
6.11504e-05
0.00246046
8.08756e-05
0.00237482
9.97627e-05
0.00226435
0.000117579
0.0021298
0.000134114
0.00197235
0.000149179
0.00179367
0.000162602
0.00159566
0.000174235
0.00138046
0.000183951
0.00115048
0.000191644
0.000908114
0.000197252
0.000656217
0.00020071
0.000397068
0.000133719
0.000202006
2.01699e-05
0.0025437
-8.87911e-09
4.05884e-05
0.00250171
6.07627e-05
0.00244028
8.03626e-05
0.00235523
9.91297e-05
0.00224558
0.000116833
0.00211209
0.000133263
0.00195592
0.000148232
0.0017787
0.000161571
0.00158232
0.00017313
0.0013689
0.000182785
0.00114083
0.000190431
0.00090047
0.000196003
0.000650646
0.000199438
0.000393635
0.000132441
0.00020072
2.00426e-05
0.00252366
-9.86746e-09
4.03314e-05
0.00248142
6.03775e-05
0.00242023
7.98528e-05
0.00233575
9.85006e-05
0.00222693
0.000116091
0.0020945
0.000132417
0.0019396
0.000147292
0.00176382
0.000160546
0.00156907
0.000172032
0.00135742
0.000181627
0.00113123
0.000189225
0.000892871
0.000194762
0.000645107
0.000198175
0.000390221
0.000131169
0.000199443
1.99162e-05
0.00250376
-1.07722e-08
4.0076e-05
0.00246126
5.99946e-05
0.00240032
7.93461e-05
0.0023164
9.78754e-05
0.0022084
0.000115354
0.00207703
0.000131577
0.00192338
0.000146357
0.00174905
0.000159527
0.0015559
0.000170941
0.00134601
0.000180476
0.0011217
0.000188027
0.000885322
0.000193529
0.000639606
0.000196919
0.000386833
0.000129917
0.000198174
1.97905e-05
0.00248398
-1.15663e-08
3.98221e-05
0.00244123
5.96141e-05
0.00238052
7.88427e-05
0.00229717
9.72542e-05
0.00218999
0.000114622
0.00205966
0.000130742
0.00190726
0.000145428
0.00173436
0.000158515
0.00154281
0.000169857
0.00133466
0.000179332
0.00111222
0.000186836
0.000877816
0.000192304
0.000634137
0.000195671
0.000383464
0.000128672
0.000196914
1.96656e-05
0.00246432
-1.22277e-08
3.95699e-05
0.00242132
5.92361e-05
0.00236086
7.83423e-05
0.00227806
9.66368e-05
0.0021717
0.000113894
0.0020424
0.000129912
0.00189124
0.000144505
0.00171977
0.00015751
0.00152981
0.000168781
0.00132339
0.000178196
0.00110281
0.000185653
0.000870361
0.000191086
0.000628706
0.000194432
0.00038012
0.000127444
0.000195662
1.95415e-05
0.0024448
-1.27481e-08
3.93192e-05
0.00240155
5.88603e-05
0.00234132
7.78451e-05
0.00225908
9.60234e-05
0.00215352
0.000113171
0.00202525
0.000129087
0.00187532
0.000143588
0.00170526
0.000156511
0.00151689
0.000167711
0.00131219
0.000177067
0.00109345
0.000184478
0.000862949
0.000189876
0.000623305
0.0001932
0.000376795
0.000126223
0.000194418
1.94182e-05
0.00242539
-1.31307e-08
3.90701e-05
0.00238189
5.84869e-05
0.0023219
7.7351e-05
0.00224022
9.54138e-05
0.00213546
0.000112453
0.00200822
0.000128268
0.00185951
0.000142677
0.00169086
0.000155518
0.00150405
0.000166647
0.00130107
0.000175945
0.00108416
0.00018331
0.000855586
0.000188674
0.000617943
0.000191976
0.000373496
0.00012502
0.000193182
1.92956e-05
0.00240611
-1.33951e-08
3.88225e-05
0.00236237
5.81158e-05
0.00230261
7.686e-05
0.00222147
9.4808e-05
0.00211751
0.000111739
0.00199128
0.000127453
0.0018438
0.000141772
0.00167654
0.000154532
0.00149129
0.000165591
0.00129001
0.000174831
0.00107492
0.000182149
0.000848266
0.00018748
0.000612611
0.000190759
0.000370214
0.000123821
0.000191954
1.91737e-05
0.00238695
-1.35703e-08
3.85764e-05
0.00234296
5.7747e-05
0.00228344
7.6372e-05
0.00220285
9.4206e-05
0.00209968
0.000111029
0.00197446
0.000126645
0.00182818
0.000140872
0.00166231
0.000153552
0.00147861
0.000164542
0.00127902
0.000173723
0.00106574
0.000180996
0.000840995
0.000186293
0.000607316
0.000189551
0.000366959
0.00012264
0.000190735
1.90525e-05
0.00236791
-1.36962e-08
3.83319e-05
0.00232368
5.73805e-05
0.00226439
7.58871e-05
0.00218434
9.36078e-05
0.00208195
0.000110324
0.00195775
0.000125841
0.00181266
0.000139979
0.00164817
0.000152578
0.00146601
0.000163499
0.0012681
0.000172623
0.00105661
0.00017985
0.000833766
0.000185113
0.000602051
0.00018835
0.00036372
0.000121463
0.000189524
1.89321e-05
0.00234899
-1.38136e-08
3.80888e-05
0.00230453
5.70163e-05
0.00224546
7.54053e-05
0.00216595
9.30134e-05
0.00206435
0.000109624
0.00194114
0.000125042
0.00179725
0.000139091
0.00163413
0.000151611
0.00145349
0.000162463
0.00125725
0.00017153
0.00104755
0.000178712
0.000826586
0.000183941
0.000596824
0.000187157
0.000360508
0.000120303
0.000188321
1.88124e-05
0.00233019
-1.39625e-08
3.78472e-05
0.00228549
5.66543e-05
0.00222665
7.49265e-05
0.00214768
9.24228e-05
0.00204685
0.000108928
0.00192463
0.000124248
0.00178193
0.000138208
0.00162017
0.00015065
0.00144105
0.000161433
0.00124646
0.000170443
0.00103854
0.000177581
0.000819447
0.000182777
0.000591626
0.000185971
0.000357312
0.000119146
0.000187126
1.86934e-05
0.00231151
-1.4173e-08
3.76072e-05
0.00226658
5.62946e-05
0.00220797
7.44506e-05
0.00212952
9.18359e-05
0.00202947
0.000108236
0.00190823
0.00012346
0.00176671
0.000137332
0.0016063
0.000149694
0.00142869
0.000160411
0.00123575
0.000169364
0.00102958
0.000176457
0.000812356
0.00018162
0.000586465
0.000184793
0.000354141
0.000118006
0.000185938
1.85752e-05
0.00229295
-1.44652e-08
3.73686e-05
0.00224779
5.59372e-05
0.0021894
7.39778e-05
0.00211148
9.12528e-05
0.00201219
0.000107549
0.00189193
0.000122677
0.00175158
0.00013646
0.00159251
0.000148745
0.0014164
0.000159394
0.0012251
0.000168292
0.00102069
0.00017534
0.000805307
0.00018047
0.000581334
0.000183622
0.000350987
0.000116869
0.000184759
1.84576e-05
0.00227451
-1.48438e-08
3.71315e-05
0.00222911
5.5582e-05
0.00217095
7.3508e-05
0.00209356
9.06733e-05
0.00199503
0.000106867
0.00187574
0.000121898
0.00173655
0.000135595
0.00157882
0.000147803
0.00140419
0.000158384
0.00121452
0.000167226
0.00101185
0.00017423
0.000798305
0.000179327
0.000576239
0.000182459
0.000347858
0.000115747
0.000183587
1.83408e-05
0.00225618
-1.53025e-08
3.68959e-05
0.00221056
5.5229e-05
0.00215261
7.30411e-05
0.00207575
9.00975e-05
0.00197797
0.000106188
0.00185965
0.000121125
0.00172161
0.000134735
0.0015652
0.000146866
0.00139206
0.000157381
0.001204
0.000166167
0.00100306
0.000173127
0.000791343
0.000178192
0.000571172
0.000181304
0.000344745
0.000114628
0.000182423
1.82246e-05
0.00223797
-1.58242e-08
3.66617e-05
0.00219212
5.48783e-05
0.0021344
7.25772e-05
0.00205805
8.95254e-05
0.00196102
0.000105514
0.00184366
0.000120356
0.00170677
0.00013388
0.00155168
0.000145935
0.00138001
0.000156384
0.00119355
0.000165115
0.00099433
0.000172032
0.000784428
0.000177064
0.000566142
0.000180156
0.000341657
0.000113524
0.000181266
1.81092e-05
0.00221988
-1.63893e-08
3.6429e-05
0.0021738
5.45298e-05
0.0021163
7.21163e-05
0.00204046
8.89569e-05
0.00194418
0.000104844
0.00182778
0.000119592
0.00169202
0.000133031
0.00153824
0.00014501
0.00136803
0.000155394
0.00118317
0.00016407
0.000985652
0.000170943
0.000777554
0.000175944
0.00056114
0.000179015
0.000338585
0.000112422
0.000180117
1.79945e-05
0.0022019
-1.69771e-08
3.61978e-05
0.0021556
5.41834e-05
0.00209831
7.16582e-05
0.00202299
8.8392e-05
0.00192745
0.000104179
0.00181199
0.000118834
0.00167737
0.000132188
0.00152489
0.000144091
0.00135613
0.000154409
0.00117285
0.000163031
0.000977033
0.000169861
0.000770726
0.00017483
0.000556173
0.000177881
0.000335537
0.000111336
0.000178975
1.78805e-05
0.00218404
-1.75728e-08
3.5968e-05
0.00213751
5.38393e-05
0.00208044
7.12031e-05
0.00200562
8.78307e-05
0.00191082
0.000103518
0.0017963
0.00011808
0.00166281
0.00013135
0.00151162
0.000143178
0.0013443
0.000153431
0.0011626
0.000161999
0.000968464
0.000168786
0.000763937
0.000173724
0.000551235
0.000176755
0.000332505
0.000110251
0.00017784
1.77672e-05
0.00216629
-1.81668e-08
3.57397e-05
0.00211954
5.34973e-05
0.00206268
7.07508e-05
0.00198837
8.7273e-05
0.0018943
0.00010286
0.00178072
0.000117331
0.00164834
0.000130517
0.00149843
0.00014227
0.00133255
0.00015246
0.00115241
0.000160974
0.000959952
0.000167718
0.000757194
0.000172624
0.000546331
0.000175636
0.000329498
0.000109181
0.000176713
1.76546e-05
0.00214866
-1.87569e-08
3.55127e-05
0.00210168
5.31575e-05
0.00204504
7.03014e-05
0.00197123
8.67188e-05
0.00187788
0.000102208
0.00176523
0.000116586
0.00163396
0.000129689
0.00148533
0.000141369
0.00132087
0.000151494
0.00114228
0.000159955
0.00095149
0.000166657
0.000750491
0.000171532
0.000541455
0.000174524
0.000326507
0.000108112
0.000175593
1.75427e-05
0.00213113
-1.9344e-08
3.52873e-05
0.00208393
5.28198e-05
0.00202751
6.98549e-05
0.00195419
8.61682e-05
0.00186157
0.000101559
0.00174984
0.000115847
0.00161967
0.000128867
0.00147231
0.000140473
0.00130927
0.000150535
0.00113222
0.000158942
0.000943085
0.000165603
0.000743833
0.000170446
0.000536614
0.000173419
0.000323539
0.000107057
0.00017448
1.74315e-05
0.00211372
-1.99317e-08
3.50632e-05
0.0020663
5.24843e-05
0.00201009
6.94113e-05
0.00193726
8.56211e-05
0.00184536
0.000100914
0.00173454
0.000115112
0.00160547
0.00012805
0.00145937
0.000139583
0.00129773
0.000149582
0.00112222
0.000157936
0.000934729
0.000164555
0.000737213
0.000169368
0.0005318
0.000172321
0.000320588
0.000106001
0.000173374
1.73211e-05
0.00209642
-2.0522e-08
3.48406e-05
0.00204878
5.21509e-05
0.00199278
6.89704e-05
0.00192045
8.50775e-05
0.00182926
0.000100274
0.00171935
0.000114382
0.00159137
0.000127238
0.00144652
0.000138699
0.00128627
0.000148635
0.00111229
0.000156937
0.000926429
0.000163514
0.000730638
0.000168296
0.00052702
0.000171231
0.000317659
0.000104961
0.000172275
1.72113e-05
0.00207923
-2.11158e-08
3.46193e-05
0.00203137
5.18197e-05
0.00197558
6.85324e-05
0.00190373
8.45373e-05
0.00181325
9.96376e-05
0.00170425
0.000113656
0.00157735
0.000126432
0.00143374
0.00013782
0.00127488
0.000147693
0.00110242
0.000155944
0.000918177
0.00016248
0.000724101
0.000167232
0.000522267
0.000170147
0.000314746
0.00010392
0.000171183
1.71022e-05
0.00206215
-2.17106e-08
3.43995e-05
0.00201408
5.14906e-05
0.00195849
6.80971e-05
0.00188713
8.40006e-05
0.00179735
9.90053e-05
0.00168925
0.000112935
0.00156342
0.00012563
0.00142105
0.000136947
0.00126357
0.000146758
0.00109261
0.000154957
0.000909981
0.000161452
0.000717608
0.000166174
0.000517548
0.00016907
0.000311857
0.000102893
0.000170099
1.69938e-05
0.00204518
-2.23033e-08
3.41811e-05
0.00199689
5.11635e-05
0.0019415
6.76647e-05
0.00187063
8.34674e-05
0.00178154
9.83771e-05
0.00167434
0.000112219
0.00154958
0.000124834
0.00140843
0.00013608
0.00125232
0.000145829
0.00108286
0.000153977
0.000901833
0.000160431
0.000711153
0.000165123
0.000512855
0.000168
0.000308981
0.000101867
0.000169021
1.68862e-05
0.00202832
-2.2889e-08
3.39641e-05
0.00197981
5.08386e-05
0.00192463
6.7235e-05
0.00185423
8.29375e-05
0.00176584
9.77529e-05
0.00165952
0.000111507
0.00153582
0.000124043
0.0013959
0.000135218
0.00124115
0.000144906
0.00107317
0.000153002
0.000893739
0.000159416
0.000704741
0.000164078
0.000508195
0.000166937
0.000306128
0.000100854
0.000167951
1.67792e-05
0.00201156
-2.34637e-08
3.37484e-05
0.00196284
5.05157e-05
0.00190786
6.68081e-05
0.00183794
8.2411e-05
0.00175024
9.71327e-05
0.0016448
0.0001108
0.00152216
0.000123257
0.00138344
0.000134361
0.00123004
0.000143989
0.00106354
0.000152034
0.000885693
0.000158408
0.000698367
0.00016304
0.000503561
0.000165881
0.000303289
9.98424e-05
0.000166887
1.66729e-05
0.00199491
-2.40229e-08
3.35342e-05
0.00194598
5.01949e-05
0.0018912
6.63839e-05
0.00182175
8.1888e-05
0.00173474
9.65164e-05
0.00163017
0.000110098
0.00150858
0.000122476
0.00137106
0.00013351
0.00121901
0.000143078
0.00105398
0.000151073
0.000877701
0.000157406
0.000692036
0.000162009
0.00049896
0.000164832
0.000300473
9.88448e-05
0.000165831
1.65673e-05
0.00197837
-2.4562e-08
3.33213e-05
0.00192923
4.98762e-05
0.00187465
6.59624e-05
0.00180566
8.13682e-05
0.00171933
9.59041e-05
0.00161564
0.0001094
0.00149508
0.0001217
0.00135876
0.000132665
0.00120805
0.000142172
0.00104447
0.000150117
0.000869755
0.000156411
0.000685741
0.000160985
0.000494385
0.000163789
0.000297669
9.78482e-05
0.000164782
1.64624e-05
0.00196193
-2.50749e-08
3.31098e-05
0.00191258
4.95595e-05
0.0018582
6.55436e-05
0.00178968
8.08518e-05
0.00170402
9.52958e-05
0.00160119
0.000108706
0.00148167
0.000120929
0.00134654
0.000131825
0.00119715
0.000141272
0.00103502
0.000149167
0.000861863
0.000155422
0.000679489
0.000159967
0.000489842
0.000162753
0.000294889
9.68654e-05
0.000163739
1.63581e-05
0.0019456
-2.5554e-08
3.28997e-05
0.00189604
4.92448e-05
0.00184185
6.51275e-05
0.0017738
8.03387e-05
0.00168881
9.46913e-05
0.00158684
0.000108017
0.00146835
0.000120163
0.0013344
0.00013099
0.00118632
0.000140379
0.00102563
0.000148224
0.000854016
0.000154439
0.000673273
0.000158956
0.000485325
0.000161724
0.000292121
9.58835e-05
0.000162703
1.62546e-05
0.00192937
-2.59888e-08
3.26909e-05
0.0018796
4.89322e-05
0.00182561
6.4714e-05
0.00175802
7.98289e-05
0.0016737
9.40907e-05
0.00157258
0.000107332
0.00145511
0.000119401
0.00132233
0.000130161
0.00117557
0.00013949
0.00101631
0.000147287
0.000846223
0.000153463
0.0006671
0.000157951
0.000480839
0.000160701
0.000289375
9.49151e-05
0.000161674
1.61517e-05
0.00191324
-2.63687e-08
3.24834e-05
0.00186327
4.86215e-05
0.00180947
6.43032e-05
0.00174233
7.93223e-05
0.00165868
9.34939e-05
0.00155841
0.000106652
0.00144195
0.000118645
0.00131034
0.000129337
0.00116487
0.000138608
0.00100704
0.000146355
0.000838475
0.000152493
0.000660961
0.000156952
0.000476379
0.000159685
0.000286642
9.39472e-05
0.000160652
1.60495e-05
0.00189722
-2.66825e-08
3.22773e-05
0.00184705
4.83129e-05
0.00179344
6.38951e-05
0.00172675
7.8819e-05
0.00164376
9.2901e-05
0.00154433
0.000105976
0.00142887
0.000117893
0.00129842
0.000128518
0.00115425
0.000137731
0.000997825
0.00014543
0.000830778
0.000151529
0.000654865
0.00015596
0.00047195
0.000158676
0.000283932
9.29927e-05
0.000159637
1.59479e-05
0.0018813
-2.69223e-08
3.20725e-05
0.00183092
4.80062e-05
0.0017775
6.34895e-05
0.00171127
7.83189e-05
0.00162893
9.23119e-05
0.00153033
0.000105304
0.00141588
0.000117147
0.00128658
0.000127705
0.00114369
0.00013686
0.00098867
0.00014451
0.000823127
0.000150571
0.000648804
0.000154975
0.000467545
0.000157673
0.000281234
9.20384e-05
0.000158627
1.5847e-05
0.00186548
-2.70836e-08
3.18691e-05
0.0018149
4.77015e-05
0.00176167
6.30866e-05
0.00169588
7.78221e-05
0.00161419
9.17266e-05
0.00151643
0.000104637
0.00140297
0.000116405
0.00127481
0.000126897
0.0011332
0.000135994
0.000979574
0.000143597
0.000815527
0.000149619
0.000642783
0.000153996
0.000463172
0.000156677
0.000278557
9.10969e-05
0.000157625
1.57467e-05
0.00184976
-2.71682e-08
3.16669e-05
0.00179898
4.73988e-05
0.00174594
6.26863e-05
0.0016806
7.73284e-05
0.00159955
9.1145e-05
0.00150261
0.000103974
0.00139014
0.000115668
0.00126312
0.000126094
0.00112278
0.000135134
0.000970534
0.000142689
0.000807972
0.000148674
0.000636798
0.000153023
0.000458823
0.000155687
0.000275894
9.01556e-05
0.000156629
1.56471e-05
0.00183414
-2.71831e-08
3.14661e-05
0.00178316
4.7098e-05
0.00173031
6.22885e-05
0.00166541
7.68379e-05
0.001585
9.05672e-05
0.00148888
0.000103315
0.0013774
0.000114935
0.0012515
0.000125296
0.00111242
0.000134279
0.000961552
0.000141787
0.000800466
0.000147735
0.000630853
0.000152056
0.000454505
0.000154703
0.000273251
8.92273e-05
0.000155639
1.55482e-05
0.00181862
-2.71414e-08
3.12665e-05
0.00176744
4.67992e-05
0.00171478
6.18933e-05
0.00165031
7.63506e-05
0.00157054
8.9993e-05
0.00147524
0.000102661
0.00136473
0.000114208
0.00123995
0.000124503
0.00110212
0.00013343
0.000952624
0.000140891
0.000793005
0.000146801
0.000624943
0.000151096
0.000450211
0.000153726
0.000270621
8.82979e-05
0.000154656
1.54499e-05
0.0018032
-2.70595e-08
3.10683e-05
0.00175182
4.65022e-05
0.00169934
6.15006e-05
0.00163531
7.58664e-05
0.00155618
8.94226e-05
0.00146169
0.00010201
0.00135214
0.000113485
0.00122848
0.000123715
0.00109189
0.000132587
0.000943755
0.000140001
0.000785594
0.000145874
0.000619072
0.000150141
0.000445947
0.000152755
0.000268013
8.73813e-05
0.000153679
1.53522e-05
0.00178787
-2.69562e-08
3.08713e-05
0.00173631
4.62072e-05
0.00168401
6.11105e-05
0.00162041
7.53852e-05
0.0015419
8.88558e-05
0.00144822
0.000101364
0.00133963
0.000112766
0.00121708
0.000122933
0.00108173
0.000131749
0.000934938
0.000139116
0.000778226
0.000144953
0.000613235
0.000149193
0.000441707
0.000151791
0.000265418
8.64627e-05
0.000152709
1.52551e-05
0.00177264
-2.68496e-08
3.06756e-05
0.00172089
4.59141e-05
0.00166877
6.07228e-05
0.0016056
7.49072e-05
0.00152772
8.82927e-05
0.00143483
0.000100722
0.0013272
0.000112053
0.00120575
0.000122155
0.00107163
0.000130916
0.00092618
0.000138237
0.000770907
0.000144038
0.000607438
0.000148251
0.000437497
0.000150832
0.000262843
8.55564e-05
0.000151744
1.51587e-05
0.00175751
-2.67568e-08
3.04811e-05
0.00170556
4.56229e-05
0.00165363
6.03377e-05
0.00159089
7.44323e-05
0.00151363
8.77332e-05
0.00142153
0.000100084
0.00131485
0.000111343
0.00119449
0.000121383
0.00106159
0.000130088
0.000917474
0.000137364
0.000763631
0.000143128
0.000601675
0.000147316
0.00043331
0.00014988
0.000260281
8.46479e-05
0.000150786
1.50628e-05
0.00174247
-2.66911e-08
3.02879e-05
0.00169034
4.53335e-05
0.00163858
5.9955e-05
0.00157627
7.39604e-05
0.00149962
8.71772e-05
0.00140832
9.94506e-05
0.00130258
0.000110639
0.0011833
0.000120615
0.00105161
0.000129266
0.000908825
0.000136497
0.000756404
0.000142225
0.00059595
0.000146386
0.000429152
0.000148934
0.00025774
8.37519e-05
0.000149834
1.49676e-05
0.00172753
-2.66626e-08
3.0096e-05
0.00167521
4.5046e-05
0.00162363
5.95748e-05
0.00156174
7.34915e-05
0.0014857
8.66249e-05
0.00139518
9.88209e-05
0.00129038
0.000109939
0.00117218
0.000119852
0.0010417
0.00012845
0.000900227
0.000135635
0.000749219
0.000141327
0.000590258
0.000145462
0.000425017
0.000147995
0.00025521
8.28534e-05
0.000148888
1.4873e-05
0.00171269
-2.66772e-08
2.99053e-05
0.00166018
4.47604e-05
0.00160878
5.9197e-05
0.0015473
7.30257e-05
0.00147188
8.60761e-05
0.00138213
9.81953e-05
0.00127827
0.000109243
0.00116114
0.000119095
0.00103185
0.000127638
0.000891686
0.000134778
0.000742081
0.000140435
0.000584605
0.000144544
0.000420912
0.000147061
0.000252701
8.1967e-05
0.000147949
1.4779e-05
0.00169793
-2.67381e-08
2.97158e-05
0.00164524
4.44765e-05
0.00159402
5.88216e-05
0.00153296
7.25628e-05
0.00145814
8.55308e-05
0.00136916
9.75737e-05
0.00126622
0.000108552
0.00115016
0.000118342
0.00102206
0.000126832
0.000883196
0.000133928
0.000734986
0.000139549
0.000578984
0.000143633
0.000416829
0.000146133
0.000250203
8.10791e-05
0.000147015
1.46856e-05
0.00168328
-2.68448e-08
2.95275e-05
0.0016304
4.41945e-05
0.00157935
5.84487e-05
0.0015187
7.21029e-05
0.00144448
8.49891e-05
0.00135628
9.69561e-05
0.00125426
0.000107866
0.00113925
0.000117594
0.00101233
0.000126031
0.000874762
0.000133082
0.000727938
0.000138669
0.000573401
0.000142727
0.000412774
0.000145212
0.000247725
8.02032e-05
0.000146088
1.45928e-05
0.00166871
-2.69958e-08
2.93404e-05
0.00161565
4.39143e-05
0.00156478
5.80781e-05
0.00150454
7.1646e-05
0.00143091
8.44508e-05
0.00134347
9.63425e-05
0.00124237
0.000107184
0.00112841
0.000116851
0.00100267
0.000125235
0.000866378
0.000132243
0.000720931
0.000137794
0.00056785
0.000141827
0.000408741
0.000144296
0.000245257
7.9327e-05
0.000145167
1.45006e-05
0.00165424
-2.71874e-08
2.91545e-05
0.001601
4.36359e-05
0.0015503
5.771e-05
0.00149047
7.1192e-05
0.00141743
8.39161e-05
0.00133075
9.57328e-05
0.00123055
0.000106506
0.00111764
0.000116113
0.000993062
0.000124445
0.000858048
0.000131408
0.00071397
0.000136925
0.000562336
0.000140933
0.000404737
0.000143387
0.000242809
7.84631e-05
0.000144252
1.44089e-05
0.00163985
-2.7416e-08
2.89698e-05
0.00158644
4.33593e-05
0.00153591
5.73442e-05
0.00147648
7.07409e-05
0.00140404
8.33847e-05
0.00131811
9.51271e-05
0.00121881
0.000105833
0.00110693
0.000115379
0.000983515
0.000123659
0.000849769
0.000130579
0.00070705
0.000136062
0.000556854
0.000140044
0.000400755
0.000142483
0.000240372
7.75989e-05
0.000143343
1.43179e-05
0.00162556
-2.76771e-08
2.87863e-05
0.00157197
4.30845e-05
0.00152161
5.69807e-05
0.00146259
7.02928e-05
0.00139073
8.28568e-05
0.00130554
9.45253e-05
0.00120714
0.000105164
0.0010963
0.00011465
0.000974031
0.000122879
0.000841543
0.000129756
0.000700176
0.000135204
0.000551409
0.000139162
0.0003968
0.000141585
0.000237953
7.67469e-05
0.00014244
1.42274e-05
0.00161136
-2.7967e-08
2.86039e-05
0.0015576
4.28114e-05
0.0015074
5.66196e-05
0.00144878
6.98475e-05
0.0013775
8.23323e-05
0.00129306
9.39274e-05
0.00119555
0.000104499
0.00108572
0.000113926
0.000964603
0.000122103