/*--------------------------------*- C++ -*----------------------------------*\
  =========                 |
  \\      /  F ield         | OpenFOAM: The Open Source CFD Toolbox
   \\    /   O peration     | Website:  https://openfoam.org
    \\  /    A nd           | Version:  6.0
     \\/     M anipulation  |
\*---------------------------------------------------------------------------*/
FoamFile
{
    version     2.0;
    format      ascii;
    class       surfaceScalarField;
    location    "3";
    object      phi;
}
// * * * * * * * * * * * * * * * * * * * * * * * * * * * * * * * * * * * * * //

dimensions      [0 3 -1 0 0 0 0];

internalField   nonuniform List<scalar> 
68636
(
3.0229e-05
0.00310561
8.40438e-10
6.08426e-05
0.00307075
9.10903e-05
0.00300255
0.000120479
0.00290151
0.000148621
0.00276866
0.000175171
0.00260545
0.000199814
0.0024137
0.000222266
0.00219551
0.00024227
0.00195333
0.000259597
0.0016898
0.000274052
0.00140785
0.000285471
0.00111052
0.000293734
0.000801157
0.000298726
0.000482921
0.000158005
0.000299716
2.99501e-05
0.00307565
5.08793e-09
6.02856e-05
0.00304041
9.02584e-05
0.00297257
0.00011938
0.00287238
0.000147266
0.00274077
0.000173573
0.00257914
0.000197992
0.00238927
0.000220239
0.00217326
0.00024006
0.0019335
0.00025723
0.00167263
0.000271553
0.00139352
0.000282868
0.0010992
0.000291073
0.000792947
0.000295941
0.000478044
0.000156928
0.000297006
2.96736e-05
0.00304597
9.61172e-09
5.97335e-05
0.00301035
8.94341e-05
0.00294287
0.000118291
0.00284353
0.000145924
0.00271313
0.000171992
0.00255307
0.000196189
0.00236508
0.000218234
0.00215122
0.000237874
0.00191386
0.000254887
0.00165562
0.000269081
0.00137933
0.00028029
0.00108799
0.000288422
0.000784816
0.000293293
0.000473175
0.000155675
0.00029455
2.93996e-05
0.00301656
1.4197e-08
5.91867e-05
0.00298057
8.86177e-05
0.00291344
0.000117213
0.00281493
0.000144595
0.00268575
0.000170427
0.00252724
0.000194403
0.0023411
0.000216248
0.00212937
0.000235709
0.0018944
0.000252566
0.00163876
0.00026663
0.00136526
0.000277735
0.00107689
0.000285786
0.000776761
0.000290644
0.000468311
0.0001543
0.00029201
2.91281e-05
0.00298741
1.90769e-08
5.86449e-05
0.00295105
8.78088e-05
0.00288427
0.000116145
0.00278659
0.000143278
0.00265862
0.000168875
0.00250164
0.000192633
0.00231734
0.000214279
0.00210773
0.000233562
0.00187511
0.000250265
0.00162205
0.0002642
0.00135133
0.000275203
0.00106588
0.000283172
0.000768794
0.000287992
0.000463493
0.000152879
0.000289418
2.8859e-05
0.00295853
2.41131e-08
5.81078e-05
0.0029218
8.70071e-05
0.00285537
0.000115086
0.00275851
0.000141972
0.00263173
0.000167337
0.00247628
0.000190879
0.00229379
0.000212327
0.00208628
0.000231434
0.001856
0.000247985
0.0016055
0.000261793
0.00133752
0.000272696
0.00105498
0.000280584
0.000760903
0.000285358
0.000458714
0.000151412
0.000286818
2.85921e-05
0.00292991
2.91962e-08
5.75755e-05
0.00289282
8.62125e-05
0.00282674
0.000114036
0.00273069
0.000140679
0.00260509
0.000165812
0.00245114
0.00018914
0.00227047
0.000210393
0.00206502
0.000229326
0.00183707
0.000245726
0.0015891
0.000259407
0.00132384
0.000270211
0.00104418
0.000278022
0.000753093
0.000282749
0.00045399
0.000149942
0.000284225
2.83276e-05
0.00290154
3.43408e-08
5.7048e-05
0.0028641
8.54249e-05
0.00279836
0.000112996
0.00270312
0.000139396
0.00257868
0.000164302
0.00242624
0.000187417
0.00224735
0.000208476
0.00204396
0.000227237
0.00181831
0.000243487
0.00157285
0.000257044
0.00131028
0.000267749
0.00103347
0.000275486
0.000745353
0.000280167
0.000449305
0.000148454
0.000281649
2.80655e-05
0.00287344
3.94119e-08
5.65251e-05
0.00283564
8.46445e-05
0.00277024
0.000111965
0.0026758
0.000138126
0.00255252
0.000162805
0.00240156
0.00018571
0.00222444
0.000206577
0.0020231
0.000225166
0.00179972
0.000241268
0.00155675
0.000254701
0.00129684
0.00026531
0.00102286
0.000272974
0.000737691
0.000277611
0.00044467
0.000146972
0.000279098
2.78057e-05
0.00284559
4.43409e-08
5.60069e-05
0.00280744
8.3871e-05
0.00274238
0.000110943
0.00264873
0.000136867
0.0025266
0.000161321
0.0023771
0.000184018
0.00220175
0.000204694
0.00200242
0.000223115
0.0017813
0.000239069
0.00154079
0.000252379
0.00128353
0.000262892
0.00101234
0.000270486
0.000730094
0.00027508
0.000440072
0.000145476
0.000276571
2.75482e-05
0.00281799
4.90936e-08
5.54934e-05
0.00277949
8.31044e-05
0.00271477
0.000109931
0.0026219
0.000135618
0.00250091
0.00015985
0.00235287
0.000182341
0.00217926
0.000202829
0.00198193
0.000221081
0.00176305
0.00023689
0.00152499
0.000250079
0.00127034
0.000260497
0.00100193
0.000268021
0.000722572
0.000272574
0.000435521
0.000143988
0.000274067
2.7293e-05
0.00279065
5.36036e-08
5.49844e-05
0.0027518
8.23447e-05
0.0026874
0.000108927
0.00259532
0.000134382
0.00247546
0.000158393
0.00232886
0.000180679
0.00215697
0.00020098
0.00196163
0.000219066
0.00174496
0.000234731
0.00150932
0.0002478
0.00125727
0.000258123
0.000991603
0.000265578
0.000715114
0.000270091
0.000431005
0.000142492
0.000271583
2.70403e-05
0.00276355
5.78544e-08
5.44801e-05
0.00272436
8.15918e-05
0.00266029
0.000107933
0.00256898
0.000133156
0.00245023
0.000156949
0.00230507
0.000179032
0.00213489
0.000199149
0.00194151
0.00021707
0.00172704
0.000232592
0.0014938
0.000245541
0.00124433
0.00025577
0.000981375
0.000263159
0.000707727
0.000267631
0.000426535
0.00014101
0.000269118
2.67898e-05
0.0027367
6.18385e-08
5.39803e-05
0.00269717
8.08457e-05
0.00263343
0.000106947
0.00254288
0.000131941
0.00242524
0.000155518
0.00228149
0.000177399
0.00211301
0.000197333
0.00192158
0.000215091
0.00170928
0.000230472
0.00147842
0.000243303
0.00123149
0.000253439
0.000971236
0.000260761
0.000700403
0.000265193
0.000422099
0.000139526
0.000266672
2.65417e-05
0.00271009
6.55536e-08
5.34851e-05
0.00267023
8.01063e-05
0.00260681
0.000105971
0.00251701
0.000130737
0.00240047
0.000154099
0.00225813
0.000175782
0.00209132
0.000195534
0.00190183
0.00021313
0.00169168
0.000228371
0.00146318
0.000241086
0.00121878
0.00025113
0.000961193
0.000258386
0.00069315
0.000262778
0.000417709
0.000138062
0.000264247
2.62959e-05
0.00268372
6.90223e-08
5.29943e-05
0.00264353
7.93735e-05
0.00258043
0.000105003
0.00249138
0.000129544
0.00237593
0.000152694
0.00223498
0.000174179
0.00206984
0.000193752
0.00188225
0.000211188
0.00167425
0.00022629
0.00144807
0.000238888
0.00120618
0.000248841
0.000951238
0.000256032
0.000685957
0.000260385
0.000413353
0.000136598
0.000261844
2.60523e-05
0.0026576
7.22729e-08
5.2508e-05
0.00261707
7.86474e-05
0.00255429
0.000104044
0.00246599
0.000128362
0.00235161
0.000151301
0.00221204
0.000172591
0.00204855
0.000191985
0.00186286
0.000209262
0.00165697
0.000224227
0.00143311
0.000236711
0.0011937
0.000246574
0.000941377
0.000253699
0.000678834
0.000258014
0.000409041
0.000135155
0.000259463
2.58111e-05
0.00263171
7.53444e-08
5.20261e-05
0.00259086
7.79278e-05
0.00252839
0.000103093
0.00244082
0.00012719
0.00232752
0.00014992
0.00218931
0.000171016
0.00202745
0.000190234
0.00184364
0.000207355
0.00163985
0.000222183
0.00141828
0.000234554
0.00118133
0.000244327
0.000931602
0.000251389
0.00067177
0.000255665
0.000404762
0.000133711
0.000257104
2.55721e-05
0.00260606
7.82873e-08
5.15486e-05
0.00256488
7.72147e-05
0.00250272
0.000102151
0.00241588
0.000126029
0.00230364
0.000148552
0.00216678
0.000169456
0.00200655
0.000188499
0.0018246
0.000205464
0.00162288
0.000220158
0.00140359
0.000232416
0.00116907
0.000242101
0.000921918
0.000249099
0.000664774
0.000253337
0.000400526
0.000132285
0.000254767
2.53354e-05
0.00258065
8.11535e-08
5.10755e-05
0.00253914
7.65081e-05
0.00247729
0.000101218
0.00239117
0.000124878
0.00227998
0.000147196
0.00214447
0.00016791
0.00198583
0.00018678
0.00180573
0.000203591
0.00160607
0.000218151
0.00138903
0.000230298
0.00115692
0.000239895
0.00091232
0.00024683
0.000657837
0.000251031
0.000396322
0.00013086
0.000252452
2.51008e-05
0.00255546
8.39959e-08
5.06066e-05
0.00251364
7.58078e-05
0.00245209
0.000100292
0.00236669
0.000123737
0.00225653
0.000145853
0.00212235
0.000166379
0.00196531
0.000185077
0.00178703
0.000201734
0.00158942
0.000216163
0.0013746
0.000228199
0.00114489
0.000237709
0.000902812
0.000244582
0.000650966
0.000248746
0.000392161
0.000129454
0.000250157
2.48684e-05
0.00253051
8.68636e-08
5.0142e-05
0.00248836
7.51138e-05
0.00242711
9.93756e-05
0.00234243
0.000122607
0.0022333
0.000144522
0.00210044
0.00016486
0.00194497
0.000183389
0.0017685
0.000199895
0.00157291
0.000214192
0.0013603
0.00022612
0.00113296
0.000235543
0.000893386
0.000242354
0.000644153
0.000246481
0.000388031
0.000128049
0.000247882
2.46381e-05
0.00250578
8.97958e-08
4.96816e-05
0.00246332
7.44261e-05
0.00240237
9.84671e-05
0.00231839
0.000121487
0.00221028
0.000143202
0.00207872
0.000163356
0.00192481
0.000181716
0.00175014
0.000198072
0.00155655
0.00021224
0.00134613
0.000224059
0.00112114
0.000233397
0.00088405
0.000240147
0.000637405
0.000244237
0.000383943
0.000126664
0.000245627
2.441e-05
0.00248128
9.28204e-08
4.92254e-05
0.0024385
7.37446e-05
0.00237785
9.75668e-05
0.00229456
0.000120378
0.00218747
0.000141895
0.0020572
0.000161866
0.00190484
0.000180059
0.00173195
0.000196266
0.00154035
0.000210305
0.00133209
0.000222017
0.00110943
0.000231271
0.000874794
0.00023796
0.000630715
0.000242014
0.000379887
0.000125282
0.000243392
2.41839e-05
0.002457
9.59524e-08
4.87733e-05
0.00241391
7.30693e-05
0.00235355
9.66745e-05
0.00227096
0.000119278
0.00216487
0.000140599
0.00203588
0.000160388
0.00188505
0.000178416
0.00171392
0.000194477
0.00152429
0.000208389
0.00131818
0.000219994
0.00109782
0.000229164
0.000865626
0.000235793
0.000624087
0.000239811
0.000375871
0.000123921
0.000241177
2.39599e-05
0.00243294
9.91914e-08
4.83253e-05
0.00238955
7.24e-05
0.00232948
9.57904e-05
0.00224757
0.000118188
0.00214247
0.000139316
0.00201475
0.000158925
0.00186545
0.000176789
0.00169606
0.000192704
0.00150837
0.000206489
0.0013044
0.00021799
0.00108632
0.000227077
0.000856537
0.000233646
0.000617516
0.000237628
0.000371887
0.000122564
0.000238982
2.37379e-05
0.0024091
1.02525e-07
4.78813e-05
0.00236541
7.17368e-05
0.00230562
9.49142e-05
0.00222439
0.000117108
0.00212028
0.000138043
0.00199382
0.000157474
0.00184601
0.000175176
0.00167835
0.000190947
0.0014926
0.000204607
0.00129074
0.000216003
0.00107493
0.000225008
0.000847534
0.000231519
0.000611007
0.000235466
0.000367943
0.000121226
0.000236808
2.35179e-05
0.00238547
1.05928e-07
4.74414e-05
0.00234148
7.10796e-05
0.00228199
9.4046e-05
0.00220143
0.000116038
0.00209829
0.000136783
0.00197307
0.000156037
0.00182676
0.000173578
0.00166081
0.000189205
0.00147697
0.000202742
0.0012772
0.000214035
0.00106363
0.000222959
0.000838609
0.000229411
0.000604553
0.000233323
0.000364029
0.00011989
0.000234654
2.32998e-05
0.00236206
1.09366e-07
4.70054e-05
0.00231778
7.04283e-05
0.00225856
9.31856e-05
0.00217867
0.000114977
0.00207649
0.000135534
0.00195252
0.000154613
0.00180768
0.000171995
0.00164343
0.00018748
0.00146149
0.000200894
0.00126379
0.000212085
0.00105244
0.000220928
0.000829767
0.000227322
0.000598161
0.000231199
0.000360154
0.000118575
0.00023252
2.30838e-05
0.00233887
1.12799e-07
4.65734e-05
0.00229429
6.97829e-05
0.00223535
9.2333e-05
0.00215612
0.000113926
0.0020549
0.000134296
0.00193215
0.000153202
0.00178877
0.000170426
0.00162621
0.000185771
0.00144614
0.000199063
0.00125049
0.000210153
0.00104135
0.000218916
0.000821003
0.000225253
0.000591823
0.000229095
0.000356309
0.000117261
0.000230405
2.28697e-05
0.00231588
1.16183e-07
4.61452e-05
0.00227101
6.91434e-05
0.00221236
9.14881e-05
0.00213377
0.000112885
0.0020335
0.000133069
0.00191196
0.000151803
0.00177004
0.000168871
0.00160914
0.000184077
0.00143094
0.000197249
0.00123732
0.000208238
0.00103036
0.000216922
0.00081232
0.000223202
0.000585545
0.00022701
0.000352504
0.000115968
0.000228308
2.26574e-05
0.0022931
1.19476e-07
4.5721e-05
0.00224795
6.85096e-05
0.00218957
9.06509e-05
0.00211163
0.000111853
0.0020123
0.000131854
0.00189196
0.000150418
0.00175148
0.00016733
0.00159223
0.000182398
0.00141587
0.000195451
0.00122427
0.000206341
0.00101947
0.000214946
0.000803713
0.00022117
0.000579319
0.000224944
0.000348727
0.000114677
0.000226231
2.24472e-05
0.00227053
1.22641e-07
4.53005e-05
0.00222509
6.78816e-05
0.00216699
8.98212e-05
0.00208969
0.00011083
0.00199129
0.000130649
0.00187214
0.000149045
0.00173308
0.000165804
0.00157547
0.000180735
0.00140094
0.000193669
0.00121133
0.000204461
0.00100868
0.000212989
0.000795187
0.000219157
0.000573153
0.000222897
0.000344989
0.000113406
0.000224173
2.22387e-05
0.00224817
1.25648e-07
4.48839e-05
0.00220245
6.72592e-05
0.00214461
8.89991e-05
0.00206795
0.000109817
0.00197048
0.000129456
0.0018525
0.000147684
0.00171485
0.000164291
0.00155886
0.000179087
0.00138614
0.000191904
0.00119852
0.000202598
0.000997986
0.000211049
0.000786735
0.000217162
0.000567039
0.000220869
0.000341279
0.000112138
0.000222133
2.20322e-05
0.00222601
1.28483e-07
4.4471e-05
0.00218001
6.66425e-05
0.00212244
8.81845e-05
0.00204641
0.000108813
0.00194985
0.000128273
0.00183304
0.000146336
0.00169679
0.000162792
0.00154241
0.000177454
0.00137148
0.000190155
0.00118582
0.000200753
0.00098739
0.000209127
0.000778361
0.000215185
0.000560984
0.000218859
0.000337607
0.000110889
0.000220112
2.18275e-05
0.00220405
1.31144e-07
4.40619e-05
0.00215778
6.60314e-05
0.00210047
8.73772e-05
0.00202506
0.000107818
0.00192941
0.000127101
0.00181376
0.000145
0.00167889
0.000161307
0.0015261
0.000175836
0.00135695
0.000188422
0.00117323
0.000198924
0.000976888
0.000207223
0.000770061
0.000213226
0.000554979
0.000216868
0.000333963
0.000109643
0.00021811
2.16247e-05
0.00218229
1.33645e-07
4.36564e-05
0.00213574
6.54258e-05
0.0020787
8.65773e-05
0.00200391
0.000106832
0.00190915
0.00012594
0.00179465
0.000143677
0.00166116
0.000159836
0.00150994
0.000174233
0.00134255
0.000186705
0.00116076
0.000197111
0.000966483
0.000205336
0.000761838
0.000211285
0.000549031
0.000214894
0.000330356
0.000108416
0.000216126
2.14237e-05
0.00216073
1.36011e-07
4.32547e-05
0.00211391
6.48258e-05
0.00205713
8.57847e-05
0.00198295
0.000105855
0.00188908
0.00012479
0.00177572
0.000142365
0.00164358
0.000158377
0.00149393
0.000172644
0.00132829
0.000185003
0.0011484
0.000195316
0.000956169
0.000203466
0.000753687
0.000209362
0.000543134
0.000212939
0.000326777
0.000107191
0.00021416
2.12246e-05
0.00213937
1.38281e-07
4.28566e-05
0.00209228
6.42311e-05
0.00203575
8.49992e-05
0.00196219
0.000104887
0.00186919
0.00012365
0.00175696
0.000141065
0.00162616
0.000156932
0.00147806
0.00017107
0.00131415
0.000183317
0.00113615
0.000193537
0.000945951
0.000201613
0.000745612
0.000207456
0.000537292
0.000211002
0.000323234
0.000105985
0.000212212
2.10273e-05
0.0021182
1.40498e-07
4.24621e-05
0.00207085
6.36419e-05
0.00201457
8.4221e-05
0.00194161
0.000103928
0.00184948
0.00012252
0.00173836
0.000139777
0.00160891
0.000155501
0.00146234
0.00016951
0.00130014
0.000181647
0.00112401
0.000191774
0.000935823
0.000199777
0.000737607
0.000205568
0.0005315
0.000209082
0.000319718
0.000104781
0.000210282
2.08317e-05
0.00209723
1.42706e-07
4.20712e-05
0.00204961
6.30581e-05
0.00199359
8.34498e-05
0.00192122
0.000102978
0.00182996
0.0001214
0.00171994
0.000138501
0.00159181
0.000154082
0.00144676
0.000167964
0.00128626
0.000179991
0.00111199
0.000190027
0.000925789
0.000197958
0.000729676
0.000203697
0.000525763
0.00020718
0.000316237
0.000103595
0.000208369
2.0638e-05
0.00207644
1.44944e-07
4.16838e-05
0.00202856
6.24795e-05
0.00197279
8.26856e-05
0.00190101
0.000102036
0.00181061
0.000120291
0.00170169
0.000137237
0.00157486
0.000152676
0.00143132
0.000166433
0.0012725
0.000178351
0.00110007
0.000188296
0.000915843
0.000196156
0.000721815
0.000201843
0.000520075
0.000205295
0.000312784
0.000102412
0.000206474
2.0446e-05
0.00205585
1.47246e-07
4.13e-05
0.00200771
6.19063e-05
0.00195219
8.19284e-05
0.00188099
0.000101103
0.00179143
0.000119192
0.0016836
0.000135984
0.00155807
0.000151283
0.00141602
0.000164915
0.00125887
0.000176725
0.00108826
0.000186581
0.000905989
0.00019437
0.000714027
0.000200006
0.00051444
0.000203427
0.000309365
0.000101247
0.000204596
2.02557e-05
0.00203545
1.49631e-07
4.09197e-05
0.00198704
6.13382e-05
0.00193177
8.11781e-05
0.00186115
0.000100178
0.00177243
0.000118103
0.00166567
0.000134742
0.00154143
0.000149903
0.00140086
0.000163412
0.00124536
0.000175115
0.00107656
0.000184881
0.000896222
0.0001926
0.000706306
0.000198186
0.000508853
0.000201577
0.000305973
0.000100085
0.000202735
2.00673e-05
0.00201523
1.52108e-07
4.05429e-05
0.00196657
6.07754e-05
0.00191153
8.04346e-05
0.00184149
9.92617e-05
0.00175361
0.000117024
0.00164791
0.000133512
0.00152494
0.000148535
0.00138583
0.000161922
0.00123198
0.000173519
0.00106496
0.000183197
0.000886545
0.000190847
0.000698658
0.000196383
0.000503319
0.000199743
0.000302615
9.89404e-05
0.000200892
1.98805e-05
0.00199519
1.54671e-07
4.01695e-05
0.00194628
6.02177e-05
0.00189149
7.96979e-05
0.00182201
9.83538e-05
0.00173495
0.000115955
0.00163031
0.000132293
0.0015086
0.00014718
0.00137095
0.000160445
0.00121871
0.000171938
0.00105347
0.000181529
0.000876954
0.00018911
0.000691076
0.000194596
0.000497831
0.000197926
0.000299282
9.77985e-05
0.000199065
1.96955e-05
0.00197534
1.57306e-07
3.97995e-05
0.00192617
5.96651e-05
0.00187162
7.8968e-05
0.00180271
9.74542e-05
0.00171646
0.000114895
0.00161287
0.000131085
0.00149241
0.000145838
0.00135619
0.000158983
0.00120557
0.000170371
0.00104208
0.000179876
0.000867451
0.000187388
0.000683564
0.000192825
0.000492396
0.000196126
0.000295984
9.66736e-05
0.000197255
1.95121e-05
0.00195567
1.59987e-07
3.94329e-05
0.00190625
5.91175e-05
0.00185194
7.82447e-05
0.00178358
9.65628e-05
0.00169815
0.000113845
0.00159559
0.000129889
0.00147637
0.000144507
0.00134158
0.000157533
0.00119254
0.000168819
0.00103079
0.000178238
0.000858031
0.000185683
0.000676118
0.000191071
0.000487006
0.000194342
0.000292711
9.55514e-05
0.000195461
1.93305e-05
0.00193617
1.62687e-07
3.90697e-05
0.00188651
5.8575e-05
0.00183243
7.7528e-05
0.00176463
9.56795e-05
0.00167999
0.000112805
0.00157846
0.000128703
0.00146047
0.000143189
0.00132709
0.000156097
0.00117963
0.000167281
0.00101961
0.000176615
0.000848699
0.000183993
0.000668741
0.000189333
0.000481668
0.000192575
0.000289471
9.44459e-05
0.000193684
1.91505e-05
0.00191686
1.65375e-07
3.87098e-05
0.00186695
5.80374e-05
0.0018131
7.68179e-05
0.00174584
9.48043e-05
0.00166201
0.000111774
0.00156149
0.000127528
0.00144472
0.000141883
0.00131274
0.000154674
0.00116684
0.000165757
0.00100853
0.000175007
0.000839449
0.000182318
0.000661428
0.000187611
0.000476374
0.000190824
0.000286255
9.33431e-05
0.000191924
1.89722e-05
0.00189772
1.6802e-07
3.83532e-05
0.00184757
5.75047e-05
0.00179395
7.61143e-05
0.00172724
9.39371e-05
0.00164419
0.000110753
0.00154467
0.000126364
0.00142911
0.000140588
0.00129851
0.000153264
0.00115416
0.000164247
0.000997544
0.000173413
0.000830284
0.000180659
0.000654183
0.000185904
0.000471131
0.000189089
0.000283072
9.22566e-05
0.000190179
1.87955e-05
0.00187875
1.70595e-07
3.79999e-05
0.00182837
5.69769e-05
0.00177497
7.54171e-05
0.00170879
9.30779e-05
0.00162652
0.000109741
0.00152801
0.00012521
0.00141364
0.000139306
0.00128442
0.000151867
0.0011416
0.000162751
0.000986659
0.000171834
0.000821199
0.000179015
0.000647001
0.000184213
0.000465932
0.00018737
0.000279914
9.11729e-05
0.000188451
1.86205e-05
0.00185996
1.73079e-07
3.76499e-05
0.00180934
5.64539e-05
0.00175617
7.47263e-05
0.00169052
9.22265e-05
0.00160902
0.000108738
0.0015115
0.000124067
0.00139831
0.000138035
0.00127045
0.000150483
0.00112916
0.000161268
0.000975874
0.00017027
0.000812199
0.000177387
0.000639886
0.000182538
0.000460782
0.000185667
0.000276787
9.01052e-05
0.000186738
1.84471e-05
0.00184134
1.75452e-07
3.7303e-05
0.00179048
5.59358e-05
0.00173754
7.40418e-05
0.00167242
9.13829e-05
0.00159168
0.000107745
0.00149514
0.000122934
0.00138312
0.000136776
0.00125661
0.000149111
0.00111682
0.000159799
0.000965186
0.00016872
0.000803277
0.000175773
0.000632832
0.000180878
0.000455676
0.000183979
0.000273685
8.90401e-05
0.000185041
1.82752e-05
0.00182288
1.77706e-07
3.69593e-05
0.0017718
5.54223e-05
0.00171908
7.33636e-05
0.00165448
9.0547e-05
0.0015745
0.00010676
0.00147892
0.000121812
0.00136807
0.000135529
0.00124289
0.000147752
0.0011046
0.000158344
0.000954595
0.000167184
0.000794438
0.000174174
0.000625844
0.000179233
0.000450617
0.000182307
0.000270614
8.79907e-05
0.00018336
1.8105e-05
0.0018046
1.79835e-07
3.66188e-05
0.00175329
5.49136e-05
0.00170078
7.26915e-05
0.0016367
8.97187e-05
0.00155747
0.000105785
0.00146286
0.0001207
0.00135315
0.000134293
0.0012293
0.000146406
0.00109248
0.000156902
0.000944098
0.000165663
0.000785676
0.000172589
0.000618917
0.000177604
0.000445602
0.00018065
0.000267566
8.69438e-05
0.000181694
1.79363e-05
0.00178648
1.81846e-07
3.62814e-05
0.00173494
5.44095e-05
0.00168265
7.20257e-05
0.00161908
8.88981e-05
0.0015406
0.000104818
0.00144694
0.000119599
0.00133837
0.000133068
0.00121583
0.000145072
0.00108048
0.000155473
0.000933697
0.000164155
0.000776995
0.00017102
0.000612053
0.000175989
0.000440634
0.000179008
0.000264549
8.59124e-05
0.000180043
1.77692e-05
0.00176853
1.8375e-07
3.5947e-05
0.00171676
5.39101e-05
0.00166469
7.13659e-05
0.00160163
8.8085e-05
0.00152388
0.000103861
0.00143116
0.000118507
0.00132373
0.000131854
0.00120248
0.00014375
0.00106858
0.000154057
0.000923389
0.000162661
0.000768391
0.000169464
0.000605249
0.00017439
0.000435707
0.000177382
0.000261555
8.48834e-05
0.000178408
1.76036e-05
0.00175074
1.85566e-07
3.56158e-05
0.00169875
5.34152e-05
0.00164689
7.07122e-05
0.00158433
8.72793e-05
0.00150731
0.000102912
0.00141553
0.000117426
0.00130921
0.000130652
0.00118925
0.00014244
0.0010568
0.000152655
0.000913175
0.000161181
0.000759865
0.000167923
0.000598509
0.000172805
0.000430827
0.00017577
0.000258591
8.38697e-05
0.000176788
1.74395e-05
0.00173311
1.8732e-07
3.52875e-05
0.0016809
5.29248e-05
0.00162925
7.00645e-05
0.00156719
8.6481e-05
0.0014909
0.000101972
0.00140004
0.000116354
0.00129483
0.000129461
0.00117615
0.000141142
0.00104512
0.000151265
0.000903051
0.000159715
0.000751414
0.000166396
0.000591826
0.000171234
0.000425988
0.000174174
0.00025565
8.28583e-05
0.000175182
1.72769e-05
0.00171565
1.89041e-07
3.49623e-05
0.00166322
5.2439e-05
0.00161178
6.94227e-05
0.00155021
8.56901e-05
0.00147463
0.00010104
0.00138469
0.000115292
0.00128058
0.00012828
0.00116316
0.000139856
0.00103354
0.000149888
0.00089302
0.000158262
0.000743042
0.000164884
0.000585206
0.000169678
0.000421195
0.000172592
0.000252738
8.18619e-05
0.000173591
1.71159e-05
0.00169834
1.90759e-07
3.46401e-05
0.00164569
5.19576e-05
0.00159446
6.87868e-05
0.00153338
8.49063e-05
0.00145851
0.000100117
0.00136948
0.00011424
0.00126646
0.000127111
0.00115029
0.000138583
0.00102207
0.000148524
0.000883078
0.000156822
0.000734742
0.000163385
0.000578643
0.000168137
0.000416442
0.000171024
0.000249849
8.08678e-05
0.000172015
1.69563e-05
0.00168119
1.92502e-07
3.43208e-05
0.00162833
5.14806e-05
0.0015773
6.81567e-05
0.0015167
8.41298e-05
0.00144254
9.92027e-05
0.00135441
0.000113198
0.00125246
0.000125952
0.00113753
0.00013732
0.0010107
0.000147172
0.000873227
0.000155396
0.000726519
0.0001619
0.000572141
0.000166609
0.000411734
0.000169471
0.000246988
7.98884e-05
0.000170454
1.67981e-05
0.0016642
1.94295e-07
3.40044e-05
0.00161112
5.1008e-05
0.0015603
6.75324e-05
0.00150018
8.33605e-05
0.00142671
9.82966e-05
0.00133947
0.000112165
0.00123859
0.000124804
0.00112489
0.00013607
0.000999436
0.000145833
0.000863464
0.000153983
0.000718368
0.000160428
0.000565694
0.000165096
0.000407066
0.000167933
0.00024415
7.89112e-05
0.000168907
1.66415e-05
0.00164736
1.96153e-07
3.3691e-05
0.00159407
5.05397e-05
0.00154345
6.69138e-05
0.0014838
8.25981e-05
0.00141103
9.73988e-05
0.00132467
0.000111142
0.00122485
0.000123667
0.00111237
0.000134831
0.000988273
0.000144506
0.000853789
0.000152583
0.000710292
0.00015897
0.000559308
0.000163596
0.000402441
0.000166408
0.00024134
7.79485e-05
0.000167374
1.64862e-05
0.00163068
1.98086e-07
3.33804e-05
0.00157718
5.00757e-05
0.00152675
6.63009e-05
0.00146758
8.18428e-05
0.00139548
9.65093e-05
0.00131
0.000110128
0.00121123
0.00012254
0.00109996
0.000133603
0.000977209
0.000143191
0.000844201
0.000151196
0.000702287
0.000157526
0.000552977
0.000162111
0.000397855
0.000164898
0.000238551
7.69879e-05
0.000165855
1.63324e-05
0.00161414
2.00093e-07
3.30727e-05
0.00156044
4.9616e-05
0.00151021
6.56937e-05
0.0014515
8.10945e-05
0.00138008
9.5628e-05
0.00129547
0.000109123
0.00119774
0.000121423
0.00108766
0.000132386
0.000966246
0.000141888
0.000834699
0.000149821
0.000694355
0.000156095
0.000546704
0.000160639
0.000393313
0.000163401
0.000235791
7.60415e-05
0.000164351
1.618e-05
0.00159776
2.02164e-07
3.27677e-05
0.00154385
4.91605e-05
0.00149382
6.5092e-05
0.00143557
8.0353e-05
0.00136482
9.47548e-05
0.00128107
0.000108128
0.00118436
0.000120317
0.00107547
0.000131181
0.000955381
0.000140598
0.000825282
0.000148459
0.000686493
0.000154677
0.000540486
0.000159181
0.000388809
0.000161919
0.000233051
7.5097e-05
0.00016286
1.60289e-05
0.00158153
2.04283e-07
3.24656e-05
0.00152741
4.87092e-05
0.00147757
6.44959e-05
0.00141978
7.96183e-05
0.0013497
9.38896e-05
0.0012668
0.000107142
0.00117111
0.00011922
0.00106339
0.000129987
0.000944615
0.000139319
0.000815951
0.00014711
0.000678703
0.000153272
0.000534325
0.000157736
0.000384347
0.00016045
0.000230339
7.41666e-05
0.000161383
1.58793e-05
0.00156544
2.06427e-07
3.21663e-05
0.00151113
4.8262e-05
0.00146148
6.39052e-05
0.00140414
7.88904e-05
0.00133471
9.30324e-05
0.00125265
0.000106165
0.00115798
0.000118134
0.00105142
0.000128804
0.000933945
0.000138052
0.000806703
0.000145773
0.000670981
0.00015188
0.000528217
0.000156304
0.000379922
0.000158994
0.000227647
7.3238e-05
0.00015992
1.57311e-05
0.0015495
2.08569e-07
3.18697e-05
0.00149499
4.7819e-05
0.00144553
6.332e-05
0.00138864
7.81692e-05
0.00131987
9.21831e-05
0.00123864
0.000105197
0.00114497
0.000117058
0.00103956
0.000127632
0.000923372
0.000136797
0.000797539
0.000144449
0.000663329
0.000150502
0.000522166
0.000154886
0.000375539
0.000157552
0.000224983
7.23232e-05
0.00015847
1.55842e-05
0.00153371
2.10683e-07
3.15759e-05
0.001479
4.738e-05
0.00142972
6.27401e-05
0.00137328
7.74546e-05
0.00130515
9.13416e-05
0.00122475
0.000104238
0.00113207
0.000115992
0.0010278
0.000126471
0.000912893
0.000135553
0.000788455
0.000143137
0.000655745
0.000149135
0.000516166
0.000153481
0.000371192
0.000156124
0.000222338
7.141e-05
0.000157034
1.54386e-05
0.00151806
2.12743e-07
3.12848e-05
0.00146315
4.69451e-05
0.00141406
6.21656e-05
0.00135806
7.67466e-05
0.00129057
9.05079e-05
0.00121099
0.000103287
0.00111929
0.000114936
0.00101616
0.00012532
0.000902509
0.000134321
0.000779455
0.000141837
0.000648231
0.000147782
0.000510222
0.000152089
0.000366887
0.000154708
0.000219721
7.05105e-05
0.000155611
1.52944e-05
0.00150255
2.14725e-07
3.09963e-05
0.00144745
4.65141e-05
0.00139854
6.15964e-05
0.00134297
7.60452e-05
0.00127612
8.96819e-05
0.00119736
0.000102346
0.00110663
0.000113889
0.00100461
0.00012418
0.000892218
0.0001331
0.000770534
0.000140549
0.000640781
0.000146441
0.00050433
0.000150709
0.000362617
0.000153306
0.000217122
6.96126e-05
0.000154201
1.51515e-05
0.00148718
2.16614e-07
3.07105e-05
0.00143189
4.60872e-05
0.00138317
6.10325e-05
0.00132803
7.53502e-05
0.0012618
8.88634e-05
0.00118384
0.000101413
0.00109408
0.000112853
0.000993173
0.000123051
0.000882021
0.000131891
0.000761695
0.000139273
0.000633401
0.000145112
0.000498492
0.000149343
0.000358388
0.000151917
0.00021455
6.8728e-05
0.000152805
1.501e-05
0.00147195
2.184e-07
3.04273e-05
0.00141647
4.56641e-05
0.00136793
6.04737e-05
0.00131322
7.46616e-05
0.00124762
8.80526e-05
0.00117045
0.000100489
0.00108164
0.000111825
0.000981836
0.000121932
0.000871913
0.000130693
0.000752933
0.000138009
0.000626084
0.000143796
0.000492703
0.000147989
0.000354194
0.00015054
0.000211997
6.7845e-05
0.000151421
1.48698e-05
0.00145686
2.20082e-07
3.01468e-05
0.0014012
4.5245e-05
0.00135283
5.99201e-05
0.00129854
7.39793e-05
0.00123356
8.72492e-05
0.00115718
9.95731e-05
0.00106932
0.000110808
0.000970602
0.000120823
0.000861898
0.000129506
0.000744252
0.000136756
0.000618835
0.000142492
0.000486969
0.000146648
0.000350039
0.000149177
0.00020947
6.69751e-05
0.00015005
1.47308e-05
0.00144191
2.21665e-07
2.98688e-05
0.00138606
4.48297e-05
0.00133787
5.93716e-05
0.001284
7.33034e-05
0.00121963
8.64532e-05
0.00114403
9.86659e-05
0.00105711
0.000109799
0.000959468
0.000119725
0.000851972
0.000128329
0.000735647
0.000135515
0.000611649
0.0001412
0.000481283
0.000145319
0.000345919
0.000147826
0.000206962
6.61065e-05
0.000148692
1.45932e-05
0.00142709
2.23163e-07
2.95934e-05
0.00137106
4.44183e-05
0.00132305
5.88281e-05
0.00126959
7.26337e-05
0.00120582
8.56646e-05
0.001131
9.77671e-05
0.001045
0.0001088
0.000948436
0.000118637
0.000842136
0.000127164
0.00072712
0.000134286
0.000604528
0.00013992
0.00047565
0.000144003
0.000341837
0.000146487
0.000204479
6.52509e-05
0.000147346
1.44568e-05
0.00141241
2.24597e-07
2.93205e-05
0.00135619
4.40107e-05
0.00130836
5.82897e-05
0.00125531
7.19702e-05
0.00119214
8.48833e-05
0.00111809
9.68766e-05
0.00103301
0.00010781
0.000937502
0.000117559
0.000832388
0.00012601
0.000718668
0.000133068
0.00059747
0.000138651
0.000470065
0.000142698
0.000337789
0.000145161
0.000202014
6.43965e-05
0.000146013
1.43217e-05
0.00139786
2.25987e-07
2.90501e-05
0.00134147
4.36068e-05
0.0012938
5.77562e-05
0.00124116
7.13128e-05
0.00117858
8.41092e-05
0.00110529
9.59944e-05
0.00102113
0.00010683
0.000926667
0.000116491
0.000822728
0.000124866
0.000710294
0.000131861
0.000590476
0.000137395
0.000464532
0.000141406
0.00033378
0.000143848
0.000199574
6.35549e-05
0.000144693
1.41878e-05
0.00138345
2.27359e-07
2.87823e-05
0.00132687
4.32066e-05
0.00127938
5.72277e-05
0.00122714
7.06615e-05
0.00116515
8.33423e-05
0.00109261
9.51203e-05
0.00100935
0.000105858
0.000915928
0.000115432
0.000813153
0.000123733
0.000701993