/*--------------------------------*- C++ -*----------------------------------*\
  =========                 |
  \\      /  F ield         | OpenFOAM: The Open Source CFD Toolbox
   \\    /   O peration     | Website:  https://openfoam.org
    \\  /    A nd           | Version:  6.0
     \\/     M anipulation  |
\*---------------------------------------------------------------------------*/
FoamFile
{
    version     2.0;
    format      ascii;
    class       surfaceScalarField;
    location    "3";
    object      phi;
}
// * * * * * * * * * * * * * * * * * * * * * * * * * * * * * * * * * * * * * //

dimensions      [0 3 -1 0 0 0 0];

internalField   nonuniform List<scalar> 
29696
(
2.98083e-05
0.00388594
1.63604e-09
5.98447e-05
0.00381846
8.91123e-05
0.00368584
0.000116964
0.0034901
0.000142858
0.00323477
0.000166316
0.0029244
0.000186918
0.00256432
0.000204299
0.00216072
0.000218146
0.00172071
0.00022822
0.00125155
0.000234319
0.000763597
0.000273891
0.000237997
2.96199e-05
0.00385632
1.62558e-09
5.94676e-05
0.00378862
8.85505e-05
0.00365676
0.000116226
0.00346244
0.000141953
0.00320907
0.00016526
0.00290112
0.000185729
0.00254389
0.000202998
0.00214349
0.000216759
0.001707
0.00022675
0.00124162
0.000233124
0.000757306
0.0002701
0.000237075
2.94334e-05
0.00382689
1.16719e-09
5.90933e-05
0.00375896
8.79927e-05
0.00362786
0.000115492
0.00343494
0.000141054
0.00318352
0.000164211
0.00287797
0.000184548
0.00252356
0.000201707
0.00212632
0.000215384
0.00169332
0.000225297
0.00123169
0.000231691
0.000750893
0.000266225
0.000235513
2.92483e-05
0.00379764
4.76285e-10
5.87216e-05
0.00372949
8.74383e-05
0.00359915
0.000114762
0.00340763
0.00014016
0.00315813
0.000163168
0.00285498
0.000183375
0.00250337
0.000200423
0.0021093
0.000214017
0.00167975
0.000223861
0.00122189
0.000230174
0.000744637
0.000262748
0.000233767
2.90647e-05
0.00376857
-3.52675e-10
5.83522e-05
0.0037002
8.68872e-05
0.00357061
0.000114036
0.00338048
0.000139271
0.0031329
0.000162131
0.00283211
0.000182208
0.00248329
0.000199147
0.00209235
0.000212659
0.00166623
0.000222441
0.00121209
0.000228657
0.000738397
0.000259299
0.000232045
2.88822e-05
0.00373969
-1.27003e-09
5.79849e-05
0.0036711
8.6339e-05
0.00354226
0.000113314
0.00335351
0.000138388
0.00310783
0.0001611
0.00280941
0.000181049
0.00246335
0.00019788
0.00207554
0.000211308
0.00165283
0.000221036
0.00120239
0.000227169
0.00073231
0.000256172
0.000230389
2.87008e-05
0.00371099
-2.26396e-09
5.76195e-05
0.00364219
8.57936e-05
0.00351408
0.000112597
0.0033267
0.000137509
0.00308292
0.000160076
0.00278684
0.000179897
0.00244353
0.000196621
0.0020588
0.000209967
0.00163947
0.000219644
0.0011927
0.00022571
0.000726217
0.000253035
0.000228783
2.85204e-05
0.00368248
-3.31661e-09
5.72561e-05
0.00361345
8.52511e-05
0.00348609
0.000111883
0.00330007
0.000136636
0.00305817
0.000159058
0.00276442
0.000178753
0.00242384
0.000195371
0.0020422
0.000208634
0.00162623
0.000218261
0.0011831
0.000224272
0.000720246
0.000250173
0.000227212
2.8341e-05
0.00365414
-4.39215e-09
5.68946e-05
0.0035849
8.47115e-05
0.00345827
0.000111173
0.00327361
0.000135767
0.00303357
0.000158046
0.00274214
0.000177615
0.00240427
0.000194128
0.00202568
0.000207309
0.00161304
0.000216887
0.0011735
0.000222848
0.000714258
0.000247287
0.00022567
2.81626e-05
0.00362598
-5.46288e-09
5.65351e-05
0.00355653
8.41748e-05
0.00343063
0.000110467
0.00324732
0.000134904
0.00300914
0.000157041
0.00272001
0.000176485
0.00238483
0.000192894
0.00200928
0.000205992
0.00159995
0.00021552
0.001164
0.000221436
0.000708377
0.000244634
0.000224159
2.7985e-05
0.003598
-6.50531e-09
5.61773e-05
0.00352834
8.36409e-05
0.00340317
0.000109765
0.00322119
0.000134046
0.00298486
0.000156041
0.00269801
0.000175362
0.00236551
0.000191667
0.00199297
0.000204684
0.00158693
0.000214161
0.0011545
0.000220035
0.000702476
0.000241931
0.000222673
2.78083e-05
0.0035702
-7.49889e-09
5.58214e-05
0.00350032
8.31099e-05
0.00337588
0.000109067
0.00319524
0.000133193
0.00296074
0.000155048
0.00267616
0.000174247
0.00234632
0.000190449
0.00197677
0.000203384
0.001574
0.00021281
0.0011451
0.000218644
0.000696674
0.000239426
0.00022121
2.76325e-05
0.00354258
-8.41068e-09
5.54674e-05
0.00347249
8.25819e-05
0.00334876
0.000108373
0.00316945
0.000132345
0.00293676
0.000154061
0.00265444
0.000173138
0.00232724
0.000189239
0.00196067
0.000202093
0.00156114
0.000211466
0.00113571
0.000217262
0.000690851
0.00023686
0.000219764
2.74576e-05
0.00351513
-9.20316e-09
5.51152e-05
0.00344483
8.20567e-05
0.00332182
0.000107683
0.00314382
0.000131502
0.00291295
0.000153081
0.00263286
0.000172037
0.00230829
0.000188036
0.00194468
0.00020081
0.00154838
0.00021013
0.00112641
0.000215889
0.000685122
0.000234474
0.000218332
2.72835e-05
0.00348786
-9.83695e-09
5.47649e-05
0.00341735
8.15346e-05
0.00329505
0.000106998
0.00311836
0.000130665
0.00288928
0.000152106
0.00261142
0.000170943
0.00228945
0.000186842
0.00192877
0.000199536
0.00153568
0.000208802
0.00111713
0.000214525
0.000679372
0.000232022
0.000216913
2.71102e-05
0.00346076
-1.02709e-08
5.44165e-05
0.00339004
8.10155e-05
0.00326845
0.000106316
0.00309306
0.000129833
0.00286577
0.000151138
0.00259012
0.000169856
0.00227073
0.000185655
0.00191298
0.00019827
0.00152307
0.000207482
0.00110794
0.000213168
0.000673714
0.000229736
0.000215508
2.69378e-05
0.00343383
-1.04684e-08
5.40699e-05
0.00336291
8.04993e-05
0.00324202
0.000105639
0.00306792
0.000129006
0.0028424
0.000150176
0.00256894
0.000168776
0.00225213
0.000184476
0.00189727
0.000197012
0.00151053
0.000206171
0.00109876
0.000211821
0.000668037
0.000227378
0.000214115
2.67662e-05
0.00340707
-1.03971e-08
5.37253e-05
0.00333595
7.99862e-05
0.00321576
0.000104966
0.00304294
0.000128184
0.00281918
0.000149221
0.00254791
0.000167703
0.00223365
0.000183304
0.00188168
0.000195762
0.00149808
0.000204867
0.00108968
0.000210482
0.00066245
0.000225176
0.000212735
2.65956e-05
0.00338049
-1.0035e-08
5.33827e-05
0.00330917
7.94762e-05
0.00318967
0.000104297
0.00301812
0.000127368
0.00279611
0.000148271
0.002527
0.000166636
0.00221529
0.00018214
0.00186617
0.000194521
0.00148569
0.000203571
0.00108061
0.000209151
0.000656844
0.000222898
0.000211365
2.64258e-05
0.00335407
-9.36728e-09
5.3042e-05
0.00328255
7.89692e-05
0.00316374
0.000103632
0.00299346
0.000126557
0.00277319
0.000147328
0.00250624
0.000165577
0.00219704
0.000180984
0.00185077
0.000193287
0.0014734
0.000202283
0.00107163
0.000207828
0.000651326
0.000220768
0.000210007
2.62569e-05
0.00332782
-8.38861e-09
5.27033e-05
0.0032561
7.84653e-05
0.00313798
0.000102971
0.00296895
0.000125751
0.00275041
0.000146391
0.00248559
0.000164525
0.0021789
0.000179835
0.00183545
0.000192062
0.00146116
0.000201004
0.00106268
0.000206513
0.00064579
0.00021856
0.00020866
2.60888e-05
0.00330174
-7.09883e-09
5.23667e-05
0.00322983
7.79645e-05
0.00311238
0.000102315
0.0029446
0.00012495
0.00272777
0.00014546
0.00246509
0.00016348
0.00216089
0.000178694
0.00182025
0.000190844
0.00144902
0.000199732
0.00105381
0.000205207
0.00064034
0.000216491
0.000207323
2.59217e-05
0.00327582
-5.50611e-09
5.2032e-05
0.00320372
7.74669e-05
0.00308695
0.000101662
0.0029204
0.000124155
0.00270528
0.000144535
0.0024447
0.000162441
0.00214298
0.00017756
0.00180512
0.000189634
0.00143694
0.000198468
0.00104496
0.000203908
0.000634874
0.000214343
0.000205996
2.57555e-05
0.00325007
-3.62301e-09
5.16994e-05
0.00317777
7.69723e-05
0.00306168
0.000101014
0.00289636
0.000123364
0.00268293
0.000143616
0.00242445
0.000161409
0.00212519
0.000176433
0.00179011
0.000188432
0.00142495
0.000197212
0.0010362
0.000202618
0.000629492
0.000212327
0.000204679
2.55901e-05
0.00322448
-1.46897e-09
5.13687e-05
0.00315199
7.64809e-05
0.00303656
0.00010037
0.00287247
0.000122579
0.00266072
0.000142703
0.00240433
0.000160384
0.0021075
0.000175314
0.00177517
0.000187238
0.00141302
0.000195963
0.00102746
0.000201336
0.000624095
0.000210233
0.000203372
2.54256e-05
0.00319905
9.33085e-10
5.10401e-05
0.00312638
7.59926e-05
0.00301161
9.97306e-05
0.00284873
0.000121799
0.00263866
0.000141795
0.00238433
0.000159366
0.00208994
0.000174202
0.00176034
0.000186051
0.00140118
0.000194723
0.0010188
0.000200061
0.00061878
0.000208265
0.000202073
2.5262e-05
0.00317379
3.55406e-09
5.07135e-05
0.00310093
7.55073e-05
0.00298682
9.90949e-05
0.00282515
0.000121023
0.00261673
0.000140894
0.00236446
0.000158354
0.00207247
0.000173097
0.00174559
0.000184872
0.0013894
0.00019349
0.00101017
0.000198795
0.000613451
0.000206221
0.000200784
2.50993e-05
0.00314868
6.36184e-09
5.03888e-05
0.00307564
7.50252e-05
0.00296218
9.84633e-05
0.00280171
0.000120253
0.00259494
0.000139998
0.00234472
0.000157349
0.00205513
0.000171999
0.00173095
0.000183701
0.00137771
0.000192265
0.00100162
0.000197536
0.000608201
0.000204297
0.000199503
2.49376e-05
0.00312374
9.31905e-09
5.00662e-05
0.00305051
7.45461e-05
0.0029377
9.78357e-05
0.00277842
0.000119488
0.00257329
0.000139109
0.0023251
0.00015635
0.00203789
0.000170908
0.00171639
0.000182537
0.00136607
0.000191047
0.000993098
0.000196286
0.000602941
0.000202299
0.000198231
2.47767e-05
0.00309895
1.23862e-08
4.97456e-05
0.00302554
7.40701e-05
0.00291338
9.72122e-05
0.00275528
0.000118728
0.00255177
0.000138225
0.0023056
0.000155357
0.00202076
0.000169825
0.00170193
0.00018138
0.00135452
0.000189838
0.000984655
0.000195042
0.000597757
0.000200415
0.000196967
2.46168e-05
0.00307431
1.55203e-08
4.94269e-05
0.00300073
7.35971e-05
0.00288921
9.65927e-05
0.00273228
0.000117972
0.00253039
0.000137347
0.00228622
0.000154371
0.00200373
0.000168748
0.00168754
0.000180231
0.00134303
0.000188635
0.000976238
0.000193807
0.000592564
0.000198459
0.000195712
2.44578e-05
0.00304984
1.86781e-08
4.91103e-05
0.00297608
7.31271e-05
0.00286519
9.59772e-05
0.00270943
0.000117222
0.00250915
0.000136474
0.00226698
0.000153391
0.00198682
0.000167678
0.00167326
0.000179089
0.00133163
0.000187441
0.0009679
0.00019258
0.000587445
0.000196612
0.000194466
2.42998e-05
0.00302552
2.18158e-08
4.87957e-05
0.00295158
7.26601e-05
0.00284133
9.53656e-05
0.00268673
0.000116476
0.00248804
0.000135607
0.00224784
0.000152418
0.00197
0.000166615
0.00165906
0.000177954
0.00132029
0.000186254
0.000959589
0.00019136
0.000582318
0.000194697
0.000193228
2.41427e-05
0.00300135
2.4892e-08
4.8483e-05
0.00292724
7.21961e-05
0.00281762
9.47579e-05
0.00266417
0.000115735
0.00246706
0.000134745
0.00222884
0.000151451
0.0019533
0.000165559
0.00164496
0.000176827
0.00130903
0.000185074
0.000951355
0.000190147
0.000577264
0.000192884
0.000191998
2.39866e-05
0.00297733
2.78681e-08
4.81724e-05
0.00290306
7.17351e-05
0.00279405
9.41542e-05
0.00264175
0.000114999
0.00244622
0.00013389
0.00220994
0.00015049
0.0019367
0.000164509
0.00163094
0.000175707
0.00129782
0.000183902
0.000943149
0.000188943
0.000572204
0.000191006
0.000190776
2.38315e-05
0.00295347
3.07105e-08
4.78637e-05
0.00287903
7.1277e-05
0.00277064
9.35543e-05
0.00261947
0.000114268
0.00242551
0.000133039
0.00219117
0.000149535
0.00192021
0.000163466
0.00161701
0.000174594
0.0012867
0.000182737
0.000935018
0.000187746
0.000567213
0.000189225
0.000189562
2.36773e-05
0.00292976
3.33909e-08
4.7557e-05
0.00285515
7.08219e-05
0.00274738
9.29583e-05
0.00259733
0.000113541
0.00240493
0.000132194
0.00217252
0.000148586
0.00190381
0.00016243
0.00160316
0.000173488
0.00127564
0.00018158
0.000926915
0.000186556
0.000562218
0.000187383
0.000188357
2.35242e-05
0.0029062
3.58878e-08
4.72523e-05
0.00283142
7.03697e-05
0.00272426
9.23661e-05
0.00257534
0.000112819
0.00238447
0.000131355
0.00215399
0.000147644
0.00188753
0.000161401
0.00158941
0.000172389
0.00126466
0.00018043
0.000918886
0.000185374
0.00055729
0.000185631
0.000187159
2.3372e-05
0.00288279
3.81863e-08
4.69495e-05
0.00280784
6.99204e-05
0.00270129
9.17777e-05
0.00255348
0.000112101
0.00236415
0.00013052
0.00213556
0.000146707
0.00187134
0.000160378
0.00157574
0.000171297
0.00125373
0.000179287
0.000910886
0.000184199
0.00055236
0.000183822
0.000185969
2.32209e-05
0.00285953
4.02782e-08
4.66487e-05
0.00278441
6.94741e-05
0.00267847
9.11932e-05
0.00253176
0.000111389
0.00234396
0.000129692
0.00211726
0.000145777
0.00185526
0.000159361
0.00156216
0.000170212
0.00124289
0.000178151
0.000902957
0.000183032
0.000547494
0.000182099
0.000184787
2.30708e-05
0.00283642
4.21613e-08
4.63499e-05
0.00276114
6.90306e-05
0.00265579
9.06124e-05
0.00251018
0.00011068
0.00232389
0.000128868
0.00209907
0.000144852
0.00183927
0.000158351
0.00154865
0.000169134
0.0012321
0.000177023
0.000895058
0.000181872
0.000542627
0.000180322
0.000183612
2.29217e-05
0.00281345
4.38384e-08
4.6053e-05
0.002738
6.859e-05
0.00263325
9.00354e-05
0.00248874
0.000109977
0.00230395
0.00012805
0.002081
0.000143933
0.00182339
0.000157348
0.00153525
0.000168062
0.0012214
0.000175901
0.00088723
0.00018072
0.000537824
0.000178626
0.000182445
2.27736e-05
0.00279063
4.53164e-08
4.57581e-05
0.00271502
6.81523e-05
0.00261086
8.94621e-05
0.00246743
0.000109278
0.00228413
0.000127237
0.00206304
0.00014302
0.00180761
0.000156351
0.00152191
0.000166998
0.00121074
0.000174787
0.000879431
0.000179574
0.00053302
0.00017688
0.000181286
2.26265e-05
0.00276796
4.66048e-08
4.54651e-05
0.00269218
6.77175e-05
0.0025886
8.88925e-05
0.00244625
0.000108583
0.00226445
0.000126429
0.0020452
0.000142113
0.00179193
0.00015536
0.00150867
0.00016594
0.00120017
0.00017368
0.000871701
0.000178436
0.000528277
0.000175209
0.000180135
2.24805e-05
0.00274543
4.77149e-08
4.51742e-05
0.00266949
6.72855e-05
0.00256649
8.83267e-05
0.00242521
0.000107893
0.00224488
0.000125627
0.00202746
0.000141212
0.00177634
0.000154375
0.0014955
0.000164889
0.00118965
0.00017258
0.000864001
0.000177306
0.000523535
0.000173492
0.00017899
2.23356e-05
0.00272304
4.86583e-08
4.48851e-05
0.00264694
6.68563e-05
0.00254452
8.77645e-05
0.00240431
0.000107207
0.00222544
0.000124829
0.00200984
0.000140317
0.00176086
0.000153397
0.00148243
0.000163844
0.00117921
0.000171486
0.000856368
0.000176182
0.000518853
0.000171846
0.000177854
2.21916e-05
0.0027008
4.9447e-08
4.4598e-05
0.00262453
6.643e-05
0.00252269
8.72059e-05
0.00238353
0.000106526
0.00220612
0.000124037
0.00199233
0.000139427
0.00174546
0.000152425
0.00146942
0.000162806
0.00116882
0.0001704
0.000848766
0.000175065
0.000514172
0.000170156
0.000176724
2.20487e-05
0.0026787
5.00925e-08
4.43128e-05
0.00260227
6.60064e-05
0.002501
8.6651e-05
0.00236289
0.000105849
0.00218692
0.00012325
0.00197493
0.000138543
0.00173017
0.000151459
0.00145651
0.000161775
0.00115851
0.00016932
0.000841229
0.000173956
0.000509549
0.000168534
0.000175602
2.19068e-05
0.00265675
5.06063e-08
4.40295e-05
0.00258015
6.55857e-05
0.00247944
8.60997e-05
0.00234237
0.000105177
0.00216785
0.000122468
0.00195764
0.000137664
0.00171497
0.000150499
0.00144367
0.00016075
0.00114826
0.000168248
0.000833724
0.000172853
0.000504929
0.00016687
0.000174487
2.1766e-05
0.00263493
5.09995e-08
4.37482e-05
0.00255817
6.51677e-05
0.00245803
8.5552e-05
0.00232199
0.000104508
0.00214889
0.000121691
0.00194046
0.000136791
0.00169988
0.000149545
0.00143092
0.000159732
0.00113807
0.000167182
0.000826282
0.000171758
0.000500364
0.000165271
0.00017338
2.16261e-05
0.00261325
5.12842e-08
4.34687e-05
0.00253633
6.47525e-05
0.00243674
8.50078e-05
0.00230174
0.000103845
0.00213005
0.000120918
0.00192339
0.000135924
0.00168487
0.000148598
0.00141825
0.00015872
0.00112795
0.000166123
0.000818871
0.000170669
0.000495804
0.000163633
0.000172279
2.14873e-05
0.00259171
5.14727e-08
4.31911e-05
0.00251462
6.434e-05
0.0024156
8.44672e-05
0.00228161
0.000103185
0.00211134
0.000120151
0.00190642
0.000135062
0.00166996
0.000147656
0.00140566
0.000157714
0.00111789
0.00016507
0.000811523
0.000169588
0.000491297
0.000162056
0.000171186
2.13494e-05
0.00257031
5.15789e-08
4.29153e-05
0.00249306
6.39301e-05
0.00239458
8.393e-05
0.00226161
0.000102529
0.00209274
0.000119388
0.00188956
0.000134205
0.00165514
0.00014672
0.00139314
0.000156715
0.00110789
0.000164024
0.000804207
0.000168513
0.000486795
0.000160443
0.000170099
2.12125e-05
0.00254905
5.16177e-08
4.26414e-05
0.00247163
6.3523e-05
0.0023737
8.33963e-05
0.00224174
0.000101878
0.00207426
0.000118631
0.00187281
0.000133354
0.00164042
0.00014579
0.00138071
0.000155722
0.00109797
0.000162985
0.000796952
0.000167445
0.000482345
0.000158888
0.00016902
2.10766e-05
0.00252792
5.16054e-08
4.23694e-05
0.00245034
6.31185e-05
0.00235295
8.28661e-05
0.00222199
0.000101231
0.00205589
0.000117878
0.00185616
0.000132508
0.00162579
0.000144866
0.00136835
0.000154736
0.00108809
0.000161952
0.000789728
0.000166384
0.000477901
0.000157298
0.000167947
2.09417e-05
0.00250693
5.15593e-08
4.20991e-05
0.00242918
6.27167e-05
0.00233234
8.23392e-05
0.00220237
0.000100588
0.00203765
0.00011713
0.00183962
0.000131668
0.00161125
0.000143948
0.00135607
0.000153755
0.00107829
0.000160926
0.000782564
0.000165329
0.000473508
0.000155764
0.000166882
2.08077e-05
0.00248607
5.14977e-08
4.18307e-05
0.00240816
6.23174e-05
0.00231185
8.18157e-05
0.00218287
9.99493e-05
0.00201951
0.000116386
0.00182319
0.000130833
0.0015968
0.000143035
0.00134386
0.000152781
0.00106854
0.000159906
0.000775432
0.000164281
0.000469121
0.000154198
0.000165823
2.06746e-05
0.00246534
5.14393e-08
4.1564e-05
0.00238727
6.19208e-05
0.0022915
8.12956e-05
0.0021635
9.93145e-05
0.00200149
0.000115648
0.00180685
0.000130003
0.00158245
0.000142129
0.00133174
0.000151813
0.00105886
0.000158893
0.000768358
0.00016324
0.000464783
0.000152684
0.000164771
2.05425e-05
0.00244475
5.14026e-08
4.1299e-05
0.00236652
6.15267e-05
0.00227127
8.07787e-05
0.00214425
9.86837e-05
0.00198359
0.000114914
0.00179062
0.000129178
0.00156818
0.000141228
0.00131969
0.000150851
0.00104923
0.000157887
0.000761316
0.000162206
0.000460452
0.00015114
0.000163726
2.04112e-05
0.00242428
5.14061e-08
4.10358e-05
0.00234589
6.11351e-05
0.00225117
8.02652e-05
0.00212512
9.80568e-05
0.0019658
0.000114184
0.0017745
0.000128359
0.00155401
0.000140332
0.00130772
0.000149895
0.00103967
0.000156886
0.000754331
0.000161178
0.000456169
0.000149645
0.000162688
2.02809e-05
0.00240395
5.14667e-08
4.07743e-05
0.0023254
6.0746e-05
0.0022312
7.97549e-05
0.00210611
9.74339e-05
0.00194812
0.00011346
0.00175847
0.000127545
0.00153992
0.000139443
0.00129582
0.000148945
0.00103017
0.000155892
0.000747378
0.000160157
0.000451893
0.000148123
0.000161656
2.01513e-05
0.00238375
5.1601e-08
4.05145e-05
0.00230504
6.03594e-05
0.00221136
7.92478e-05
0.00208722
9.6815e-05
0.00193055
0.000112739
0.00174255
0.000126736
0.00152593
0.000138559
0.001284
0.000148002
0.00102073
0.000154905
0.000740481
0.000159142
0.000447664
0.000146648
0.000160631
2.00227e-05
0.00236367
5.18227e-08
4.02563e-05
0.00228481
5.99752e-05
0.00219164
7.87439e-05
0.00206845
9.61999e-05
0.0019131
0.000112024
0.00172672
0.000125932
0.00151202
0.00013768
0.00127225
0.000147064
0.00101134
0.000153923
0.000733616
0.000158134
0.000443443
0.000145146
0.000159613
1.98948e-05
0.00234373
5.21447e-08
3.99998e-05
0.0022647
5.95935e-05
0.00217205
7.82432e-05
0.00204981
9.55887e-05
0.00189575
0.000111312
0.001711
0.000125133
0.0014982
0.000136807
0.00126058
0.000146132
0.00100202
0.000152948
0.000726806
0.000157132
0.000439267
0.000143689
0.000158601
1.97678e-05
0.00232391
5.25762e-08
3.97449e-05
0.00224473
5.92142e-05
0.00215258
7.77456e-05
0.00203127
9.49813e-05
0.00187852
0.000110606
0.00169537
0.000124339
0.00148447
0.00013594
0.00124898
0.000145206
0.000992752
0.000151979
0.000720027
0.000156137
0.000435099
0.000142207
0.000157596
1.96416e-05
0.00230421
5.3125e-08
3.94917e-05
0.00222488
5.88372e-05
0.00213323
7.72512e-05
0.00201286
9.43778e-05
0.00186139
0.000109904
0.00167985
0.00012355
0.00147082
0.000135078
0.00123745
0.000144286
0.000983548
0.000151017
0.000713302
0.000155148
0.000430976
0.000140769
0.000156598
1.95161e-05
0.00228464
5.37947e-08
3.924e-05
0.00220516
5.84627e-05
0.00211401
7.67599e-05
0.00199456
9.37781e-05
0.00184437
0.000109206
0.00166442
0.000122766
0.00145726
0.000134222
0.00122599
0.000143372
0.000974395
0.00015006
0.000706609
0.000154166
0.000426861
0.000139306
0.000155606
1.93915e-05
0.0022652
5.45873e-08
3.89899e-05
0.00218556
5.80905e-05
0.00209491
7.62716e-05
0.00197638
9.31821e-05
0.00182746
0.000108512
0.00164909
0.000121987
0.00144379
0.000133371
0.00121461
0.000142464
0.000965307
0.00014911
0.000699968
0.000153189
0.000422788
0.000137885
0.000154621
1.92675e-05
0.00224587
5.55004e-08
3.87413e-05
0.00216609
5.77206e-05
0.00207593
7.57864e-05
0.00195832
9.25899e-05
0.00181066
0.000107823
0.00163386
0.000121214
0.0014304
0.000132526
0.0012033
0.000141561
0.000956269
0.000148166
0.000693359
0.00015222
0.000418725
0.000136441
0.000153642
1.91444e-05
0.00222667
5.65298e-08
3.84944e-05
0.00214674
5.7353e-05
0.00205707
7.53043e-05
0.00194037
9.20014e-05
0.00179396
0.000107139
0.00161872
0.000120445
0.00141709
0.000131686
0.00119206
0.000140664
0.000947294
0.000147228
0.000686802
0.000151256
0.000414704
0.000135037
0.000152669
1.90219e-05
0.00220759
5.76675e-08
3.82489e-05
0.00212752
5.69877e-05
0.00203833
7.48251e-05
0.00192253
9.14166e-05
0.00177737
0.000106458
0.00160368
0.00011968
0.00140387
0.000130851
0.00118089
0.000139773
0.000938369
0.000146296
0.000680276
0.000150299
0.000410692
0.000133612
0.000151703
1.89002e-05
0.00218863
5.89041e-08
3.80049e-05
0.00210841
5.66247e-05
0.00201972
7.4349e-05
0.00190481
9.08355e-05
0.00176089
0.000105782
0.00158874
0.000118921
0.00139073
0.000130022
0.00116979
0.000138888
0.000929507
0.00014537
0.0006738
0.000149348
0.00040672
0.000132223
0.000150743
1.87792e-05
0.00216979
6.0227e-08
3.77625e-05
0.00208943
5.62639e-05
0.00200121
7.38759e-05
0.0018872
9.0258e-05
0.0017445
0.000105111
0.00157388
0.000118167
0.00137767
0.000129198
0.00115876
0.000138009
0.000920694
0.00014445
0.000667355
0.000148403
0.000402758
0.000130817
0.000149789
1.86589e-05
0.00215107
6.1623e-08
3.75215e-05
0.00207057
5.59054e-05
0.00198283
7.34057e-05
0.0018697
8.96843e-05
0.00172823
0.000104443
0.00155913
0.000117417
0.0013647
0.000128379
0.0011478
0.000137135
0.000911942
0.000143536
0.00066096
0.000147464
0.000398835
0.000129444
0.000148842
1.85393e-05
0.00213247
6.30767e-08
3.72821e-05
0.00205183
5.55492e-05
0.00196456
7.29385e-05
0.00185231
8.91141e-05
0.00171205
0.00010378
0.00154446
0.000116672
0.00135181
0.000127565
0.00113691
0.000136267
0.000903239
0.000142627
0.000654597
0.000146532
0.000394923
0.000128055
0.0001479
1.84204e-05
0.00211398
6.45734e-08
3.70441e-05
0.00203321
5.51951e-05
0.00194641
7.24743e-05
0.00183503
8.85476e-05
0.00169598
0.000103121
0.00152989
0.000115932
0.001339
0.000126757
0.00112609
0.000135404
0.000894596
0.000141725
0.000648281
0.000145605
0.000391048
0.000126698
0.000146965
1.83022e-05
0.00209561
6.60968e-08
3.68075e-05
0.0020147
5.48433e-05
0.00192838
7.20129e-05
0.00181786
8.79847e-05
0.00168001
0.000102466
0.00151541
0.000115197
0.00132627
0.000125954
0.00111533
0.000134547
0.000886002
0.000140829
0.000641997
0.000144685
0.000387185
0.000125327
0.000146036
1.81847e-05
0.00207736
6.76322e-08
3.65724e-05
0.00199632
5.44937e-05
0.00191046
7.15545e-05
0.0018008
8.74253e-05
0.00166414
0.000101816
0.00150102
0.000114467
0.00131362
0.000125156
0.00110465
0.000133696
0.000877467
0.000139938
0.000635759
0.00014377
0.000383358
0.000123985
0.000145114
1.80679e-05
0.00205922
6.91647e-08
3.63388e-05
0.00197805
5.41462e-05
0.00189265
7.1099e-05
0.00178385
8.68696e-05
0.00164837
0.000101169
0.00148672
0.000113741
0.00130105
0.000124364
0.00109402
0.00013285
0.00086898
0.000139054
0.000629553
0.000142862
0.000379543
0.000122631
0.000144197
1.79517e-05
0.0020412
7.06813e-08
3.61066e-05
0.00195989
5.3801e-05
0.00187496
7.06464e-05
0.00176701
8.63173e-05
0.0016327
0.000100527
0.00147251
0.00011302
0.00128856
0.000123576
0.00108347
0.00013201
0.000860551
0.000138175
0.000623393
0.000141959
0.000375762
0.000121305
0.000143286
1.78362e-05
0.00202329
7.21696e-08
3.58758e-05
0.00194186
5.34579e-05
0.00185738
7.01966e-05
0.00175027
8.57687e-05
0.00161713
9.98889e-05
0.00145839
0.000112304
0.00127614
0.000122794
0.00107298
0.000131175
0.00085217
0.000137301
0.000617264
0.000141062
0.000371995
0.000119968
0.000142381
1.77214e-05
0.0020055
7.36197e-08
3.56465e-05
0.00192393
5.3117e-05
0.00183991
6.97498e-05
0.00173364
8.52235e-05
0.00160165
9.9255e-05
0.00144436
0.000111592
0.00126381
0.000122017
0.00106256
0.000130345
0.000843845
0.000136434
0.00061118
0.000140172
0.00036826
0.000118656
0.000141482
1.76073e-05
0.00198781
7.50224e-08
3.54186e-05
0.00190612
5.27782e-05
0.00182255
6.93057e-05
0.00171711
8.46818e-05
0.00158628
9.86251e-05
0.00143042
0.000110885
0.00125155
0.000121244
0.0010522
0.000129521
0.000835568
0.000135572
0.000605127
0.000139287
0.000364539
0.000117336
0.00014059
1.74939e-05
0.00197024
7.63712e-08
3.51921e-05
0.00188843
5.24416e-05
0.0018053
6.88645e-05
0.00170069
8.41437e-05
0.001571
9.79993e-05
0.00141657
0.000110182
0.00123937
0.000120477
0.00104191
0.000128703
0.000827347
0.000134716
0.000599118
0.000138408
0.00036085
0.000116038
0.000139703
1.73812e-05
0.00195278
7.76603e-08
3.4967e-05
0.00187084
5.21071e-05
0.00178816
6.84262e-05
0.00168437
8.3609e-05
0.00155582
9.73776e-05
0.0014028
0.000109484
0.00122726
0.000119715
0.00103168
0.000127889
0.000819173
0.000133865
0.000593141
0.000137534
0.000357175
0.000114734
0.000138821
1.72691e-05
0.00193544
7.88865e-08
3.47433e-05
0.00185337
5.17747e-05
0.00177113
6.79906e-05
0.00166815
8.30777e-05
0.00154073
9.67599e-05
0.00138912
0.000108791
0.00121524
0.000118958
0.00102152
0.000127081
0.000811054
0.00013302
0.000587205
0.000136667
0.00035353
0.000113451
0.000137946
1.71577e-05
0.0019182
8.00472e-08
3.4521e-05
0.00183601
5.14444e-05
0.0017542
6.75579e-05
0.00165204
8.25499e-05
0.00152574
9.61463e-05
0.00137552
0.000108102
0.00120328
0.000118206
0.00101142
0.000126279
0.000802981
0.000132181
0.000581301
0.000135805
0.000349901
0.000112163
0.000137077
1.7047e-05
0.00190107
8.11421e-08
3.43001e-05
0.00181876
5.11163e-05
0.00173739
6.71279e-05
0.00163603
8.20256e-05
0.00151085
9.55366e-05
0.00136201
0.000107417
0.00119141
0.000117458
0.00100138
0.000125481
0.000794962
0.000131347
0.000575438
0.000134948
0.000346301
0.000110894
0.000136213
1.6937e-05
0.00188405
8.21708e-08
3.40806e-05
0.00180162
5.07902e-05
0.00172068
6.67008e-05
0.00162012
8.15046e-05
0.00149605
9.49309e-05
0.00134859
0.000106737
0.0011796
0.000116716
0.000991401
0.000124689
0.00078699
0.000130519
0.000569608
0.000134098
0.000342717
0.000109623
0.000135355
1.68277e-05
0.00186714
8.31352e-08
3.38625e-05
0.00178458
5.04663e-05
0.00170407
6.62764e-05
0.00160431
8.0987e-05
0.00148134
9.43292e-05
0.00133525
0.000106062
0.00116787
0.000115978
0.000981489
0.000123902
0.00077907
0.000129696
0.000563817
0.000133253
0.000339159
0.000108367
0.000134502
1.67191e-05
0.00185033
8.40369e-08
3.36458e-05
0.00176766
5.01444e-05
0.00168758
6.58547e-05
0.0015886
8.04728e-05
0.00146672
9.37314e-05
0.00132199
0.000105391
0.00115621
0.000115246
0.000971636
0.00012312
0.000771196
0.000128878
0.000558059
0.000132413
0.000335619
0.000107112
0.000133655
1.66112e-05
0.00183364
8.48794e-08
3.34305e-05
0.00175084
4.98247e-05
0.00167118
6.54358e-05
0.00157299
7.9962e-05
0.0014522
9.31376e-05
0.00130882
0.000104724
0.00114463
0.000114518
0.000961846
0.000122344
0.000763373
0.000128066
0.000552338
0.00013158
0.000332105
0.00010587
0.000132814
1.6504e-05
0.00181705
8.56656e-08
3.32165e-05
0.00173413
4.9507e-05
0.00165489
6.50196e-05
0.00155748
7.94545e-05
0.00143776
9.25476e-05
0.00129573
0.000104062
0.00113312
0.000113795
0.000952115
0.000121572
0.000755597
0.000127259
0.000546651
0.000130751
0.000328609
0.000104631
0.000131979
1.63975e-05
0.00180056
8.64003e-08
3.3004e-05
0.00171752
4.91913e-05
0.00163871
6.46062e-05
0.00154207
7.89504e-05
0.00142342
9.19615e-05
0.00128272
0.000103404
0.00112168
0.000113076
0.000942446
0.000120806
0.000747871
0.000126458
0.000541001
0.000129928
0.000325136
0.000103402
0.000131148
1.62916e-05
0.00178418
8.70876e-08
3.27928e-05
0.00170102
4.88777e-05
0.00162262
6.41954e-05
0.00152675
7.84495e-05
0.00140917
9.13793e-05
0.00126979
0.000102751
0.00111031
0.000112363
0.000932836
0.000120044
0.00074019
0.000125661
0.000535383
0.000129111
0.000321683
0.000102178
0.000130324
1.61865e-05
0.00176791
8.77334e-08
3.2583e-05
0.00168463
4.85662e-05
0.00160664
6.37874e-05
0.00151153
7.79519e-05
0.00139501
9.08009e-05
0.00125695
0.000102101
0.00109901
0.000111654
0.000923286
0.000119288
0.000732559
0.00012487
0.000529802
0.000128299
0.000318253
0.000100964
0.000129505
1.60821e-05
0.00175174
8.83428e-08
3.23746e-05
0.00166834
4.82567e-05
0.00159076
6.3382e-05
0.00149641
7.74577e-05
0.00138093
9.02263e-05
0.00124418
0.000101456
0.00108778
0.00011095
0.000913795
0.000118536
0.000724973
0.000124085
0.000524254
0.000127492
0.000314842
9.97558e-05
0.000128691
1.59784e-05
0.00173567
8.89227e-08
3.21675e-05
0.00165215
4.79493e-05
0.00157498
6.29793e-05
0.00148138
7.69666e-05
0.00136695
8.96556e-05
0.00123149
0.000100816
0.00107663
0.00011025
0.000904364
0.00011779
0.000717435
0.000123304
0.000518741
0.000126691
0.000311453
9.85552e-05
0.000127883
1.58753e-05
0.00171971
8.94791e-08
3.19618e-05
0.00163607
4.76438e-05
0.00155929
6.25792e-05
0.00146645
7.64788e-05
0.00135305
8.90886e-05
0.00121889
0.000100179
0.00106554
0.000109555
0.00089499
0.000117048
0.000709943
0.000122529
0.000513261
0.000125895
0.000308084
9.73619e-05
0.00012708
1.5773e-05
0.00170384
9.00196e-08
3.17575e-05
0.00162008
4.73404e-05
0.00154371
6.21818e-05
0.00145161
7.59943e-05
0.00133924
8.85253e-05
0.00120636
9.9547e-05
0.00105452
0.000108865
0.000885674
0.000116312
0.000702497
0.000121759
0.000507815
0.000125104
0.000304735
9.6175e-05
0.000126282
1.56714e-05
0.00168808
9.05507e-08
3.15545e-05
0.0016042
4.7039e-05
0.00152823
6.17871e-05
0.00143686
7.55129e-05
0.00132551
8.79658e-05
0.00119391
9.8919e-05
0.00104357
0.000108179
0.000876416
0.00011558
0.000695097
0.000120994
0.000502402
0.000124319
0.000301408
9.49968e-05
0.00012549
1.55704e-05
0.00167242
9.10804e-08
3.13529e-05
0.00158842
4.67396e-05
0.00151284
6.13949e-05
0.00142221
7.50347e-05
0.00131188
8.74099e-05
0.00118154