/*--------------------------------*- C++ -*----------------------------------*\
  =========                 |
  \\      /  F ield         | OpenFOAM: The Open Source CFD Toolbox
   \\    /   O peration     | Website:  https://openfoam.org
    \\  /    A nd           | Version:  6.0
     \\/     M anipulation  |
\*---------------------------------------------------------------------------*/
FoamFile
{
    version     2.0;
    format      ascii;
    class       volScalarField;
    location    "300";
    object      p;
}
// * * * * * * * * * * * * * * * * * * * * * * * * * * * * * * * * * * * * * //

dimensions      [0 2 -2 0 0 0 0];

internalField   nonuniform List<scalar> 
9800
(
126.267
124.626
123.455
122.565
121.836
121.198
120.608
120.041
119.485
118.932
118.362
117.774
117.172
116.554
115.921
115.272
114.611
113.943
113.277
112.629
112.024
111.508
111.171
111.211
111.63
112.233
112.928
113.667
114.425
115.186
115.939
116.673
117.391
118.089
118.767
119.422
120.054
120.663
121.249
121.812
122.351
122.866
123.357
123.824
124.266
124.683
125.074
125.438
125.775
126.084
126.362
126.61
126.824
127.003
127.144
127.246
127.305
127.319
127.285
127.201
127.065
126.877
126.643
126.375
126.096
125.85
125.72
125.842
126.453
127.936
130.946
136.441
146.244
161.484
186.108
203.417
215.359
220.334
224.426
229.868
235.555
240.795
245.757
250.631
255.333
259.769
263.958
268.015
272.019
276.006
279.954
283.838
287.635
291.345
294.981
298.569
302.129
305.679
309.2
312.736
191.597
191.924
192.067
192.153
192.224
192.299
192.383
192.472
192.561
192.65
192.735
192.809
192.87
192.918
192.954
192.981
193.002
193.023
193.051
193.096
193.166
193.257
193.333
193.405
193.478
193.545
193.633
193.746
193.874
194.008
194.14
194.263
194.367
194.451
194.513
194.55
194.561
194.545
194.501
194.428
194.326
194.194
194.032
193.839
193.615
193.357
193.067
192.741
192.381
191.984
191.55
191.076
190.563
190.007
189.408
188.765
188.076
187.34
186.557
185.726
184.847
183.924
182.957
181.945
180.899
179.821
178.722
177.604
176.475
175.333
174.198
173.077
172.218
171.754
174.358
181.342
191.114
202.225
211.39
218.829
225.596
232.004
237.906
243.229
248.051
252.514
256.719
260.74
264.602
268.313
271.851
275.199
278.342
281.281
284.015
286.542
288.842
290.883
292.57
293.912
127.548
129.314
130.789
132.055
133.176
134.206
135.181
136.127
137.058
137.987
138.937
139.915
140.916
141.94
142.984
144.046
145.119
146.193
147.249
148.259
149.184
149.965
150.485
150.575
150.225
149.601
148.821
147.949
147.026
146.079
145.126
144.186
143.265
142.363
141.481
140.621
139.784
138.971
138.181
137.414
136.671
135.951
135.254
134.581
133.933
133.31
132.713
132.144
131.604
131.096
130.623
130.187
129.794
129.448
129.156
128.926
128.766
128.688
128.705
128.835
129.097
129.517
130.128
130.968
132.089
133.548
135.421
137.802
140.807
144.575
149.271
155.071
162.164
170.597
180.429
190.595
200.072
208.389
215.541
221.928
227.797
233.128
237.889
242.218
246.286
250.202
253.982
257.618
261.082
264.356
267.418
270.269
272.912
275.356
277.597
279.619
281.393
282.875
284.038
284.75
133.333
132.357
131.655
131.13
130.725
130.402
130.137
129.917
129.734
129.581
129.453
129.352
129.275
129.224
129.195
129.187
129.194
129.212
129.235
129.258
129.275
129.298
129.349
129.43
129.537
129.671
129.81
129.946
130.082
130.223
130.375
130.543
130.734
130.949
131.191
131.461
131.762
132.093
132.457
132.853
133.283
133.747
134.247
134.784
135.359
135.974
136.632
137.335
138.086
138.888
139.747
140.665
141.649
142.705
143.839
145.061
146.378
147.802
149.344
151.018
152.838
154.82
156.98
159.335
161.908
164.714
167.772
171.091
174.676
178.52
182.602
186.886
191.312
195.818
200.334
204.844
209.372
213.954
218.529
222.981
227.216
231.234
235.078
238.817
242.471
246.038
249.473
252.735
255.779
258.597
261.192
263.584
265.785
267.8
269.621
271.23
272.606
273.724
274.589
275.1
152.86
152.343
151.812
151.295
150.8
150.331
149.887
149.465
149.065
148.683
148.301
147.919
147.538
147.159
146.781
146.405
146.033
145.67
145.324
145.008
144.738
144.54
144.457
144.543
144.804
145.19
145.653
146.167
146.712
147.278
147.854
148.429
149
149.571
150.14
150.709
151.277
151.846
152.416
152.99
153.567
154.151
154.743
155.345
155.959
156.587
157.232
157.897
158.584
159.296
160.038
160.812
161.623
162.475
163.374
164.325
165.333
166.406
167.55
168.771
170.08
171.482
172.987
174.601
176.339
178.209
180.223
182.393
184.732
187.254
189.974
192.912
196.081
199.497
203.153
207.029
211.045
215.099
219.085
222.953
226.693
230.329
233.863
237.29
240.58
243.712
246.661
249.417
251.978
254.36
256.575
258.64
260.556
262.321
263.925
265.358
266.611
267.678
268.584
269.236
157.647
157.588
157.52
157.449
157.378
157.311
157.251
157.202
157.167
157.148
157.136
157.131
157.139
157.157
157.186
157.226
157.277
157.34
157.416
157.505
157.607
157.718
157.831
157.946
158.064
158.184
158.312
158.453
158.606
158.77
158.946
159.127
159.313
159.509
159.715
159.931
160.159
160.401
160.657
160.93
161.222
161.535
161.87
162.233
162.623
163.045
163.501
163.994
164.528
165.107
165.734
166.413
167.15
167.948
168.812
169.749
170.764
171.862
173.051
174.337
175.729
177.231
178.852
180.597
182.478
184.5
186.67
188.992
191.466
194.094
196.867
199.776
202.798
205.912
209.08
212.27
215.443
218.581
221.672
224.718
227.709
230.639
233.482
236.223
238.84
241.33
243.686
245.92
248.033
250.037
251.927
253.704
255.358
256.883
258.271
259.519
260.627
261.59
262.437
263.072
162.877
162.449
162.081
161.768
161.504
161.285
161.107
160.969
160.869
160.806
160.769
160.761
160.783
160.834
160.912
161.016
161.142
161.289
161.452
161.626
161.804
161.979
162.139
162.272
162.376
162.462
162.542
162.625
162.716
162.822
162.947
163.091
163.256
163.448
163.669
163.919
164.2
164.514
164.86
165.242
165.659
166.113
166.606
167.139
167.714
168.332
168.995
169.705
170.463
171.273
172.136
173.055
174.031
175.067
176.167
177.331
178.564
179.868
181.245
182.697
184.228
185.837
187.524
189.291
191.138
193.066
195.072
197.152
199.303
201.52
203.793
206.119
208.487
210.892
213.324
215.781
218.253
220.737
223.217
225.682
228.111
230.491
232.804
235.046
237.209
239.295
241.303
243.238
245.092
246.864
248.545
250.131
251.614
252.995
254.271
255.445
256.516
257.482
258.368
259.083
169.923
169.445
168.999
168.588
168.211
167.87
167.563
167.292
167.058
166.86
166.685
166.535
166.413
166.318
166.25
166.207
166.188
166.193
166.221
166.271
166.342
166.437
166.555
166.698
166.864
167.055
167.268
167.504
167.761
168.041
168.343
168.667
169.009
169.377
169.771
170.193
170.64
171.117
171.621
172.155
172.718
173.313
173.938
174.597
175.289
176.015
176.777
177.575
178.411
179.286
180.201
181.158
182.158
183.202
184.291
185.428
186.612
187.846
189.131
190.468
191.857
193.299
194.793
196.338
197.936
199.588
201.292
203.048
204.852
206.703
208.598
210.534
212.506
214.51
216.538
218.585
220.639
222.691
224.728
226.743
228.724
230.668
232.569
234.428
236.237
238
239.707
241.358
242.943
244.462
245.906
247.277
248.571
249.79
250.932
251.997
252.985
253.887
254.729
255.426
176.279
175.843
175.438
175.064
174.722
174.411
174.131
173.881
173.664
173.479
173.313
173.168
173.048
172.952
172.88
172.832
172.808
172.807
172.829
172.877
172.949
173.048
173.175
173.333
173.522
173.741
173.986
174.257
174.552
174.871
175.212
175.572
175.948
176.347
176.768
177.214
177.682
178.175
178.692
179.235
179.803
180.4
181.023
181.675
182.356
183.068
183.811
184.586
185.394
186.237
187.114
188.028
188.978
189.967
190.994
192.061
193.167
194.315
195.504
196.735
198.006
199.32
200.671
202.061
203.489
204.957
206.46
207.999
209.569
211.17
212.796
214.445
216.111
217.792
219.48
221.172
222.861
224.545
226.216
227.874
229.512
231.131
232.724
234.291
235.824
237.322
238.778
240.19
241.553
242.867
244.128
245.337
246.491
247.589
248.627
249.606
250.522
251.373
252.179
252.867
181.65
181.265
180.908
180.581
180.285
180.02
179.785
179.582
179.412
179.276
179.159
179.064
178.995
178.951
178.933
178.94
178.971
179.025
179.102
179.201
179.322
179.463
179.624
179.805
180.005
180.225
180.465
180.727
181.011
181.318
181.647
181.994
182.359
182.748
183.163
183.602
184.066
184.556
185.071
185.614
186.182
186.778
187.4
188.051
188.729
189.437
190.173
190.94
191.734
192.56
193.416
194.303
195.219
196.168
197.146
198.157
199.197
200.269
201.371
202.504
203.665
204.855
206.07
207.309
208.573
209.863
211.174
212.508
213.859
215.229
216.612
218.009
219.414
220.828
222.245
223.665
225.082
226.498
227.906
229.306
230.692
232.065
233.416
234.747
236.05
237.327
238.571
239.783
240.959
242.101
243.202
244.265
245.284
246.261
247.192
248.079
248.921
249.717
250.486
251.161
187.691
187.271
186.885
186.533
186.215
185.931
185.681
185.465
185.285
185.141
185.018
184.919
184.848
184.804
184.788
184.798
184.833
184.894
184.979
185.088
185.22
185.375
185.551
185.749
185.968
186.209
186.472
186.757
187.064
187.394
187.747
188.118
188.505
188.916
189.35
189.809
190.29
190.795
191.323
191.875
192.449
193.048
193.669
194.315
194.983
195.676
196.391
197.131
197.893
198.681
199.49
200.324
201.18
202.061
202.964
203.89
204.838
205.809
206.8
207.814
208.847
209.9
210.968
212.053
213.153
214.271
215.403
216.551
217.709
218.88
220.058
221.247
222.439
223.637
224.836
226.038
227.235
228.43
229.618
230.798
231.966
233.123
234.262
235.386
236.489
237.572
238.632
239.669
240.678
241.662
242.616
243.541
244.434
245.297
246.127
246.927
247.696
248.432
249.152
249.793
191.207
190.997
190.8
190.621
190.461
190.322
190.205
190.111
190.044
190.005
189.977
189.963
189.97
189.998
190.048
190.118
190.21
190.322
190.455
190.609
190.783
190.978
191.192
191.427
191.682
191.957
192.253
192.57
192.907
193.266
193.645
194.039
194.446
194.873
195.321
195.79
196.277
196.785
197.312
197.86
198.426
199.012
199.618
200.243
200.888
201.553
202.236
202.939
203.661
204.403
205.163
205.943
206.74
207.557
208.39
209.243
210.111
210.997
211.898
212.817
213.749
214.696
215.652
216.62
217.598
218.59
219.59
220.602
221.62
222.647
223.678
224.715
225.754
226.796
227.837
228.878
229.915
230.949
231.975
232.996
234.006
235.008
235.995
236.972
237.932
238.878
239.805
240.716
241.606
242.478
243.328
244.157
244.964
245.751
246.514
247.255
247.974
248.667
249.35
249.965
198.696
198.306
197.953
197.636
197.355
197.108
196.896
196.717
196.575
196.468
196.386
196.326
196.293
196.287
196.308
196.353
196.423
196.518
196.636
196.779
196.944
197.133
197.345
197.58
197.838
198.12
198.422
198.746
199.089
199.453
199.835
200.229
200.634
201.056
201.496
201.954
202.427
202.918
203.425
203.95
204.489
205.046
205.618
206.208
206.812
207.433
208.068
208.72
209.386
210.068
210.764
211.475
212.199
212.938
213.688
214.453
215.229
216.018
216.817
217.628
218.448
219.279
220.113
220.954
221.801
222.658
223.518
224.387
225.257
226.134
227.01
227.891
228.77
229.652
230.529
231.407
232.279
233.149
234.011
234.869
235.718
236.561
237.392
238.215
239.026
239.826
240.613
241.388
242.148
242.896
243.627
244.345
245.046
245.732
246.401
247.055
247.691
248.309
248.919
249.475
196.657
196.799
196.937
197.077
197.222
197.376
197.541
197.718
197.914
198.127
198.336
198.545
198.765
198.998
199.244
199.502
199.771
200.053
200.347
200.652
200.969
201.297
201.636
201.985
202.344
202.712
203.092
203.484
203.89
204.309
204.741
205.179
205.621
206.079
206.55
207.036
207.536
208.051
208.579
209.122
209.679
210.25
210.835
211.434
212.046
212.672
213.309
213.961
214.624
215.3
215.987
216.687
217.395
218.117
218.846
219.587
220.335
221.094
221.858
222.633
223.412
224.198
224.985
225.776
226.569
227.369
228.17
228.977
229.783
230.592
231.401
232.211
233.018
233.826
234.629
235.431
236.227
237.021
237.807
238.589
239.362
240.13
240.888
241.638
242.378
243.109
243.827
244.537
245.233
245.918
246.59
247.25
247.894
248.526
249.143
249.746
250.333
250.904
251.465
251.981
212.387
211.888
211.436
211.027
210.658
210.326
210.032
209.772
209.548
209.36
209.214
209.1
209.017
208.963
208.939
208.944
208.977
209.038
209.126
209.241
209.382
209.549
209.743
209.961
210.206
210.477
210.772
211.088
211.424
211.778
212.149
212.529
212.916
213.317
213.732
214.161
214.602
215.057
215.523
216.003
216.493
216.995
217.507
218.032
218.565
219.11
219.663
220.227
220.799
221.381
221.97
222.568
223.172
223.785
224.403
225.029
225.66
226.297
226.938
227.586
228.236
228.89
229.542
230.195
230.848
231.507
232.165
232.826
233.487
234.15
234.811
235.473
236.132
236.792
237.447
238.103
238.752
239.401
240.043
240.683
241.316
241.946
242.568
243.185
243.794
244.398
244.993
245.581
246.16
246.731
247.292
247.846
248.388
248.922
249.445
249.959
250.461
250.953
251.438
251.891
191.764
192.565
193.34
194.102
194.857
195.609
196.362
197.122
197.898
198.681
199.418
200.125
200.829
201.532
202.236
202.939
203.641
204.342
205.041
205.738
206.432
207.124
207.811
208.495
209.173
209.845
210.511
211.173
211.835
212.498
213.161
213.811
214.454
215.102
215.756
216.416
217.081
217.753
218.431
219.115
219.805
220.502
221.203
221.912
222.624
223.343
224.066
224.794
225.526
226.263
227.002
227.746
228.491
229.24
229.989
230.742
231.494
232.249
233.003
233.757
234.51
235.262
236.006
236.747
237.483
238.219
238.95
239.68
240.405
241.127
241.843
242.556
243.262
243.963
244.656
245.344
246.023
246.696
247.359
248.016
248.661
249.299
249.926
250.544
251.15
251.746
252.33
252.904
253.464
254.014
254.55
255.075
255.585
256.084
256.568
257.04
257.497
257.94
258.37
258.777
238.935
238.026
237.172
236.368
235.605
234.877
234.178
233.501
232.835
232.193
231.661
231.181
230.738
230.328
229.954
229.614
229.309
229.04
228.806
228.608
228.447
228.321
228.231
228.177
228.16
228.179
228.234
228.323
228.442
228.59
228.764
228.965
229.173
229.4
229.646
229.909
230.187
230.482
230.79
231.113
231.449
231.798
232.159
232.532
232.916
233.31
233.714
234.129
234.551
234.983
235.423
235.87
236.324
236.786
237.252
237.726
238.203
238.687
239.173
239.665
240.159
240.655
241.147
241.638
242.128
242.622
243.116
243.615
244.112
244.613
245.112
245.614
246.114
246.614
247.113
247.612
248.108
248.603
249.095
249.586
250.072
250.557
251.037
251.514
251.985
252.453
252.915
253.373
253.824
254.271
254.71
255.143
255.569
255.988
256.399
256.803
257.198
257.585
257.96
258.342
156.269
158.51
160.71
162.879
165.039
167.202
169.38
171.592
173.87
176.17
178.26
180.249
182.217
184.175
186.124
188.059
189.98
191.885
193.773
195.641
197.489
199.314
201.117
202.896
204.649
206.376
208.075
209.747
211.394
213.016
214.603
216.106
217.571
219.014
220.439
221.846
223.236
224.61
225.967
227.309
228.634
229.943
231.237
232.515
233.777
235.024
236.255
237.471
238.67
239.855
241.023
242.176
243.313
244.433
245.537
246.626
247.696
248.751
249.789
250.81
251.813
252.795
253.75
254.692
255.612
256.514
257.399
258.27
259.123
259.96
260.778
261.581
262.365
263.133
263.882
264.614
265.327
266.023
266.699
267.358
267.997
268.619
269.22
269.804
270.368
270.913
271.439
271.946
272.433
272.901
273.349
273.778
274.188
274.578
274.949
275.301
275.633
275.946
276.231
276.553
311.029
308.991
306.729
304.514
302.353
300.211
298.068
295.902
293.632
291.228
289.402
287.63
285.854
284.131
282.464
280.853
279.299
277.805
276.374
275.008
273.707
272.475
271.311
270.217
269.19
268.23
267.337
266.512
265.755
265.054
264.381
263.85
263.324
262.8
262.32
261.888
261.499
261.153
260.847
260.581
260.353
260.164
260.01
259.891
259.806
259.754
259.732
259.74
259.776
259.839
259.926
260.039
260.173
260.329
260.504
260.698
260.909
261.136
261.378
261.634
261.896
262.152
262.429
262.74
263.016
263.296
263.593
263.906
264.228
264.561
264.902
265.253
265.611
265.977
266.348
266.725
267.106
267.492
267.88
268.271
268.664
269.058
269.453
269.848
270.242
270.636
271.027
271.417
271.804
272.189
272.569
272.945
273.317
273.684
274.045
274.402
274.751
275.087
275.398
276.082
20.1184
29.6408
36.9929
45.3637
54.3378
63.5946
73.2393
83.7635
93.5247
96.9376
99.9619
106.38
113.241
119.832
126.339
132.785
139.165
145.46
151.669
157.777
163.786
169.683
175.47
181.139
186.692
192.111
197.396
202.607
207.839
212.625
215.853
219.078
223.369
227.374
231.235
235.015
238.72
242.342
245.882
249.339
252.715
256.009
259.221
262.351
265.401
268.369
271.257
274.066
276.795
279.445
282.018
284.513
286.93
289.272
291.541
293.742
295.871
297.927
299.917
301.849
303.664
305.209
306.72
308.6
310.217
311.718
313.181
314.602
315.972
317.294
318.565
319.79
320.967
322.098
323.183
324.225
325.222
326.178
327.09
327.963
328.796
329.591
330.347
331.069
331.754
332.406
333.024
333.611
334.166
334.693
335.19
335.662
336.105
336.525
336.92
337.298
337.645
337.903
338.087
339.708
314.258
313.743
313.292
313.017
312.81
312.64
312.513
312.435
312.401
312.411
312.458
312.543
312.659
312.808
312.986
313.201
313.431
313.68
313.963
314.278
314.612
314.97
315.346
315.744
316.16
316.596
317.048
317.52
318.007
318.516
319.038
319.525
319.982
320.592
321.274
321.872
322.464
323.076
323.7
324.338
324.985
325.644
326.311
326.994
327.694
328.395
328.953
329.486
330.384
331.363
332.109
332.833
333.581
334.345
335.116
335.905
336.723
337.518
337.974
338.516
339.819
341.124
341.977
342.821
343.75
344.542
344.524
346.206
348.274
347.881
293.72
293.895
294.484
295.096
295.654
296.2
296.742
297.284
297.82
298.354
298.882
299.411
299.937
300.465
300.991
301.52
302.046
302.574
303.1
303.63
304.157
304.687
305.216
305.748
306.279
306.814
307.348
307.886
308.424
308.966
309.508
310.053
310.595
311.146
311.702
312.254
312.806
313.362
313.92
314.481
315.045
315.613
316.182
316.756
317.333
317.915
318.493
319.071
319.667
320.271
320.86
321.452
322.049
322.652
323.26
323.875
324.495
325.123
325.739
326.357
327.022
327.696
328.337
328.989
329.66
330.343
330.982
331.731
332.604
333.057
285.148
285.457
286.095
286.73
287.317
287.9
288.486
289.077
289.666
290.255
290.841
291.427
292.008
292.59
293.167
293.745
294.319
294.894
295.465
296.036
296.604
297.172
297.736
298.302
298.863
299.426
299.986
300.546
301.103
301.661
302.217
302.773
303.325
303.876
304.425
304.972
305.515
306.059
306.6
307.142
307.681
308.22
308.757
309.294
309.829
310.364
310.898
311.426
311.951
312.477
312.996
313.514
314.033
314.551
315.069
315.588
316.106
316.627
317.146
317.656
318.165
318.676
319.178
319.687
320.199
320.719
321.233
321.74
322.307
322.711
275.53
275.918
276.616
277.296
277.925
278.553
279.187
279.828
280.466
281.106
281.741
282.377
283.009
283.641
284.268
284.895
285.519
286.142
286.762
287.382
287.998
288.613
289.226
289.838
290.447
291.057
291.663
292.27
292.875
293.48
294.083
294.686
295.285
295.883
296.479
297.071
297.66
298.25
298.838
299.426
300.012
300.599
301.184
301.77
302.355
302.941
303.524
304.102
304.677
305.25
305.814
306.379
306.943
307.507
308.071
308.636
309.201
309.767
310.331
310.885
311.438
311.985
312.523
313.068
313.62
314.181
314.733
315.287
315.889
316.324
269.835
270.235
270.92
271.585
272.204
272.824
273.451
274.087
274.721
275.358
275.991
276.624
277.252
277.88
278.504
279.128
279.748
280.368
280.985
281.602
282.214
282.827
283.437
284.047
284.653
285.261
285.865
286.47
287.073
287.677
288.279
288.881
289.479
290.076
290.67
291.261
291.849
292.439
293.027
293.615
294.202
294.79
295.376
295.964
296.551
297.14
297.727
298.309
298.887
299.461
300.027
300.595
301.164
301.734
302.304
302.875
303.448
304.024
304.598
305.162
305.722
306.276
306.822
307.378
307.944
308.52
309.089
309.658
310.273
310.727
263.66
264.072
264.753
265.41
266.024
266.646
267.278
267.919
268.56
269.203
269.842
270.482
271.117
271.751
272.382
273.013
273.64
274.269
274.894
275.519
276.141
276.763
277.383
278.003
278.62
279.238
279.853
280.469
281.083
281.698
282.312
282.926
283.536
284.144
284.748
285.349
285.948
286.548
287.146
287.744
288.342
288.94
289.537
290.135
290.733
291.333
291.932
292.525
293.113
293.695
294.272
294.85
295.431
296.014
296.599
297.186
297.776
298.371
298.966
299.553
300.131
300.703
301.27
301.851
302.442
303.048
303.647
304.245
304.882
305.368
259.714
260.118
260.78
261.427
262.037
262.655
263.284
263.92
264.555
265.191
265.823
266.455
267.082
267.708
268.33
268.953
269.572
270.192
270.809
271.426
272.04
272.653
273.265
273.876
274.485
275.094
275.701
276.309
276.916
277.523
278.129
278.736
279.34
279.94
280.536
281.129
281.722
282.315
282.906
283.499
284.091
284.683
285.276
285.869
286.463
287.06
287.656
288.246
288.83
289.406
289.978
290.554
291.132
291.712
292.295
292.881
293.47
294.066
294.663
295.25
295.826
296.393
296.959
297.54
298.132
298.741
299.345
299.946
300.578
301.069
256.05
256.458
257.113
257.753
258.358
258.971
259.592
260.22
260.846
261.472
262.095
262.717
263.335
263.953
264.568
265.183
265.796
266.409
267.02
267.632
268.24
268.849
269.456
270.063
270.667
271.273
271.877
272.482
273.085
273.691
274.295
274.901
275.504
276.104
276.698
277.29
277.881
278.475
279.067
279.661
280.253
280.848
281.443
282.039
282.636
283.237
283.837
284.432
285.018
285.595
286.168
286.745
287.324
287.905
288.488
289.073
289.661
290.255
290.849
291.433
292.001
292.557
293.113
293.683
294.266
294.865
295.459
296.049
296.664
297.149
253.508
253.925
254.577
255.214
255.817
256.426
257.04
257.66
258.278
258.895
259.509
260.122
260.73
261.338
261.943
262.548
263.151
263.754
264.355
264.955
265.553
266.15
266.745
267.34
267.933
268.527
269.119
269.712
270.304
270.898
271.49
272.085
272.676
273.264
273.845
274.425
275.005
275.586
276.166
276.748
277.329
277.913
278.496
279.082
279.668
280.258
280.848
281.433
282.007
282.572
283.133
283.7
284.268
284.839
285.412
285.988
286.567
287.152
287.739
288.314
288.872
289.415
289.96
290.521
291.096
291.687
292.275
292.858
293.458
293.939
251.804
252.219
252.852
253.466
254.047
254.631
255.222
255.817
256.41
257.005
257.597
258.188
258.777
259.366
259.953
260.54
261.125
261.712
262.296
262.88
263.462
264.044
264.624
265.205
265.784
266.364
266.942
267.522
268.101
268.681
269.261
269.844
270.422
270.997
271.565
272.131
272.697
273.265
273.831
274.399
274.967
275.536
276.106
276.677
277.25
277.826
278.402
278.974
279.533
280.082
280.628
281.18
281.735
282.293
282.853
283.418
283.987
284.564
285.143
285.712
286.261
286.794
287.332
287.888
288.458
289.049
289.637
290.22
290.813
291.294
250.421
250.84
251.464
252.067
252.638
253.212
253.791
254.375
254.956
255.539
256.118
256.697
257.273
257.849
258.422
258.995
259.566
260.137
260.707
261.276
261.842
262.408
262.973
263.537
264.1
264.664
265.227
265.79
266.353
266.918
267.483
268.049
268.613
269.172
269.723
270.273
270.824
271.377
271.929
272.482
273.036
273.591
274.147
274.705
275.265
275.828
276.393
276.953
277.5
278.035
278.569
279.109
279.653
280.201
280.751
281.307
281.867
282.436
283.008
283.571
284.11
284.633
285.162
285.711
286.275
286.86
287.442
288.021
288.603
289.08
250.575
250.983
251.579
252.156
252.702
253.251
253.805
254.363
254.92
255.478
256.033
256.589
257.142
257.695
258.245
258.797
259.346
259.897
260.445
260.993
261.539
262.085
262.63
263.175
263.718
264.263
264.806
265.351
265.896
266.442
266.989
267.538
268.084
268.625
269.158
269.69
270.223
270.759
271.293
271.83
272.366
272.906
273.445
273.989
274.533
275.082
275.632
276.177
276.708
277.225
277.741
278.264
278.79
279.319
279.851
280.388
280.929
281.478
282.03
282.571
283.085
283.58
284.081
284.603
285.14
285.698
286.255
286.807
287.353
287.806
250.045
250.451
251.035
251.602
252.139
252.679
253.223
253.771
254.316
254.862
255.406
255.949
256.489
257.028
257.565
258.103
258.638
259.174
259.708
260.241
260.772
261.303
261.833
262.363
262.891
263.421
263.949
264.479
265.009
265.541
266.073
266.608
267.14
267.667
268.185
268.703
269.222
269.744
270.265
270.788
271.312
271.838
272.365
272.896
273.428
273.965
274.504
275.038
275.557
276.063
276.567
277.079
277.595
278.114
278.636
279.164
279.696
280.237
280.781
281.315
281.82
282.306
282.799
283.313
283.842
284.393
284.943
285.489
286.025
286.474
252.518
252.897
253.44
253.969
254.473
254.978
255.487
256
256.512
257.024
257.535
258.045
258.553
259.061
259.566
260.073
260.577
261.083
261.586
262.089
262.59
263.091
263.59
264.09
264.588
265.087
265.585
266.085
266.584
267.086
267.587
268.092
268.593
269.088
269.574
270.059
270.544
271.033
271.52
272.009
272.498
272.99
273.483
273.98
274.478
274.98
275.485
275.985
276.466
276.932
277.398
277.872
278.349
278.831
279.317
279.808
280.305
280.813
281.325
281.825
282.291
282.736
283.191
283.67
284.166
284.687
285.211
285.727
286.222
286.641
252.376
252.735
253.261
253.78
254.272
254.764
255.259
255.757
256.253
256.749
257.243
257.736
258.227
258.718
259.207
259.696
260.183
260.671
261.157
261.643
262.127
262.61
263.093
263.576
264.057
264.54
265.023
265.507
265.991
266.477
266.964
267.454
267.942
268.424
268.895
269.367
269.84
270.317
270.792
271.271
271.75
272.232
272.716
273.203
273.693
274.188
274.686
275.18
275.655
276.114
276.575
277.045
277.519
277.998
278.481
278.971
279.467
279.974
280.485
280.986
281.454
281.899
282.356
282.837
283.335
283.86
284.384
284.906
285.404
285.832
259.229
259.538
260.004
260.473
260.918
261.362
261.807
262.255
262.701
263.147
263.589
264.032
264.472
264.911
265.347
265.783
266.217
266.651
267.083
267.513
267.94
268.367
268.792
269.217
269.639
270.063
270.485
270.909
271.331
271.756
272.181
272.61
273.034
273.45
273.854
274.257
274.662
275.069
275.475
275.884
276.292
276.705
277.118
277.536
277.956
278.382
278.811
279.234
279.633
280.012
280.392
280.783
281.178
281.58
281.985
282.4
282.821
283.255
283.696
284.122
284.5
284.853
285.221
285.619
286.038
286.489
286.948
287.391
287.796
288.147
258.74
258.91
259.32
259.771
260.192
260.605
261.019
261.436
261.851
262.266
262.678
263.09
263.5
263.91
264.317
264.725
265.13
265.538
265.942
266.347
266.748
267.15
267.55
267.951
268.351
268.752
269.153
269.556
269.958
270.364
270.771
271.182
271.59
271.99
272.377
272.766
273.158
273.553
273.947
274.345
274.744
275.148
275.553
275.964
276.377
276.797
277.22
277.64
278.036
278.414
278.796
279.19
279.588
279.993
280.403
280.823
281.25
281.691
282.138
282.575
282.969
283.34
283.728
284.145
284.581
285.048
285.518
285.984
286.414
286.797
276.947
276.939
277.216
277.573
277.893
278.196
278.497
278.796
279.09
279.38
279.664
279.945
280.22
280.492
280.759
281.023
281.281
281.54
281.791
282.039
282.28
282.52
282.754
282.988
283.217
283.446
283.672
283.899
284.123
284.351
284.577
284.808
285.033
285.242
285.431
285.621
285.812
286.006
286.197
286.393
286.589
286.79
286.993
287.203
287.415
287.638
287.866
288.085
288.259
288.405
288.556
288.723
288.897
289.082
289.275
289.483
289.702
289.943
290.196
290.426
290.573
290.687
290.832
291.021
291.245
291.518
291.816
292.064
292.251
292.433
276.598
275.147
275.085
275.513
275.802
276.002
276.203
276.413
276.617
276.815
277.007
277.195
277.378
277.558
277.732
277.903
278.07
278.238
278.399
278.557
278.71
278.862
279.01
279.159
279.304
279.451
279.595
279.742
279.889
280.039
280.19
280.346
280.499
280.638
280.756
280.881
281.008
281.141
281.274
281.413
281.555
281.705
281.858
282.021
282.188
282.368
282.553
282.736
282.879
283.001
283.133
283.285
283.443
283.616
283.799
283.999
284.211
284.444
284.688
284.919
285.091
285.244
285.424
285.644
285.893
286.182
286.483
286.761
287.018
287.227
341.925
337.099
335.49
335.366
334.977
334.349
333.721
333.126
332.527
331.922
331.31
330.696
330.076
329.454
328.825
328.194
327.559
326.925
326.283
325.637
324.984
324.329
323.67
323.011
322.349
321.69
321.03
320.375
319.72
319.072
318.427
317.791
317.145
316.45
315.703
314.962
314.221
313.483
312.742
312.009
311.277
310.555
309.838
309.134
308.438
307.759
307.093
306.399
305.575
304.668
303.771
302.895
302.028
301.181
300.35
299.549
298.773
298.035
297.333
296.55
295.51
294.363
293.289
292.308
291.412
290.626
289.954
289.006
287.899
287.026
340.109
327.681
318.514
311.924
306.954
303.111
300.133
297.813
295.978
294.5
293.282
292.26
291.385
290.625
289.957
289.367
288.841
288.373
287.953
287.578
287.241
286.94
286.669
286.426
286.208
286.012
285.836
285.677
285.535
285.407
285.292
285.189
285.096
285.013
284.939
284.873
284.814
284.763
284.716
284.675
284.639
284.607
284.579
284.554
284.532
284.513
284.496
284.481
284.468
284.456
284.445
284.436
284.427
284.419
284.412
284.404
284.397
284.389
284.382
284.374
284.365
284.356
284.346
284.336
284.324
284.312
284.298
284.284
284.269
284.254
284.239
284.225
284.212
284.199
284.183
331.919
325.312
319.201
314.435
310.274
306.513
303.267
300.555
298.306
296.445
294.907
293.633
292.568
291.668
290.897
290.229
289.643
289.126
288.664
288.249
287.876
287.539
287.235
286.96
286.712
286.488
286.286
286.105
285.942
285.795
285.662
285.543
285.435
285.338
285.251
285.173
285.102
285.039
284.981
284.93
284.884
284.843
284.806
284.773
284.743
284.717
284.692
284.671
284.651
284.633
284.616
284.601
284.587
284.574
284.561
284.549
284.537
284.525
284.513
284.501
284.488
284.475
284.462
284.447
284.432
284.415
284.398
284.379
284.36
284.339
284.317
284.294
284.271
284.244
284.202
322.988
319.011
314.821
311.759
309.15
306.581
304.138
301.924
299.937
298.158
296.584
295.204
293.998
292.945
292.026
291.225
290.527
289.918
289.384
288.913
288.495
288.122
287.787
287.486
287.215
286.97
286.749
286.55
286.37
286.207
286.059
285.926
285.804
285.694
285.593
285.502
285.42
285.345
285.277
285.215
285.16
285.109
285.064
285.022
284.985
284.951
284.919
284.891
284.864
284.84
284.818
284.797
284.777
284.759
284.741
284.724
284.707
284.69
284.674
284.657
284.64
284.622
284.604
284.586
284.566
284.545
284.522
284.498
284.472
284.444
284.413
284.379
284.342
284.299
284.222
317.153
314.664
311.723
309.503
307.492
305.393
303.344
301.485
299.827
298.344
297.024
295.856
294.817
293.884
293.038
292.27
291.57
290.934
290.355
289.83
289.351
288.916
288.52
288.161
287.838
287.548
287.288
287.057
286.851
286.667
286.503
286.357
286.225
286.105
285.996
285.896
285.803
285.719
285.64
285.568
285.502
285.441
285.385
285.334
285.287
285.244
285.204
285.168
285.134
285.102
285.073
285.046
285.02
284.996
284.972
284.95
284.929
284.907
284.886
284.865
284.844
284.822
284.799
284.776
284.751
284.725
284.697
284.666
284.633
284.595
284.553
284.506
284.453
284.391
284.275
311.844
309.947
307.745
306.318
305.063
303.625
302.114
300.663
299.298
298.018
296.84
295.777
294.829