1.275 	2.15223e-18 	-2.76991e-20 	0.743561 	-0.0101904 	-4.45688e-23
1.825 	2.15223e-18 	-1.39322e-20 	0.841163 	-0.00357754 	-3.18423e-22
2.375 	2.15223e-18 	-2.66896e-23 	0.93088 	-0.00182425 	-1.21836e-22
