/*--------------------------------*- C++ -*----------------------------------*\
  =========                 |
  \\      /  F ield         | OpenFOAM: The Open Source CFD Toolbox
   \\    /   O peration     | Website:  https://openfoam.org
    \\  /    A nd           | Version:  6.0
     \\/     M anipulation  |
\*---------------------------------------------------------------------------*/
FoamFile
{
    version     2.0;
    format      ascii;
    class       volVectorField;
    location    "6";
    object      U;
}
// * * * * * * * * * * * * * * * * * * * * * * * * * * * * * * * * * * * * * //

dimensions      [0 1 -1 0 0 0 0];

internalField   nonuniform List<vector> 
2000
(
(-0.00205611 0.00178019 3.6163e-20)
(-0.00776773 0.00333057 3.83665e-20)
(-0.0154648 0.00362739 -3.51773e-20)
(-0.0223048 0.00321547 -6.93407e-20)
(-0.0273196 0.00241612 -4.69821e-20)
(-0.0303639 0.00143895 6.09571e-20)
(-0.0315496 0.000434388 3.46499e-20)
(-0.0311619 -0.000486012 -1.3754e-20)
(-0.0296451 -0.00123813 -3.36543e-20)
(-0.0273238 -0.00175449 1.97754e-20)
(-0.00255541 0.00523576 -8.96189e-20)
(-0.00847805 0.00974893 1.10536e-19)
(-0.0157462 0.0105708 1.05461e-20)
(-0.0217909 0.00930808 -5.94897e-20)
(-0.025789 0.00690528 2.76195e-19)
(-0.027674 0.00397786 -1.18368e-19)
(-0.0276072 0.000968796 -1.25037e-19)
(-0.0259015 -0.00178933 1.47729e-19)
(-0.0230204 -0.00404001 -1.42902e-19)
(-0.0193673 -0.00557986 5.8257e-20)
(-0.00349819 0.00838224 1.48961e-20)
(-0.00975085 0.015454 4.7363e-21)
(-0.0160913 0.0166066 3.18497e-19)
(-0.0204985 0.0144252 1.07908e-19)
(-0.0224374 0.0104183 2.07325e-20)
(-0.021998 0.00556618 1.67284e-19)
(-0.0194376 0.000577523 -3.10425e-19)
(-0.0151207 -0.00400207 6.57432e-21)
(-0.00954581 -0.00773192 -1.76552e-19)
(-0.00328177 -0.0102696 1.57e-19)
(-0.00477035 0.0110245 -2.80017e-20)
(-0.0112834 0.0200053 1.43775e-19)
(-0.0160527 0.0211973 -4.03135e-19)
(-0.01788 0.0180225 -5.03507e-20)
(-0.0166596 0.0124537 -2.78216e-19)
(-0.0127127 0.0057641 2.80652e-19)
(-0.00643567 -0.00112273 -2.90876e-19)
(0.00173894 -0.00746815 2.00126e-19)
(0.0112693 -0.0126311 8.25764e-20)
(0.0213222 -0.016125 -7.54895e-20)
(-0.0061939 0.0129803 -3.11216e-19)
(-0.0126045 0.0230102 2.55068e-21)
(-0.0149326 0.0238993 4.96309e-19)
(-0.0130746 0.0197059 1.43771e-19)
(-0.00749268 0.0127269 -4.4394e-19)
(0.00118726 0.00442281 2.68954e-19)
(0.0123891 -0.00415112 2.97803e-19)
(0.0256046 -0.0121079 -2.60146e-19)
(0.0402559 -0.0185948 1.82222e-19)
(0.055133 -0.0229779 3.63973e-20)
(-0.007518 0.0140803 4.25718e-20)
(-0.0130591 0.0241362 7.01547e-21)
(-0.0117617 0.0243882 -6.34153e-19)
(-0.00487761 0.0192708 -3.43055e-19)
(0.00643156 0.0112314 3.97334e-19)
(0.0211589 0.00178229 -4.53363e-19)
(0.0385016 -0.00801386 5.07891e-19)
(0.0578724 -0.0172138 -4.29383e-20)
(0.0786941 -0.0247738 -1.37537e-19)
(0.0992635 -0.0299273 -3.26482e-19)
(-0.0084096 0.0141718 -9.22559e-20)
(-0.011801 0.0231239 -1.50664e-19)
(-0.00529832 0.022472 -1.78182e-19)
(0.00826464 0.0167105 3.67893e-19)
(0.0269107 0.00824837 6.62845e-19)
(0.0491701 -0.00149935 -1.33462e-19)
(0.0739447 -0.0116298 -3.1768e-19)
(0.100547 -0.0213191 9.49598e-20)
(0.12848 -0.0294409 -5.88237e-19)
(0.155475 -0.0351513 5.29542e-19)
(-0.00845127 0.0131306 5.63989e-19)
(-0.00781103 0.0198104 -2.75043e-19)
(0.0059249 0.0180986 5.1761e-19)
(0.0281888 0.0121911 -8.17987e-19)
(0.0561016 0.00429003 -3.79798e-19)
(0.0876429 -0.00440573 -5.1291e-19)
(0.121309 -0.0133292 1.45691e-19)
(0.15623 -0.0220414 -3.98281e-19)
(0.192114 -0.0295674 8.52334e-19)
(0.226243 -0.0351676 1.96909e-19)
(-0.00715698 0.0108885 4.08641e-20)
(4.01799e-05 0.0141679 4.47995e-19)
(0.0234898 0.0113584 8.56965e-19)
(0.0568644 0.0059824 2.53767e-19)
(0.096352 -6.37618e-05 7.29232e-19)
(0.139289 -0.0057816 3.8968e-20)
(0.183577 -0.0109325 -6.75136e-22)
(0.227899 -0.0155303 2.75032e-19)
(0.272175 -0.0189146 2.19748e-19)
(0.313808 -0.0213998 -5.91619e-19)
(-0.0040211 0.00747628 -3.3285e-19)
(0.0128632 0.00635893 -4.99178e-19)
(0.0488914 0.00247922 -6.99484e-19)
(0.0961601 -0.00171117 1.56093e-20)
(0.150064 -0.00467243 -3.3547e-19)
(0.2074 -0.00541679 5.15517e-19)
(0.265488 -0.00358218 -1.38886e-18)
(0.322265 0.00107924 6.1193e-19)
(0.376919 0.00919743 2.26977e-19)
(0.426654 0.0168932 5.97926e-19)
(0.00138557 0.00307889 1.66632e-19)
(0.0315097 -0.00317294 -5.69782e-19)
(0.0830929 -0.00809543 4.90132e-19)
(0.147044 -0.010804 -1.84197e-19)
(0.218358 -0.0103532 1.94591e-19)
(0.293933 -0.00581855 4.13266e-19)
(0.371778 0.00354679 -5.42375e-19)
(0.451293 0.0187073 6.91215e-20)
(0.533248 0.0391048 -2.50329e-19)
(0.619649 0.0552429 4.35974e-19)
(0.00932336 -0.00191804 2.37574e-19)
(0.056358 -0.0135534 -5.15543e-19)
(0.126079 -0.0193319 6.7738e-19)
(0.208484 -0.0205165 -4.08642e-19)
(0.298171 -0.0173041 -1.45581e-19)
(0.391921 -0.00956643 8.40296e-20)
(0.487741 0.00261479 4.27917e-20)
(0.584863 0.0189766 5.64681e-19)
(0.682775 0.0370408 1.59612e-19)
(0.778948 0.0484584 5.92035e-19)
(0.0198982 -0.0069506 -2.11526e-19)
(0.0874364 -0.0234193 6.65517e-19)
(0.177358 -0.0292476 -5.35924e-19)
(0.278969 -0.028206 -6.0923e-19)
(0.386373 -0.0218747 8.27727e-19)
(0.495898 -0.0110651 -6.13798e-19)
(0.604974 0.00329825 1.58447e-19)
(0.711881 0.0201531 -9.18311e-19)
(0.814739 0.0370185 6.75231e-19)
(0.909456 0.0487796 2.94601e-20)
(0.0331139 -0.0113922 -2.74974e-19)
(0.124529 -0.0312179 -2.38638e-19)
(0.236207 -0.0355679 -4.90057e-19)
(0.357044 -0.0309087 5.74469e-19)
(0.480698 -0.0202858 -2.82578e-20)
(0.60304 -0.00542075 3.52482e-19)
(0.72099 0.0120879 6.28397e-19)
(0.8322 0.0307813 -1.89248e-19)
(0.93426 0.0487153 -6.54258e-19)
(1.02315 0.0630378 1.14204e-18)
(0.048894 -0.0146357 -1.41746e-19)
(0.167169 -0.0354564 -1.51543e-19)
(0.301577 -0.0362102 2.63898e-19)
(0.44099 -0.0261481 -4.75164e-19)
(0.578841 -0.0098021 7.87251e-20)
(0.710777 0.010247 6.8525e-20)
(0.833584 0.0318519 2.9073e-20)
(0.944864 0.0533376 -4.96096e-21)
(1.04244 0.0733066 -6.97209e-20)
(1.123 0.0902584 -9.6646e-19)
(0.0670686 -0.0161186 5.75671e-19)
(0.214592 -0.03482 -3.59659e-19)
(0.371983 -0.0294906 4.36825e-21)
(0.528594 -0.0121681 -5.12792e-19)
(0.677997 0.0111654 -1.78713e-19)
(0.816012 0.0371539 1.62824e-19)
(0.939768 0.0632301 1.23584e-19)
(1.04739 0.0876338 -4.31883e-19)
(1.13749 0.10947 3.46263e-19)
(1.20782 0.12802 -3.99246e-19)
(0.0873435 -0.0153294 2.47858e-19)
(0.265696 -0.02823 -1.97561e-19)
(0.445482 -0.0142181 7.92695e-19)
(0.617157 0.0119961 7.86586e-20)
(0.774935 0.0431051 1.74875e-19)
(0.915315 0.0751336 7.61474e-19)
(1.0363 0.105282 -1.1367e-19)
(1.13705 0.131883 1.01834e-19)
(1.21735 0.154577 4.1245e-20)
(1.27628 0.173121 -4.46291e-20)
(0.109272 -0.0118197 1.72762e-19)
(0.319043 -0.0148867 3.73405e-19)
(0.519727 0.0102648 -3.86481e-19)
(0.703638 0.0465392 -1.27111e-19)
(0.866247 0.0855611 -1.52608e-19)
(1.0053 0.123001 2.29938e-19)
(1.1202 0.156104 -1.17151e-19)
(1.21155 0.183543 3.0916e-19)
(1.28055 0.205595 1.0239e-19)
(1.32773 0.222359 -1.4584e-19)
(0.132245 -0.00523092 -1.86315e-19)
(0.372885 0.00568114 1.48549e-19)
(0.592091 0.044059 -3.05893e-19)
(0.784874 0.0909407 1.2791e-19)
(0.948647 0.13731 -1.29086e-19)
(1.08298 0.178872 -1.57308e-19)
(1.18912 0.213278 -1.23824e-19)
(1.26938 0.239832 1.35776e-19)
(1.32647 0.259576 -2.52211e-19)
(1.36235 0.272923 1.32797e-19)
(0.155496 0.00466819 -6.62914e-20)
(0.425244 0.0335612 -1.16539e-19)
(0.659817 0.0866947 5.34453e-20)
(0.857804 0.144032 3.12148e-21)
(1.01923 0.196527 4.18394e-20)
(1.14601 0.240421 5.61481e-20)
(1.24153 0.274184 5.10822e-20)
(1.30993 0.298038 -6.63494e-20)
(1.35534 0.313907 5.58102e-20)
(1.38105 0.322526 -7.57561e-20)
(0.178138 0.0179414 -3.83789e-20)
(0.474011 0.0684092 -1.29085e-20)
(0.720205 0.137134 4.97661e-20)
(0.919687 0.204082 -2.2082e-20)
(1.0757 0.260951 5.76205e-20)
(1.19284 0.305096 -7.25821e-20)
(1.27677 0.336215 1.64062e-20)
(1.33341 0.355692 1.72537e-20)
(1.36811 0.366396 -7.21868e-21)
(1.38523 0.369402 2.34332e-20)
(0.199203 0.0344508 -4.13386e-20)
(0.517082 0.109421 -1.68384e-19)
(0.770778 0.193804 -1.14186e-20)
(0.968274 0.268896 3.31391e-21)
(1.11643 0.328037 -1.99939e-19)
(1.22271 0.370281 2.55806e-20)
(1.29499 0.396913 -2.1429e-20)
(1.34071 0.410643 -5.12897e-20)
(1.36619 0.415278 1.06154e-19)
(1.37656 0.412226 -1.66044e-19)
(0.2177 0.0538334 -2.005e-20)
(0.552486 0.155335 3.41719e-19)
(0.80945 0.254658 5.30997e-20)
(1.00194 0.33594 -2.81135e-19)
(1.14058 0.3951 -2.22674e-20)
(1.23565 0.433426 -2.58079e-19)
(1.29697 0.454052 1.85948e-19)
(1.33321 0.461069 -6.70707e-20)
(1.35128 0.45915 1.17361e-19)
(1.35682 0.450009 -7.47247e-20)
(0.232685 0.0754936 -1.26558e-19)
(0.578524 0.204467 1.09693e-19)
(0.834654 0.317273 -7.62507e-20)
(1.01974 0.402472 5.54396e-19)
(1.14805 0.459445 2.6738e-19)
(1.23235 0.492137 -6.09614e-20)
(1.28404 0.505667 2.02827e-19)
(1.3126 0.505453 -1.31343e-19)
(1.32522 0.496896 -3.70294e-20)
(1.3278 0.481986 2.05519e-19)
(0.243319 0.098613 -2.19971e-19)
(0.593887 0.254779 2.52903e-19)
(0.845429 0.37897 -4.8007e-19)
(1.02145 0.465673 6.60349e-20)
(1.13941 0.518474 1.45229e-19)
(1.21408 0.544236 -2.13851e-19)
(1.25793 0.550055 -2.52688e-19)
(1.28081 0.542528 1.11176e-19)
(1.28996 0.527605 -1.33745e-19)
(1.29128 0.507533 1.4214e-19)
(0.248937 0.122177 -5.5436e-20)
(0.597739 0.30398 -2.5775e-19)
(0.841465 0.43695 1.3646e-19)
(1.00752 0.522782 2.27884e-19)
(1.11583 0.569772 -1.31955e-19)
(1.18253 0.587783 -9.82897e-20)
(1.22059 0.58575 -6.32294e-20)
(1.23987 0.571217 -3.04069e-20)
(1.2474 0.550481 2.96852e-21)
(1.24897 0.526065 6.46707e-20)
(0.249095 0.145023 4.31489e-20)
(0.589786 0.349645 -2.23884e-19)
(0.8231 0.488444 3.61848e-19)
(0.979002 0.571216 -2.06118e-19)
(1.07893 0.611191 6.31623e-20)
(1.13968 0.621108 -8.5263e-20)
(1.17417 0.6115 9.04111e-20)
(1.19188 0.590574 2.81089e-20)
(1.19945 0.564747 -4.03526e-21)
(1.20252 0.536895 9.35404e-21)
(0.243626 0.165899 -1.15257e-19)
(0.5703 0.389365 2.04502e-19)
(0.791284 0.53087 -7.21154e-21)
(0.937431 0.608699 -4.49782e-20)
(1.03066 0.640914 -1.00546e-19)
(1.08769 0.642848 1.53474e-20)
(1.12089 0.62631 1.18065e-21)
(1.13901 0.599843 -4.71791e-20)
(1.14824 0.569695 5.16499e-20)
(1.154 0.539227 4.37233e-20)
(0.232663 0.183555 4.60326e-20)
(0.540111 0.420897 -4.95819e-20)
(0.74749 0.56197 -9.17505e-22)
(0.884703 0.633336 4.13407e-20)
(0.973092 0.657463 3.03069e-21)
(1.02872 0.651859 -4.80042e-20)
(1.06298 0.62928 -1.16781e-19)
(1.08372 0.598302 -4.92515e-20)
(1.09668 0.564668 -6.33139e-20)
(1.10671 0.532414 4.06455e-20)
(0.216665 0.196839 4.23542e-20)
(0.500575 0.442344 -6.98112e-20)
(0.693614 0.579984 6.596e-20)
(0.822865 0.643744 -1.31716e-19)
(0.908118 0.659718 2.98017e-20)
(0.964285 0.646981 2.16365e-19)
(1.00166 0.618827 -6.53266e-20)
(1.0273 0.583573 7.33507e-20)
(1.04656 0.54631 1.08581e-19)
(1.06255 0.512853 3.20429e-19)
(0.196411 0.204822 3.70996e-19)
(0.453527 0.452337 -2.21935e-19)
(0.631924 0.583877 5.28353e-19)
(0.754093 0.639425 -8.70317e-20)
(0.837327 0.647624 4.31023e-19)
(0.894939 0.628251 2.63706e-19)
(0.936045 0.594335 -6.04135e-19)
(0.967058 0.552995 9.03838e-19)
(0.992635 0.506576 -1.88945e-19)
(1.00959 0.458893 3.35686e-19)
(0.172969 0.206857 -2.06178e-19)
(0.401246 0.450089 -1.34623e-19)
(0.565148 0.573348 1.29148e-19)
(0.681064 0.620867 -2.97981e-19)
(0.762923 0.622825 -9.05261e-19)
(0.821943 0.59923 -3.56816e-19)
(0.865832 0.562911 -3.1185e-19)
(0.90006 0.521055 1.50247e-19)
(0.92788 0.477125 1.21831e-18)
(0.945576 0.435777 -2.27375e-19)
(0.147604 0.202578 1.11789e-19)
(0.346321 0.435257 -4.07993e-19)
(0.496431 0.54838 8.57443e-20)
(0.607204 0.588371 -6.04268e-19)
(0.688729 0.585771 1.28131e-18)
(0.749969 0.560198 -1.4594e-19)
(0.797183 0.523915 6.67158e-19)
(0.834868 0.483746 -9.34394e-19)
(0.865653 0.443156 2.8894e-19)
(0.887143 0.406214 4.06123e-20)
(0.121655 0.191882 8.27453e-20)
(0.291383 0.407924 4.48645e-19)
(0.428831 0.50928 -1.27295e-18)
(0.535618 0.542311 5.97419e-19)
(0.617801 0.536666 -8.06957e-22)
(0.682081 0.510899 -1.90875e-19)
(0.733349 0.476357 2.36282e-19)
(0.775261 0.439269 -2.28662e-19)
(0.81009 0.402757 -7.70133e-19)
(0.836323 0.369921 -1.9087e-19)
(0.096448 0.17493 2.73332e-19)
(0.23895 0.368614 2.74241e-19)
(0.365172 0.456779 1.08768e-18)
(0.46903 0.483434 -5.85429e-19)
(0.552583 0.476101 1.17103e-18)
(0.620359 0.451632 -2.45435e-19)
(0.675981 0.420132 -2.52932e-19)
(0.722381 0.387065 2.93401e-19)
(0.761536 0.355093 1.87593e-19)
(0.792581 0.326447 6.12178e-19)
(0.0732382 0.152141 -2.78707e-19)
(0.191342 0.31829 8.17932e-20)
(0.307992 0.392054 2.15605e-20)
(0.409808 0.412907 5.98332e-19)
(0.495119 0.405096 -1.44931e-18)
(0.56646 0.383211 2.40294e-19)
(0.626329 0.355855 5.16737e-19)
(0.677025 0.327606 -6.1189e-19)
(0.72028 0.300624 2.11467e-19)
(0.7558 0.276433 -8.84756e-19)
(0.0531623 0.124181 5.95071e-20)
(0.150612 0.258321 2.86753e-19)
(0.259483 0.3167 1.07225e-19)
(0.359958 0.332281 1.40666e-19)
(0.447096 0.325039 2.61089e-19)
(0.521723 0.306827 7.56173e-19)
(0.585385 0.28454 -9.04188e-19)
(0.639853 0.261799 -4.98376e-19)
(0.68667 0.240255 8.10638e-20)
(0.72606 0.220893 5.74828e-19)
(0.0371932 0.0919371 -3.60146e-19)
(0.11848 0.190441 -3.80759e-20)
(0.221461 0.232674 -3.08031e-19)
(0.321111 0.243443 4.25012e-20)
(0.409874 0.237627 -2.47129e-19)
(0.487219 0.223966 -2.74839e-19)
(0.55395 0.207493 -4.00014e-19)
(0.61143 0.190824 1.05502e-18)
(0.66107 0.17512 1.78411e-19)
(0.703529 0.160967 -2.45377e-19)
(0.0261006 0.0564871 1.9425e-19)
(0.0962904 0.116681 2.29451e-19)
(0.19532 0.142234 8.66607e-20)
(0.294512 0.148545 -4.53029e-19)
(0.384481 0.144792 -2.04557e-19)
(0.463759 0.13633 -4.29429e-20)
(0.532641 0.126221 8.18336e-20)
(0.592212 0.116046 6.44045e-20)
(0.643801 0.106492 -4.87971e-19)
(0.688386 0.0978628 2.52678e-19)
(0.0204178 0.0190529 -1.01185e-19)
(0.0849616 0.0393014 -1.02866e-19)
(0.18201 0.047854 7.87859e-20)
(0.281 0.049932 6.75837e-20)
(0.37161 0.0486367 6.72171e-20)
(0.451891 0.0457713 1.00031e-19)
(0.52188 0.0423637 -5.19496e-21)
(0.582521 0.0389428 -1.25474e-19)
(0.635104 0.0357358 1.16895e-19)
(0.680776 0.0328356 -1.58632e-19)
(0.0204178 -0.0190528 -1.01837e-19)
(0.0849616 -0.0393012 -9.80013e-20)
(0.18201 -0.0478538 8.68359e-20)
(0.281 -0.0499318 1.64221e-19)
(0.37161 -0.0486366 1.06105e-19)
(0.451891 -0.0457712 -1.36154e-19)
(0.52188 -0.0423635 -7.21702e-20)
(0.582521 -0.0389426 3.08978e-20)
(0.635104 -0.0357356 6.80529e-20)
(0.680776 -0.0328354 -3.65441e-20)
(0.0261006 -0.056487 2.4292e-19)
(0.0962904 -0.116681 -2.75834e-19)
(0.19532 -0.142234 -2.19669e-20)
(0.294512 -0.148545 1.42013e-19)
(0.384481 -0.144792 -6.22595e-19)
(0.463759 -0.13633 2.58975e-19)
(0.532641 -0.126221 2.60925e-19)
(0.592212 -0.116046 -3.01671e-19)
(0.643801 -0.106492 2.82758e-19)
(0.688386 -0.0978626 -1.12105e-19)
(0.0371932 -0.091937 -4.20163e-20)
(0.11848 -0.190441 -4.69224e-21)
(0.221461 -0.232674 -7.15614e-19)
(0.321111 -0.243443 -2.19623e-19)
(0.409874 -0.237627 -2.20583e-20)
(0.487219 -0.223966 -3.41528e-19)
(0.55395 -0.207493 6.21525e-19)
(0.61143 -0.190824 -2.15853e-20)
(0.66107 -0.17512 3.41204e-19)
(0.703529 -0.160966 -2.70129e-19)
(0.0531623 -0.124181 7.08683e-20)
(0.150611 -0.258321 -2.92448e-19)
(0.259483 -0.3167 8.66574e-19)
(0.359958 -0.332281 1.18688e-19)
(0.447096 -0.325039 5.64869e-19)
(0.521723 -0.306827 -5.37222e-19)
(0.585385 -0.284539 5.50921e-19)
(0.639853 -0.261799 -3.89404e-19)
(0.68667 -0.240255 -1.6815e-19)
(0.72606 -0.220893 1.28278e-19)
(0.0732382 -0.152141 6.30725e-19)
(0.191342 -0.31829 1.52823e-21)
(0.307992 -0.392054 -9.1058e-19)
(0.409808 -0.412906 -2.55046e-19)
(0.495119 -0.405096 8.23009e-19)
(0.56646 -0.383211 -4.69208e-19)
(0.626329 -0.355854 -5.30742e-19)
(0.677025 -0.327606 4.67991e-19)
(0.72028 -0.300624 -3.12483e-19)
(0.7558 -0.276433 -6.07219e-20)
(0.096448 -0.17493 -9.42852e-20)
(0.23895 -0.368614 -3.77078e-21)
(0.365172 -0.456779 9.84638e-19)
(0.46903 -0.483434 5.45928e-19)
(0.552583 -0.476101 -6.24551e-19)
(0.620359 -0.451631 7.37185e-19)
(0.675981 -0.420132 -7.80136e-19)
(0.722381 -0.387065 7.6513e-20)
(0.761535 -0.355093 2.24112e-19)
(0.792581 -0.326447 4.64959e-19)
(0.121655 -0.191882 1.06552e-19)
(0.291383 -0.407924 1.52689e-19)
(0.428831 -0.50928 1.58821e-19)
(0.535617 -0.542311 -5.00953e-19)
(0.617801 -0.536666 -8.6456e-19)
(0.682081 -0.510899 1.77541e-19)
(0.733348 -0.476357 5.03913e-19)
(0.775261 -0.439269 -1.41104e-19)
(0.81009 -0.402757 8.31387e-19)
(0.836322 -0.369921 -7.30356e-19)
(0.147604 -0.202578 -6.01626e-19)
(0.346321 -0.435257 2.03646e-19)
(0.496431 -0.54838 -5.35755e-19)
(0.607203 -0.588371 8.36618e-19)
(0.688729 -0.585771 4.06477e-19)
(0.749968 -0.560198 5.59214e-19)
(0.797183 -0.523915 -1.25259e-19)
(0.834868 -0.483746 4.8942e-19)
(0.865653 -0.443156 -1.01648e-18)
(0.887143 -0.406213 -2.38509e-19)
(0.172969 -0.206857 3.78637e-20)
(0.401245 -0.450089 -3.57336e-19)
(0.565148 -0.573347 -5.428e-19)
(0.681064 -0.620866 -2.25927e-19)
(0.762923 -0.622824 -6.18343e-19)
(0.821943 -0.59923 -6.26386e-20)
(0.865832 -0.562911 5.34567e-20)
(0.90006 -0.521055 -2.24634e-19)
(0.92788 -0.477124 -2.47938e-19)
(0.945575 -0.435777 5.87773e-19)
(0.196411 -0.204822 1.84882e-19)
(0.453527 -0.452337 2.26739e-19)
(0.631924 -0.583877 3.96009e-19)
(0.754093 -0.639425 1.86459e-20)
(0.837327 -0.647624 2.51815e-19)
(0.894939 -0.62825 -3.32754e-19)
(0.936044 -0.594335 9.98159e-19)
(0.967058 -0.552995 -4.3088e-19)
(0.992635 -0.506576 -2.09421e-19)
(1.00959 -0.458893 -5.69118e-19)
(0.216665 -0.196839 -7.12639e-20)
(0.500575 -0.442344 1.00498e-19)
(0.693614 -0.579984 -1.01415e-19)
(0.822865 -0.643744 5.55438e-20)
(0.908118 -0.659718 -6.43666e-20)
(0.964285 -0.646981 -1.63465e-19)
(1.00166 -0.618826 2.09646e-19)
(1.0273 -0.583573 -7.14869e-20)
(1.04656 -0.54631 1.02657e-19)
(1.06255 -0.512853 -1.82237e-19)
(0.232663 -0.183555 4.35752e-21)
(0.540111 -0.420897 -7.63445e-20)
(0.74749 -0.56197 3.82082e-20)
(0.884703 -0.633336 5.40482e-20)
(0.973092 -0.657463 -3.72304e-20)
(1.02872 -0.651859 1.16642e-20)
(1.06298 -0.62928 -5.96707e-21)
(1.08372 -0.598302 -1.46074e-19)
(1.09668 -0.564667 -7.06756e-20)
(1.10671 -0.532414 -1.73897e-19)
(0.243626 -0.165899 -6.42922e-20)
(0.5703 -0.389365 2.04665e-19)
(0.791284 -0.53087 -1.28737e-19)
(0.937431 -0.608699 -6.26243e-20)
(1.03066 -0.640913 5.05847e-20)
(1.08769 -0.642848 7.27019e-21)
(1.12089 -0.62631 3.46904e-21)
(1.13901 -0.599843 9.0961e-20)
(1.14824 -0.569695 -8.1732e-20)
(1.154 -0.539227 6.55169e-24)
(0.249095 -0.145023 -1.49339e-19)
(0.589787 -0.349645 -8.74638e-20)
(0.8231 -0.488444 -2.06762e-19)
(0.979002 -0.571216 2.28878e-19)
(1.07893 -0.61119 -1.58657e-20)
(1.13968 -0.621108 7.80027e-20)
(1.17416 -0.6115 9.64572e-20)
(1.19188 -0.590574 -3.28875e-20)
(1.19945 -0.564747 -5.37902e-21)
(1.20252 -0.536895 -8.0017e-21)
(0.248937 -0.122177 -9.99503e-20)
(0.59774 -0.30398 -1.14936e-19)
(0.841465 -0.436949 1.69183e-19)
(1.00752 -0.522781 -2.49563e-19)
(1.11583 -0.569772 4.23521e-20)
(1.18253 -0.587783 2.21461e-20)
(1.22059 -0.58575 4.32225e-20)
(1.23987 -0.571216 -2.70219e-20)
(1.2474 -0.550481 -3.48284e-20)
(1.24897 -0.526065 -1.28985e-19)
(0.24332 -0.098613 4.16731e-19)
(0.593887 -0.254779 -2.91082e-19)
(0.845429 -0.37897 1.26817e-20)
(1.02145 -0.465673 -3.5206e-19)
(1.13941 -0.518473 -1.00951e-19)
(1.21408 -0.544236 7.93801e-20)
(1.25793 -0.550055 5.75548e-20)
(1.28081 -0.542528 -1.89288e-19)
(1.28995 -0.527605 8.87938e-20)
(1.29128 -0.507533 -1.2967e-19)
(0.232685 -0.0754936 2.05473e-19)
(0.578525 -0.204467 -1.82166e-19)
(0.834654 -0.317273 6.33995e-19)
(1.01974 -0.402472 4.98551e-20)
(1.14805 -0.459444 1.35631e-19)
(1.23235 -0.492137 4.78468e-19)
(1.28404 -0.505667 -9.54012e-20)
(1.3126 -0.505452 2.63909e-20)
(1.32522 -0.496896 -1.05412e-20)
(1.3278 -0.481986 -2.02462e-20)
(0.2177 -0.0538334 1.5786e-19)
(0.552486 -0.155335 3.22916e-19)
(0.809451 -0.254658 -3.18547e-19)
(1.00194 -0.33594 -9.45093e-20)
(1.14058 -0.3951 -9.79546e-20)
(1.23565 -0.433425 1.85735e-19)
(1.29697 -0.454052 -8.64245e-20)
(1.3332 -0.461069 2.01479e-19)
(1.35128 -0.45915 4.93364e-20)
(1.35682 -0.450009 -7.32623e-20)
(0.199203 -0.0344508 -1.70681e-19)
(0.517082 -0.109421 1.4216e-19)
(0.770779 -0.193804 -2.81761e-19)
(0.968274 -0.268896 1.14456e-19)
(1.11643 -0.328037 -1.11704e-19)
(1.22271 -0.370281 -1.30022e-19)
(1.29499 -0.396913 -9.92394e-20)
(1.34071 -0.410642 1.07599e-19)
(1.36619 -0.415278 -1.85598e-19)
(1.37656 -0.412226 1.00467e-19)
(0.178138 -0.0179414 -6.38555e-20)
(0.474012 -0.0684091 -1.12653e-19)
(0.720205 -0.137134 5.10359e-20)
(0.919687 -0.204082 3.57376e-21)
(1.0757 -0.260951 3.83683e-20)
(1.19284 -0.305096 5.37788e-20)
(1.27677 -0.336214 4.51162e-20)
(1.33341 -0.355692 -5.97505e-20)
(1.36811 -0.366396 4.83121e-20)
(1.38523 -0.369402 -6.58286e-20)
(0.155496 -0.00466817 -4.03041e-20)
(0.425244 -0.0335611 -1.45724e-20)
(0.659818 -0.0866945 5.25379e-20)
(0.857805 -0.144032 -2.28508e-20)
(1.01923 -0.196527 6.25094e-20)
(1.14601 -0.240421 -7.70829e-20)
(1.24153 -0.274184 1.92776e-20)
(1.30993 -0.298038 1.63098e-20)
(1.35534 -0.313907 -5.87031e-21)
(1.38105 -0.322526 2.30013e-20)
(0.132245 0.00523096 -4.83319e-20)
(0.372886 -0.00568102 -1.84178e-19)
(0.592091 -0.0440588 -1.44452e-20)
(0.784875 -0.0909404 5.57968e-21)
(0.948647 -0.137309 -2.32492e-19)
(1.08298 -0.178871 2.38872e-20)
(1.18912 -0.213278 -2.47846e-20)
(1.26938 -0.239832 -6.63345e-20)
(1.32646 -0.259576 1.44728e-19)
(1.36235 -0.272923 -2.2938e-19)
(0.109272 0.0118198 -2.74839e-20)
(0.319043 0.0148869 3.95521e-19)
(0.519728 -0.0102645 5.09766e-20)
(0.703639 -0.0465389 -3.33529e-19)
(0.866248 -0.0855608 -3.87707e-20)
(1.0053 -0.123001 -3.57447e-19)
(1.1202 -0.156104 2.7198e-19)
(1.21155 -0.183543 -1.08425e-19)
(1.28055 -0.205595 2.01809e-19)
(1.32773 -0.222359 -1.55795e-19)
(0.0873438 0.0153295 -1.55472e-19)
(0.265697 0.0282303 1.6302e-19)
(0.445483 0.0142184 -1.09744e-19)
(0.617157 -0.0119957 7.33288e-19)
(0.774936 -0.0431048 3.77719e-19)
(0.915315 -0.0751333 -9.64812e-20)
(1.0363 -0.105282 3.67024e-19)
(1.13705 -0.131883 -2.353e-19)
(1.21735 -0.154577 -7.44869e-20)
(1.27628 -0.173121 4.71299e-19)
(0.0670689 0.0161187 -2.88012e-19)
(0.214592 0.0348203 3.85827e-19)
(0.371984 0.029491 -7.05943e-19)
(0.528595 0.0121685 1.18387e-19)
(0.677998 -0.011165 2.87409e-19)
(0.816012 -0.0371537 -3.51562e-19)
(0.939768 -0.06323 -6.09525e-19)
(1.04739 -0.0876339 3.20197e-19)
(1.13749 -0.109471 -4.08636e-19)
(1.20782 -0.128021 5.74184e-19)
(0.0488943 0.0146358 -7.11144e-20)
(0.16717 0.0354567 -3.88743e-19)
(0.301578 0.0362106 1.8459e-19)
(0.440991 0.0261485 4.48887e-19)
(0.578841 0.00980249 -2.34057e-19)
(0.710777 -0.0102468 -2.25539e-19)
(0.833583 -0.0318518 -3.74208e-19)
(0.944863 -0.0533378 -1.67524e-19)
(1.04244 -0.0733069 -3.89945e-20)
(1.12299 -0.0902589 5.73563e-19)
(0.0331142 0.0113924 1.20093e-19)
(0.12453 0.0312183 -5.29249e-19)
(0.236208 0.0355684 8.73209e-19)
(0.357045 0.0309092 -4.70151e-19)
(0.480699 0.0202863 2.96846e-19)
(0.60304 0.00542102 -3.59858e-19)
(0.720989 -0.0120879 3.91915e-19)
(0.832199 -0.0307815 3.35234e-19)
(0.934259 -0.0487157 7.16063e-19)
(1.02315 -0.0630384 -1.04075e-18)
(0.0198985 0.00695079 -3.73048e-19)
(0.0874371 0.0234198 6.72165e-19)
(0.177359 0.0292482 8.97376e-21)
(0.27897 0.0282066 -2.25649e-19)
(0.386373 0.0218753 -1.16096e-19)
(0.495898 0.0110655 9.08796e-20)
(0.604973 -0.00329817 -6.31369e-19)
(0.71188 -0.0201533 4.76412e-19)
(0.814737 -0.037019 -6.0349e-19)
(0.909454 -0.0487802 -2.40408e-19)
(0.00932364 0.00191826 6.43483e-19)
(0.0563586 0.0135539 -1.79626e-19)
(0.12608 0.0193326 -3.25624e-19)
(0.208484 0.0205173 8.55609e-19)
(0.298172 0.0173048 -8.16971e-19)
(0.391921 0.00956688 4.45169e-19)
(0.487741 -0.00261461 4.63307e-19)
(0.584863 -0.0189767 1.23854e-19)
(0.682774 -0.0370412 1.26188e-19)
(0.778947 -0.048459 -1.56201e-19)
(0.00138584 -0.00307864 -6.16374e-19)
(0.0315103 0.00317357 5.25184e-19)
(0.0830937 0.00809626 -4.47727e-19)
(0.147045 0.0108049 5.44128e-19)
(0.218359 0.010354 -1.57829e-19)
(0.293933 0.00581917 -5.35152e-19)
(0.371777 -0.00354644 1.50076e-19)
(0.451292 -0.0187073 -2.41464e-19)
(0.533247 -0.039105 -2.79751e-19)
(0.619647 -0.0552433 -7.57663e-19)
(-0.00402084 -0.00747599 -7.72364e-19)
(0.0128638 -0.00635822 5.49654e-19)
(0.0488921 -0.00247826 -1.03771e-18)
(0.0961608 0.00171223 1.79619e-19)
(0.150065 0.00467343 -6.76294e-19)
(0.2074 0.00541764 -3.95889e-19)
(0.265488 0.00358278 9.2682e-19)
(0.322264 -0.00107894 -1.24298e-18)
(0.376918 -0.00919743 2.35139e-19)
(0.426652 -0.0168934 -3.2753e-19)
(-0.00715673 -0.0108882 3.80696e-19)
(4.07454e-05 -0.0141671 1.44627e-19)
(0.0234905 -0.0113573 -4.18065e-20)
(0.0568651 -0.00598117 3.81773e-19)
(0.0963525 6.49861e-05 1.08986e-18)
(0.13929 0.0057827 3.66994e-19)
(0.183577 0.0109334 3.71169e-19)
(0.227898 0.0155309 -1.25549e-19)
(0.272173 0.018915 -1.15655e-18)
(0.313806 0.0213999 2.43633e-19)
(-0.00845103 -0.0131302 -1.07843e-19)
(-0.0078105 -0.0198095 3.07307e-19)
(0.00592558 -0.0180973 -7.7479e-20)
(0.0281894 -0.0121897 5.28853e-19)
(0.0561021 -0.00428858 -1.18735e-18)
(0.0876431 0.00440711 9.84014e-20)
(0.121309 0.0133304 -5.38845e-19)
(0.156229 0.0220424 7.78287e-19)
(0.192112 0.0295681 -2.23068e-19)
(0.226241 0.0351681 -2.62493e-20)
(-0.00840938 -0.0141714 -7.34114e-20)
(-0.0118005 -0.0231229 -3.69413e-19)
(-0.00529769 -0.0224707 8.94693e-19)
(0.00826526 -0.0167089 -4.55989e-19)
(0.0269112 -0.00824667 3.10393e-20)
(0.0491704 0.00150102 1.38472e-19)
(0.0739446 0.0116313 -1.23768e-19)
(0.100547 0.0213204 1.57674e-19)
(0.128479 0.029442 5.37225e-19)
(0.155473 0.0351521 1.14888e-19)
(-0.00751781 -0.0140799 -1.65054e-19)
(-0.0130587 -0.0241351 -1.64142e-19)
(-0.0117611 -0.0243867 -7.00792e-19)
(-0.00487704 -0.019269 3.60851e-19)
(0.00643203 -0.0112295 -7.22613e-19)
(0.0211592 -0.00178034 1.5996e-19)
(0.0385016 0.00801572 1.75862e-19)
(0.057872 0.0172154 -1.82084e-19)
(0.0786933 0.0247753 -1.15657e-19)
(0.0992624 0.0299284 -4.24458e-19)
(-0.00619374 -0.0129798 1.29113e-19)
(-0.0126041 -0.0230091 -2.72597e-20)
(-0.0149321 -0.0238976 4.81899e-22)
(-0.0130741 -0.0197039 -3.25699e-19)
(-0.00749226 -0.0127248 8.00455e-19)
(0.00118751 -0.00442059 -1.21631e-19)
(0.0123891 0.00415328 -2.96581e-19)
(0.0256043 0.0121099 3.55751e-19)
(0.0402552 0.0185966 -1.22657e-19)
(0.0551321 0.0229794 5.51211e-19)
(-0.00477021 -0.0110241 -2.42478e-20)
(-0.0112831 -0.0200041 -1.26997e-19)
(-0.0160523 -0.0211955 -4.81828e-20)
(-0.0178796 -0.0180204 -5.95495e-20)
(-0.0166593 -0.0124514 -1.24216e-19)
(-0.0127125 -0.00576164 -3.79808e-19)
(-0.00643563 0.00112515 4.64181e-19)
(0.00173873 0.00747043 2.65494e-19)
(0.0112688 0.0126331 -4.6888e-20)
(0.0213215 0.0161268 -3.36633e-19)
(-0.00349809 -0.00838174 1.37756e-19)
(-0.00975061 -0.0154527 2.14705e-20)
(-0.0160909 -0.0166048 1.39975e-19)
(-0.0204982 -0.014423 -1.54375e-20)
(-0.0224372 -0.0104158 1.19569e-19)
(-0.0219978 -0.00556353 1.31353e-19)
(-0.0194375 -0.000574887 1.92217e-19)
(-0.0151208 0.00400456 -5.33503e-19)
(-0.00954613 0.00773418 -9.66103e-20)
(-0.0032823 0.0102716 1.39993e-19)
(-0.00255535 -0.00523526 -6.95942e-20)
(-0.0084779 -0.00974763 -8.83432e-20)
(-0.015746 -0.0105689 -4.0802e-20)
(-0.0217907 -0.00930573 1.93147e-19)
(-0.0257888 -0.00690264 9.097e-20)
(-0.0276738 -0.00397508 1.81694e-20)
(-0.0276071 -0.000966017 -3.84893e-20)
(-0.0259016 0.00179199 -2.92007e-20)
(-0.0230205 0.00404244 2.46021e-19)
(-0.0193676 0.00558197 -1.35228e-19)
(-0.00205608 -0.00177967 3.54756e-20)
(-0.00776768 -0.00332926 3.94349e-20)
(-0.0154648 -0.00362545 -3.23234e-20)
(-0.0223047 -0.00321308 -2.85721e-20)
(-0.0273196 -0.00241344 -2.87521e-20)
(-0.0303639 -0.00143612 -4.46429e-20)
(-0.0315496 -0.000431544 1.42991e-21)
(-0.0311619 0.000488744 5.92606e-20)
(-0.0296452 0.00124064 -5.83528e-20)
(-0.0273239 0.00175669 8.55651e-20)
(0.0060287 -0.0040642 3.93759e-21)
(0.124542 -0.00882461 1.82351e-21)
(0.389322 -0.0093561 8.01381e-23)
(0.562408 -0.00710243 -8.48297e-23)
(0.719742 -0.00551072 -4.48442e-24)
(0.827026 -0.00371941 -2.5845e-23)
(0.899254 -0.00240841 -8.03605e-23)
(0.945051 -0.00141594 3.01435e-23)
(0.969147 -0.000852048 -2.91776e-24)
(0.987678 -0.000372008 4.54542e-23)
(0.0248696 -0.0125026 6.61563e-21)
(0.141216 -0.0262394 8.72681e-22)
(0.400747 -0.0278327 -2.30966e-21)
(0.569703 -0.0211494 4.59546e-22)
(0.723942 -0.0164301 -7.21279e-23)
(0.829332 -0.0110998 2.45543e-22)
(0.900429 -0.00719237 -3.07926e-22)
(0.945613 -0.00422913 -9.63047e-23)
(0.969413 -0.00254259 -2.06937e-22)
(0.987773 -0.00110886 -4.03051e-23)
(0.0619876 -0.0218376 6.33918e-21)
(0.173852 -0.0429788 -8.06785e-21)
(0.423057 -0.0456171 2.71099e-21)
(0.583958 -0.0347107 -9.36854e-23)
(0.732156 -0.0270217 -9.53778e-23)
(0.833848 -0.018289 9.89789e-23)
(0.902731 -0.011869 1.2387e-22)
(0.946716 -0.00698741 -3.84024e-23)
(0.969937 -0.00420507 1.43632e-22)
(0.987962 -0.00183541 -5.65741e-23)
(0.116277 -0.0325354 -1.07765e-20)
(0.221091 -0.0586351 -1.24596e-20)
(0.455218 -0.0622914 -4.29608e-21)
(0.604538 -0.0474948 8.84335e-22)
(0.744033 -0.0370872 1.34353e-21)
(0.840394 -0.0251707 -1.02054e-21)
(0.906077 -0.0163724 9.75135e-23)
(0.948322 -0.0096568 -1.56623e-22)
(0.970702 -0.005822 1.65786e-22)
(0.988237 -0.00254518 2.27009e-23)
(0.186128 -0.0448271 2.8652e-20)
(0.281045 -0.0728393 1.53935e-20)
(0.495788 -0.0774885 4.66645e-21)
(0.630546 -0.0592525 -1.15269e-21)
(0.759079 -0.0464564 -1.12087e-21)
(0.848714 -0.0316441 -7.2259e-22)
(0.910344 -0.0206446 -9.17871e-22)
(0.950376 -0.0122071 -2.53136e-22)
(0.971685 -0.00737753 -3.98458e-22)
(0.988592 -0.00323223 -1.08658e-22)
(0.269493 -0.0585687 -1.207e-20)
(0.351435 -0.0852206 1.13038e-20)
(0.543026 -0.090883 1.38098e-21)
(0.660901 -0.0697775 5.57987e-22)
(0.776693 -0.0549912 2.41125e-22)
(0.858499 -0.0376272 1.16797e-21)
(0.915382 -0.0246379 9.62905e-22)
(0.95281 -0.014613 3.22953e-22)
(0.972855 -0.00885812 1.66987e-22)
(0.989015 -0.0038914 1.38632e-22)
(0.363992 -0.0733864 -1.05343e-20)
(0.429732 -0.095482 -2.40153e-20)
(0.595021 -0.102236 -2.81425e-21)
(0.694412 -0.078917 -1.27814e-21)
(0.796213 -0.0625907 -4.71801e-22)
(0.869402 -0.0430583 2.45866e-22)
(0.921025 -0.0283156 -7.79455e-22)
(0.95555 -0.0168544 -3.37278e-22)
(0.97418 -0.0102528 6.15316e-23)
(0.989495 -0.00451826 5.01801e-23)
(0.467047 -0.0894113 3.03144e-20)