1.45 	0 	0 	-0.114371
2.35 	0 	0 	0.0283073
