1.45 	0 	0 	-0.00813465 	-0.0025868 	1.65344e-20
2.35 	0 	0 	0.0621317 	-0.00662683 	9.8874e-21
