1.45 	0 	0 	-0.308239
2.35 	0 	0 	-0.124422
