1.275 	2.15223e-18 	-2.76991e-20 	-0.0339808 	-0.000441612 	-1.98919e-22
1.825 	2.15223e-18 	-1.39322e-20 	-0.00858767 	-0.00277796 	1.7873e-21
2.375 	2.15223e-18 	-2.66896e-23 	0.117792 	-0.00329268 	-7.46018e-22
