/*--------------------------------*- C++ -*----------------------------------*\
  =========                 |
  \\      /  F ield         | OpenFOAM: The Open Source CFD Toolbox
   \\    /   O peration     | Website:  https://openfoam.org
    \\  /    A nd           | Version:  6.0
     \\/     M anipulation  |
\*---------------------------------------------------------------------------*/
FoamFile
{
    version     2.0;
    format      ascii;
    class       volScalarField;
    location    "30";
    object      p;
}
// * * * * * * * * * * * * * * * * * * * * * * * * * * * * * * * * * * * * * //

dimensions      [0 2 -2 0 0 0 0];

internalField   nonuniform List<scalar> 
34500
(
1.00506
1.00482
1.00476
1.00492
1.00492
1.00463
1.00406
1.00345
1.00282
1.00227
1.00174
1.0013
1.00087
1.00064
1.00057
1.00507
1.00484
1.00482
1.00503
1.00513
1.00495
1.00445
1.00387
1.00326
1.00269
1.00211
1.00161
1.0011
1.00086
1.00071
1.00507
1.00482
1.00474
1.00488
1.00495
1.00475
1.00424
1.00363
1.00299
1.00241
1.00185
1.00137
1.0009
1.00074
1.00059
1.00508
1.0048
1.00467
1.00474
1.00476
1.00455
1.00404
1.00342
1.00277
1.00218
1.00164
1.00119
1.00078
1.00069
1.0006
1.00509
1.00481
1.00465
1.00466
1.00466
1.00447
1.00399
1.00339
1.00274
1.00215
1.0016
1.00117
1.00077
1.00071
1.00067
1.0051
1.00484
1.00465
1.0046
1.00458
1.00439
1.00394
1.00338
1.00275
1.00215
1.00159
1.00115
1.00077
1.00073
1.00071
1.00512
1.00487
1.00465
1.00455
1.00447
1.00428
1.00386
1.00333
1.00272
1.00214
1.00158
1.00114
1.00076
1.00074
1.00075
1.00515
1.00492
1.00468
1.00451
1.00438
1.00416
1.00374
1.00324
1.00267
1.00211
1.00157
1.00114
1.00077
1.00076
1.0008
1.00518
1.00498
1.00473
1.00451
1.00433
1.00407
1.00363
1.00314
1.00259
1.00206
1.00155
1.00114
1.00079
1.0008
1.00085
1.00521
1.00506
1.00481
1.00456
1.00433
1.00404
1.00358
1.00307
1.00252
1.00201
1.00153
1.00114
1.00082
1.00084
1.0009
1.00525
1.00515
1.00492
1.00465
1.0044
1.0041
1.00362
1.00309
1.00253
1.00202
1.00155
1.00118
1.00087
1.0009
1.00097
1.00529
1.00524
1.00504
1.00478
1.00452
1.00423
1.00377
1.00322
1.00264
1.00211
1.00164
1.00127
1.00096
1.00097
1.00104
1.00533
1.00534
1.00517
1.00491
1.00465
1.00438
1.00396
1.00342
1.00283
1.00228
1.00178
1.00139
1.00108
1.00106
1.0011
1.00537
1.00543
1.00529
1.00503
1.00475
1.0045
1.00411
1.00361
1.00302
1.00246
1.00194
1.00153
1.00119
1.00114
1.00115
1.00541
1.0055
1.0054
1.00512
1.00481
1.00454
1.00418
1.00372
1.00315
1.0026
1.00207
1.00164
1.00128
1.00121
1.0012
1.00544
1.00557
1.00551
1.00522
1.00485
1.00455
1.00418
1.00375
1.00322
1.00268
1.00217
1.00173
1.00136
1.00127
1.00124
1.00546
1.00564
1.00562
1.00534
1.00493
1.00457
1.00418
1.00375
1.00325
1.00274
1.00224
1.00181
1.00144
1.00134
1.00128
1.00548
1.0057
1.00575
1.00551
1.00509
1.00467
1.00423
1.00379
1.00329
1.00281
1.00232
1.0019
1.00153
1.00141
1.00132
1.00549
1.00575
1.00589
1.00573
1.00533
1.00488
1.00439
1.00391
1.0034
1.00292
1.00244
1.00201
1.00162
1.00147
1.00134
1.0055
1.00579
1.00601
1.00596
1.00563
1.00517
1.00464
1.00411
1.00358
1.00307
1.00257
1.00212
1.00171
1.00153
1.00135
1.0055
1.00581
1.0061
1.00617
1.00592
1.00549
1.00494
1.00437
1.00378
1.00324
1.00271
1.00222
1.00177
1.00156
1.00134
1.0055
1.0058
1.00614
1.0063
1.00615
1.00578
1.00522
1.00461
1.00398
1.00338
1.00281
1.00228
1.0018
1.00155
1.00131
1.0055
1.00576
1.00611
1.00633
1.00627
1.00596
1.00542
1.00479
1.00412
1.00348
1.00286
1.00229
1.00179
1.00152
1.00126
1.0055
1.0057
1.00601
1.00625
1.00625
1.006
1.0055
1.00486
1.00416
1.00349
1.00284
1.00225
1.00174
1.00147
1.00121
1.0055
1.00562
1.00586
1.00607
1.0061
1.0059
1.00544
1.00482
1.00411
1.00342
1.00276
1.00217
1.00166
1.00141
1.00115
1.0055
1.00555
1.00569
1.00583
1.00584
1.00567
1.00525
1.00466
1.00397
1.00329
1.00264
1.00205
1.00157
1.00134
1.00111
1.00552
1.00548
1.00552
1.00556
1.00553
1.00537
1.00499
1.00444
1.00378
1.00312
1.0025
1.00194
1.00149
1.00129
1.00108
1.00554
1.00544
1.00537
1.0053
1.00522
1.00505
1.0047
1.00419
1.00357
1.00295
1.00236
1.00184
1.00143
1.00126
1.00106
1.00557
1.00543
1.00527
1.0051
1.00494
1.00475
1.00442
1.00395
1.00338
1.0028
1.00225
1.00177
1.0014
1.00125
1.00105
1.00561
1.00544
1.00522
1.00497
1.00474
1.00452
1.0042
1.00376
1.00323
1.00269
1.00218
1.00173
1.00139
1.00125
1.00106
1.00567
1.00549
1.00523
1.00492
1.00463
1.00438
1.00405
1.00364
1.00314
1.00263
1.00216
1.00174
1.00142
1.00128
1.00108
1.00572
1.00557
1.0053
1.00495
1.00461
1.00433
1.004
1.00359
1.00311
1.00263
1.00218
1.00177
1.00146
1.00132
1.0011
1.00579
1.00566
1.00542
1.00505
1.00468
1.00437
1.00402
1.00362
1.00315
1.00268
1.00224
1.00184
1.00152
1.00137
1.00113
1.00586
1.00578
1.00557
1.0052
1.00482
1.00448
1.00412
1.00371
1.00324
1.00277
1.00233
1.00192
1.00159
1.00142
1.00116
1.00593
1.0059
1.00573
1.00539
1.005
1.00465
1.00427
1.00384
1.00337
1.00289
1.00244
1.00201
1.00166
1.00147
1.00118
1.00601
1.00602
1.00591
1.0056
1.00522
1.00485
1.00446
1.00401
1.00351
1.00302
1.00255
1.0021
1.00174
1.00152
1.00121
1.00608
1.00613
1.00607
1.0058
1.00544
1.00506
1.00465
1.00418
1.00367
1.00315
1.00266
1.00219
1.0018
1.00156
1.00123
1.00615
1.00624
1.00623
1.00599
1.00565
1.00527
1.00484
1.00435
1.00381
1.00327
1.00276
1.00227
1.00186
1.0016
1.00124
1.00622
1.00634
1.00637
1.00617
1.00584
1.00546
1.00502
1.00451
1.00395
1.00339
1.00285
1.00234
1.00191
1.00163
1.00126
1.00629
1.00643
1.00649
1.00632
1.006
1.00563
1.00518
1.00465
1.00407
1.00349
1.00293
1.00239
1.00195
1.00165
1.00127
1.00635
1.00651
1.0066
1.00645
1.00614
1.00577
1.00532
1.00477
1.00417
1.00357
1.00299
1.00244
1.00198
1.00167
1.00128
1.00641
1.00658
1.00669
1.00655
1.00626
1.00588
1.00542
1.00487
1.00425
1.00363
1.00304
1.00247
1.00201
1.00169
1.00129
1.00647
1.00664
1.00676
1.00663
1.00635
1.00597
1.00551
1.00495
1.00432
1.00369
1.00308
1.0025
1.00203
1.0017
1.0013
1.00652
1.00671
1.00682
1.0067
1.00642
1.00604
1.00558
1.00501
1.00437
1.00373
1.00312
1.00253
1.00204
1.00172
1.0013
1.00658
1.00676
1.00688
1.00675
1.00647
1.0061
1.00563
1.00506
1.00441
1.00376
1.00314
1.00255
1.00206
1.00173
1.00131
1.00664
1.00682
1.00693
1.0068
1.00652
1.00614
1.00568
1.0051
1.00445
1.00379
1.00317
1.00257
1.00207
1.00174
1.00132
1.0067
1.00688
1.00698
1.00685
1.00656
1.00618
1.00571
1.00513
1.00448
1.00382
1.00319
1.00258
1.00209
1.00175
1.00133
1.00676
1.00694
1.00704
1.0069
1.0066
1.00622
1.00575
1.00516
1.00451
1.00384
1.00321
1.0026
1.0021
1.00176
1.00135
1.00682
1.007
1.00709
1.00694
1.00664
1.00626
1.00579
1.0052
1.00454
1.00387
1.00323
1.00261
1.00211
1.00177
1.00136
1.00688
1.00706
1.00715
1.007
1.00669
1.0063
1.00583
1.00523
1.00457
1.0039
1.00325
1.00263
1.00213
1.00178
1.00137
1.00695
1.00713
1.00721
1.00705
1.00674
1.00635
1.00587
1.00527
1.0046
1.00392
1.00328
1.00265
1.00214
1.0018
1.00138
1.00703
1.0072
1.00728
1.00712
1.0068
1.0064
1.00592
1.00531
1.00464
1.00396
1.0033
1.00267
1.00216
1.00181
1.0014
1.0071
1.00728
1.00735
1.00718
1.00686
1.00645
1.00597
1.00536
1.00468
1.00399
1.00333
1.00269
1.00217
1.00182
1.00141
1.00718
1.00735
1.00743
1.00726
1.00693
1.00652
1.00602
1.00541
1.00472
1.00402
1.00336
1.00271
1.00218
1.00183
1.00143
1.00726
1.00743
1.00751
1.00733
1.007
1.00658
1.00608
1.00546
1.00477
1.00406
1.00338
1.00273
1.0022
1.00184
1.00144
1.00734
1.00752
1.0076
1.00742
1.00708
1.00665
1.00615
1.00552
1.00482
1.0041
1.00341
1.00275
1.00221
1.00185
1.00145
1.00742
1.00761
1.00768
1.0075
1.00716
1.00673
1.00621
1.00558
1.00486
1.00414
1.00344
1.00277
1.00222
1.00186
1.00146
1.00751
1.00769
1.00777
1.00759
1.00724
1.0068
1.00628
1.00564
1.00491
1.00418
1.00347
1.00278
1.00223
1.00187
1.00147
1.0076
1.00779
1.00787
1.00768
1.00733
1.00688
1.00635
1.0057
1.00496
1.00421
1.0035
1.0028
1.00224
1.00188
1.00148
1.00769
1.00788
1.00796
1.00778
1.00742
1.00697
1.00643
1.00576
1.00502
1.00425
1.00352
1.00282
1.00225
1.00188
1.00149
1.00778
1.00798
1.00806
1.00787
1.00751
1.00705
1.0065
1.00583
1.00507
1.00429
1.00355
1.00283
1.00226
1.00189
1.0015
1.00788
1.00807
1.00816
1.00797
1.00761
1.00714
1.00658
1.00589
1.00512
1.00433
1.00358
1.00285
1.00227
1.00189
1.00151
1.00797
1.00817
1.00826
1.00807
1.00771
1.00723
1.00666
1.00595
1.00517
1.00437
1.0036
1.00286
1.00227
1.00189
1.00151
1.00807
1.00827
1.00837
1.00818
1.0078
1.00732
1.00674
1.00602
1.00522
1.00441
1.00363
1.00287
1.00228
1.0019
1.00152
1.00817
1.00838
1.00847
1.00828
1.0079
1.00741
1.00681
1.00609
1.00527
1.00445
1.00365
1.00289
1.00228
1.0019
1.00152
1.00827
1.00848
1.00858
1.00839
1.00801
1.0075
1.00689
1.00615
1.00533
1.00448
1.00367
1.0029
1.00228
1.00189
1.00152
1.00837
1.00859
1.00869
1.0085
1.00811
1.00759
1.00698
1.00622
1.00538
1.00452
1.00369
1.0029
1.00228
1.00189
1.00152
1.00848
1.0087
1.0088
1.00861
1.00821
1.00768
1.00706
1.00629
1.00543
1.00455
1.00372
1.00291
1.00228
1.00189
1.00151
1.00859
1.00881
1.00892
1.00872
1.00832
1.00778
1.00714
1.00635
1.00548
1.00459
1.00374
1.00292
1.00228
1.00188
1.00151
1.0087
1.00893
1.00903
1.00883
1.00843
1.00788
1.00722
1.00642
1.00553
1.00462
1.00375
1.00293
1.00227
1.00187
1.0015
1.00881
1.00904
1.00915
1.00895
1.00854
1.00798
1.00731
1.00649
1.00558
1.00466
1.00377
1.00293
1.00227
1.00186
1.00149
1.00892
1.00916
1.00927
1.00907
1.00865
1.00808
1.00739
1.00656
1.00564
1.00469
1.00379
1.00293
1.00226
1.00185
1.00148
1.00904
1.00928
1.0094
1.00919
1.00876
1.00818
1.00748
1.00663
1.00569
1.00473
1.00381
1.00294
1.00225
1.00184
1.00147
1.00916
1.0094
1.00952
1.00931
1.00888
1.00828
1.00757
1.0067
1.00574
1.00476
1.00383
1.00294
1.00224
1.00183
1.00145
1.00928
1.00953
1.00965
1.00943
1.00899
1.00839
1.00766
1.00677
1.00579
1.0048
1.00384
1.00294
1.00223
1.00181
1.00143
1.0094
1.00966
1.00978
1.00956
1.00911
1.00849
1.00775
1.00685
1.00585
1.00483
1.00386
1.00294
1.00222
1.00179
1.00141
1.00953
1.00979
1.00991
1.00969
1.00924
1.0086
1.00784
1.00692
1.0059
1.00487
1.00387
1.00294
1.00221
1.00177
1.00139
1.00965
1.00992
1.01005
1.00982
1.00936
1.00871
1.00793
1.00699
1.00595
1.0049
1.00389
1.00294
1.0022
1.00175
1.00137
1.00978
1.01005
1.01019
1.00996
1.00949
1.00883
1.00803
1.00707
1.00601
1.00493
1.0039
1.00294
1.00218
1.00173
1.00134
1.00992
1.01019
1.01033
1.0101
1.00962
1.00894
1.00813
1.00715
1.00606
1.00497
1.00392
1.00293
1.00216
1.00171
1.00131
1.01005
1.01033
1.01047
1.01024
1.00975
1.00906
1.00822
1.00722
1.00612
1.005
1.00393
1.00293
1.00214
1.00168
1.00128
1.01019
1.01048
1.01062
1.01038
1.00988
1.00918
1.00833
1.0073
1.00618
1.00504
1.00394
1.00292
1.00213
1.00165
1.00125
1.01033
1.01062
1.01077
1.01053
1.01002
1.0093
1.00843
1.00738
1.00623
1.00507
1.00395
1.00291
1.0021
1.00162
1.00121
1.01047
1.01077
1.01092
1.01068
1.01016
1.00943
1.00853
1.00747
1.00629
1.0051
1.00397
1.00291
1.00208
1.00159
1.00117
1.01062
1.01093
1.01108
1.01083
1.01031
1.00955
1.00864
1.00755
1.00635
1.00514
1.00398
1.0029
1.00206
1.00155
1.00113
1.01077
1.01108
1.01124
1.01098
1.01045
1.00968
1.00875
1.00764
1.00641
1.00517
1.00399
1.00289
1.00203
1.00152
1.00108
1.01092
1.01124
1.0114
1.01114
1.0106
1.00982
1.00886
1.00772
1.00647
1.00521
1.004
1.00288
1.002
1.00148
1.00104
1.01108
1.0114
1.01157
1.01131
1.01075
1.00995
1.00897
1.00781
1.00653
1.00524
1.00401
1.00286
1.00197
1.00144
1.00099
1.01123
1.01157
1.01174
1.01147
1.01091
1.01009
1.00909
1.0079
1.0066
1.00528
1.00402
1.00285
1.00194
1.00139
1.00093
1.0114
1.01174
1.01191
1.01164
1.01107
1.01023
1.00921
1.00799
1.00666
1.00532
1.00402
1.00284
1.00191
1.00135
1.00088
1.01156
1.01191
1.01209
1.01181
1.01123
1.01038
1.00933
1.00809
1.00672
1.00535
1.00403
1.00282
1.00187
1.0013
1.00082
1.01173
1.01208
1.01227
1.01199
1.0114
1.01053
1.00945
1.00818
1.00679
1.00539
1.00404
1.0028
1.00183
1.00125
1.00076
1.0119
1.01226
1.01245
1.01217
1.01157
1.01068
1.00958
1.00828
1.00686
1.00542
1.00405
1.00278
1.00179
1.00119
1.00069
1.01207
1.01245
1.01264
1.01235
1.01174
1.01083
1.0097
1.00838
1.00692
1.00546
1.00405
1.00276
1.00175
1.00113
1.00063
1.01225
1.01263
1.01283
1.01254
1.01191
1.01099
1.00983
1.00848
1.00699
1.00549
1.00406
1.00274
1.00171
1.00107
1.00055
1.01243
1.01282
1.01303
1.01273
1.0121
1.01115
1.00997
1.00858
1.00706
1.00553
1.00406
1.00272
1.00166
1.00101
1.00048
1.01262
1.01302
1.01323
1.01293
1.01228
1.01131
1.0101
1.00869
1.00713
1.00557
1.00406
1.00269
1.00161
1.00094
1.0004
1.01281
1.01322
1.01344
1.01313
1.01247
1.01148
1.01024
1.00879
1.0072
1.0056
1.00407
1.00266
1.00156
1.00087
1.00032
1.013
1.01342
1.01364
1.01333
1.01266
1.01165
1.01038
1.0089
1.00728
1.00564
1.00407
1.00263
1.0015
1.0008
1.00023
1.0132
1.01363
1.01386
1.01354
1.01286
1.01182
1.01053
1.00901
1.00735
1.00567
1.00407
1.0026
1.00145
1.00072
1.00014
1.0134
1.01384
1.01407
1.01376
1.01306
1.012
1.01068
1.00913
1.00742
1.00571
1.00407
1.00257
1.00139
1.00064
1.00005
1.0136
1.01405
1.0143
1.01397
1.01326
1.01218
1.01083
1.00924
1.0075
1.00575
1.00406
1.00253
1.00132
1.00056
0.999953
1.01381
1.01427
1.01452
1.0142
1.01347
1.01237
1.01098
1.00936
1.00757
1.00578
1.00406
1.00249
1.00126
1.00047
0.99985
1.01402
1.0145
1.01475
1.01442
1.01368
1.01256
1.01114
1.00948
1.00765
1.00582
1.00405
1.00245
1.00119
1.00038
0.999744
1.01424
1.01473
1.01499
1.01466
1.0139
1.01275
1.0113
1.0096
1.00773
1.00585
1.00405
1.00241
1.00111
1.00029
0.999633
1.01446
1.01496
1.01523
1.01489
1.01412
1.01295
1.01146
1.00972
1.00781
1.00589
1.00404
1.00236
1.00104
1.00019
0.999519
1.01469
1.0152
1.01548
1.01513
1.01435
1.01315
1.01163
1.00984
1.00789
1.00592
1.00403
1.00232
1.00096
1.00008
0.999398
1.01492
1.01544
1.01573
1.01538
1.01458
1.01335
1.0118
1.00997
1.00797
1.00595
1.00402
1.00226
1.00088
0.999975
0.999274
1.01516
1.01569
1.01599
1.01563
1.01482
1.01356
1.01197
1.0101
1.00805
1.00598
1.004
1.00221
1.00079
0.999861
0.999144
1.0154
1.01595
1.01625
1.01589
1.01506
1.01378
1.01214
1.01023
1.00813
1.00602
1.00399
1.00215
1.0007
0.999744
0.999009
1.01564
1.01621
1.01652
1.01615
1.0153
1.01399
1.01232
1.01036
1.00821
1.00605
1.00397
1.00209
1.0006
0.999621
0.998869
1.01589
1.01647
1.01679
1.01642
1.01555
1.01422
1.01251
1.0105
1.0083
1.00608
1.00395
1.00203
1.0005
0.999494
0.998724
1.01615
1.01674
1.01707
1.01669
1.01581
1.01444
1.01269
1.01063
1.00838
1.00611
1.00393
1.00196
1.0004
0.999361
0.998572
1.01641
1.01702
1.01735
1.01697
1.01607
1.01467
1.01288
1.01077
1.00846
1.00614
1.00391
1.00189
1.00029
0.999224
0.998416
1.01667
1.0173
1.01764
1.01726
1.01634
1.01491
1.01307
1.01091
1.00855
1.00616
1.00388
1.00181
1.00017
0.999079
0.998252
1.01695
1.01759
1.01794
1.01755
1.01661
1.01515
1.01327
1.01106
1.00863
1.00619
1.00385
1.00174
1.00005
0.998931
0.998084
1.01722
1.01788
1.01824
1.01785
1.01689
1.0154
1.01347
1.0112
1.00872
1.00621
1.00381
1.00165
0.999929
0.998775
0.997908
1.01751
1.01818
1.01855
1.01815
1.01717
1.01565
1.01367
1.01135
1.0088
1.00624
1.00378
1.00157
0.9998
0.998614
0.997727
1.0178
1.01849
1.01886
1.01846
1.01746
1.0159
1.01388
1.0115
1.00889
1.00626
1.00374
1.00147
0.999665
0.998446
0.997537
1.01809
1.0188
1.01919
1.01878
1.01776
1.01616
1.01409
1.01165
1.00897
1.00628
1.0037
1.00138
0.999525
0.998273
0.997343
1.01839
1.01912
1.01951
1.0191
1.01806
1.01642
1.0143
1.0118
1.00906
1.00629
1.00365
1.00127
0.999377
0.998091
0.99714
1.0187
1.01945
1.01985
1.01943
1.01837
1.01669
1.01452
1.01195
1.00914
1.00631
1.0036
1.00117
0.999225
0.997904
0.996931
1.01901
1.01978
1.02019
1.01977
1.01868
1.01697
1.01474
1.01211
1.00923
1.00632
1.00355
1.00106
0.999065
0.997709
0.996713
1.01934
1.02012
1.02054
1.02011
1.019
1.01725
1.01496
1.01227
1.00931
1.00633
1.00349
1.00094
0.998901
0.997507
0.996489
1.01966
1.02047
1.0209
1.02046
1.01933
1.01753
1.01519
1.01243
1.0094
1.00634
1.00343
1.00082
0.998727
0.997297
0.996255
1.02
1.02082
1.02126
1.02082
1.01966
1.01782
1.01542
1.01259
1.00948
1.00635
1.00336
1.00069
0.998549
0.997081
0.996015
1.02034
1.02118
1.02164
1.02118
1.02
1.01812
1.01566
1.01275
1.00956
1.00635
1.00329
1.00055
0.998361
0.996854
0.995765
1.02069
1.02155
1.02202
1.02156
1.02035
1.01842
1.0159
1.01291
1.00965
1.00635
1.00321
1.00041
0.998168
0.996622
0.995508
1.02104
1.02193
1.0224
1.02194
1.0207
1.01873
1.01614
1.01308
1.00973
1.00635
1.00313
1.00026
0.997965
0.996379
0.99524
1.02141
1.02231
1.0228
1.02233
1.02107
1.01904
1.01639
1.01325
1.00981
1.00634
1.00304
1.00011
0.997756
0.996129
0.994965
1.02178
1.02271
1.02321
1.02272
1.02143
1.01936
1.01664
1.01341
1.00989
1.00633
1.00295
0.999943
0.997537
0.995869
0.99468
1.02216
1.02311
1.02362
1.02313
1.02181
1.01968
1.01689
1.01358
1.00996
1.00631
1.00285
0.999774
0.997311
0.995601
0.994386
1.02255
1.02352
1.02404
1.02354
1.02219
1.02001
1.01715
1.01375
1.01004
1.00629
1.00275
0.999595
0.997075
0.995321
0.994081
1.02294
1.02394
1.02447
1.02397
1.02259
1.02035
1.01741
1.01393
1.01011
1.00627
1.00264
0.99941
0.996831
0.995034
0.993767
1.02335
1.02437
1.02491
1.0244
1.02299
1.02069
1.01768
1.0141
1.01018
1.00624
1.00252
0.999216
0.996576
0.994735
0.993442
1.02376
1.02481
1.02536
1.02484
1.02339
1.02104
1.01795
1.01427
1.01025
1.00621
1.0024
0.999014
0.996314
0.994428
0.993108
1.02418
1.02526
1.02582
1.02529
1.02381
1.0214
1.01822
1.01444
1.01032
1.00617
1.00226
0.998801
0.996039
0.994108
0.992761
1.02462
1.02571
1.02629
1.02575
1.02423
1.02176
1.0185
1.01462
1.01039
1.00613
1.00212
0.998581
0.995756
0.99378
0.992405
1.02506
1.02618
1.02677
1.02622
1.02467
1.02213
1.01878
1.01479
1.01045
1.00608
1.00198
0.99835
0.995461
0.993438
0.992036
1.02551
1.02666
1.02727
1.0267
1.02511
1.0225
1.01906
1.01497
1.01051
1.00603
1.00182
0.998111
0.995157
0.993087
0.991658
1.02597
1.02715
1.02777
1.02719
1.02556
1.02289
1.01935
1.01514
1.01056
1.00597
1.00166
0.99786
0.99484
0.992723
0.991266
1.02644
1.02764
1.02828
1.02769
1.02602
1.02327
1.01964
1.01532
1.01061
1.0059
1.00148
0.9976
0.994512
0.992348
0.990863
1.02692
1.02815
1.0288
1.0282
1.02649
1.02367
1.01993
1.01549
1.01066
1.00583
1.0013
0.997327
0.994172
0.99196
0.990447
1.02741
1.02868
1.02934
1.02873
1.02697
1.02407
1.02023
1.01566
1.01071
1.00574
1.00111
0.997044
0.993821
0.99156
0.99002
1.02791
1.02921
1.02989
1.02926
1.02746
1.02448
1.02053
1.01584
1.01074
1.00565
1.0009
0.996749
0.993455
0.991147
0.989579
1.02843
1.02975
1.03045
1.02981
1.02795
1.0249
1.02083
1.01601
1.01078
1.00556
1.00069
0.996442
0.993079
0.990721
0.989127
1.02895
1.03031
1.03102
1.03037
1.02846
1.02532
1.02114
1.01618
1.01081
1.00545
1.00047
0.996122
0.992687
0.990281
0.98866
1.02949
1.03088
1.0316
1.03094
1.02898
1.02575
1.02145
1.01635
1.01083
1.00533
1.00023
0.99579
0.992284
0.989829
0.988181
1.03004
1.03146
1.0322
1.03152
1.02951
1.02619
1.02176
1.01651
1.01084
1.00521
0.999981
0.995443
0.991865
0.989361
0.987687
1.0306
1.03206
1.03281
1.03212
1.03005
1.02663
1.02208
1.01668
1.01085
1.00507
0.999721
0.995084
0.991432
0.98888
0.987181
1.03117
1.03266
1.03344
1.03273
1.0306
1.02708
1.02239
1.01684
1.01086
1.00493
0.999448
0.99471
0.990984
0.988383
0.986659
1.03176
1.03329
1.03408
1.03335
1.03116
1.02754
1.02271
1.017
1.01085
1.00477
0.999161
0.994322
0.990522
0.987873
0.986125
1.03236
1.03392
1.03473
1.03399
1.03174
1.028
1.02303
1.01715
1.01084
1.0046
0.99886
0.993917
0.990043
0.987345
0.985575
1.03298
1.03458
1.0354
1.03464
1.03232
1.02848
1.02335
1.0173
1.01082
1.00442
0.998545
0.993498
0.989549
0.986804
0.985012
1.03361
1.03524
1.03609
1.03531
1.03292
1.02895
1.02368
1.01745
1.01078
1.00423
0.998215
0.993062
0.989038
0.986245
0.984432
1.03425
1.03593
1.03679
1.03599
1.03353
1.02944
1.024
1.01759
1.01074
1.00402
0.997869
0.99261
0.988511
0.985671
0.983839
1.03491
1.03663
1.03751
1.03669
1.03415
1.02993
1.02432
1.01772
1.01069
1.0038
0.997506
0.99214
0.987965
0.985078
0.983229
1.03558
1.03734
1.03825
1.0374
1.03478
1.03043
1.02465
1.01785
1.01063
1.00356
0.997128
0.991653
0.987403
0.98447
0.982605
1.03627
1.03807
1.039
1.03813
1.03543
1.03094
1.02497
1.01798
1.01055
1.00331
0.99673
0.991147
0.986821
0.983843
0.981963
1.03698
1.03882
1.03977
1.03888
1.03609
1.03146
1.0253
1.01809
1.01046
1.00304
0.996316
0.990623
0.986221
0.983199
0.981307
1.0377
1.03959
1.04056
1.03964
1.03676
1.03197
1.02562
1.0182
1.01036
1.00275
0.995881
0.990079
0.985602
0.982535
0.980632
1.03844
1.04038
1.04137
1.04042
1.03745
1.0325
1.02594
1.0183
1.01024
1.00245
0.995428
0.989515
0.984963
0.981854
0.979942
1.0392
1.04118
1.0422
1.04122
1.03815
1.03303
1.02626
1.01838
1.01011
1.00213
0.994954
0.98893
0.984303
0.981152
0.979233
1.03997
1.04201
1.04305
1.04204
1.03886
1.03357
1.02658
1.01846
1.00996
1.00178
0.994459
0.988325
0.983624
0.980432
0.978509
1.04077
1.04285
1.04392
1.04288
1.03959
1.03412
1.02689
1.01853
1.00979
1.00142
0.993942
0.987697
0.982922
0.979691
0.977764
1.04158
1.04372
1.04481
1.04374
1.04033
1.03467
1.0272
1.01858
1.00961
1.00103
0.993403
0.987047
0.9822
0.978931
0.977005
1.04242
1.04461
1.04573
1.04461
1.04108
1.03522
1.0275
1.01862
1.00941
1.00063
0.992839
0.986373
0.981455
0.978148
0.976223
1.04327
1.04552
1.04667
1.04551
1.04185
1.03578
1.0278
1.01864
1.00918
1.0002
0.992252
0.985676
0.980688
0.977346
0.975427
1.04415
1.04645
1.04763
1.04643
1.04263
1.03634
1.02809
1.01865
1.00893
0.99974
0.991639
0.984954
0.979896
0.976521
0.974608
1.04505
1.04741
1.04861
1.04737
1.04343
1.03691
1.02837
1.01864
1.00866
0.999259
0.991
0.984207
0.979082
0.975677
0.973773
1.04597
1.04839
1.04962
1.04833
1.04424
1.03748
1.02865
1.01862
1.00837
0.99875
0.990333
0.983433
0.978243
0.974808
0.972915
1.04692
1.0494
1.05066
1.04932
1.04507
1.03805
1.02891
1.01857
1.00805
0.998214
0.98964
0.982633
0.97738
0.973919
0.972041
1.04789
1.05043
1.05172
1.05033
1.04591
1.03863
1.02917
1.0185
1.0077
0.997648
0.988916
0.981806
0.97649
0.973005
0.971143
1.04888
1.05149
1.05281
1.05136
1.04677
1.03921
1.02941
1.01841
1.00733
0.997052
0.988163
0.980951
0.975577
0.97207
0.970229
1.0499
1.05258
1.05393
1.05242
1.04764
1.03978
1.02964
1.0183
1.00692
0.996423
0.987379
0.980066
0.974636
0.97111
0.96929
1.05094
1.0537
1.05508
1.05351
1.04852
1.04036
1.02985
1.01816
1.00649
0.995762
0.986562
0.979153
0.97367
0.970129
0.968334
1.05202
1.05484
1.05626
1.05462
1.04943
1.04093
1.03004
1.01799
1.00602
0.995066
0.985713
0.978208
0.972675
0.969121
0.967352
1.05312
1.05602
1.05747
1.05575
1.05034
1.04151
1.03022
1.01779
1.00551
0.994334
0.984829
0.977234
0.971655
0.968092
0.966352
1.05425
1.05723
1.05872
1.05692
1.05127
1.04208
1.03038
1.01756
1.00497
0.993564
0.98391
0.976227
0.970605
0.967035
0.965327
1.05541
1.05847
1.05999
1.05811
1.05221
1.04264
1.03051
1.0173
1.00439
0.992756
0.982955
0.975188
0.969529
0.965956
0.964282
1.05661
1.05975
1.06131
1.05933
1.05317
1.0432
1.03062
1.017
1.00377
0.991906
0.981962
0.974116
0.968422
0.964849
0.963211
1.05783
1.06106
1.06265
1.06058
1.05413
1.04375
1.0307
1.01666
1.0031
0.991015
0.980932
0.973011
0.967288
0.963719
0.962121
1.05909
1.0624
1.06404
1.06185
1.05511
1.04428
1.03076
1.01629
1.00239
0.99008
0.979861
0.971872
0.966123
0.962561
0.961003
1.06038
1.06379
1.06546
1.06316
1.05611
1.04481
1.03078
1.01586
1.00164
0.9891
0.97875
0.970698
0.964929
0.961379
0.959866
1.06171
1.06521
1.06692
1.0645
1.05711
1.04532
1.03076
1.0154
1.00083
0.988073
0.977597
0.969488
0.963704
0.960168
0.9587
1.06308
1.06668
1.06842
1.06587
1.05812
1.04581
1.03071
1.01488
0.999974
0.986998
0.976402
0.968242
0.96245
0.958932
0.957514
1.06448
1.06818
1.06996
1.06727
1.05914
1.04629
1.03062
1.01431
0.999063
0.985872
0.975163
0.96696
0.961164
0.957667
0.956299
1.06593
1.06973
1.07155
1.0687
1.06016
1.04674
1.03048
1.01369
0.998096
0.984695
0.973881
0.965642
0.959848
0.956377
0.955063
1.06741
1.07133
1.07318
1.07016
1.06119
1.04716
1.03029
1.013
0.99707
0.983463
0.972552
0.964286
0.958499
0.955057
0.953798
1.06894
1.07297
1.07486
1.07165
1.06222
1.04756
1.03005
1.01226
0.995983
0.982178
0.971178
0.962892
0.95712
0.953711
0.952512
1.07052
1.07466
1.07658
1.07317
1.06325
1.04792
1.02976
1.01145
0.994832
0.980835
0.969756
0.961461
0.955708
0.952335
0.951197
1.07213
1.0764
1.07836
1.07473
1.06427
1.04824
1.0294
1.01057
0.993614
0.979434
0.968287
0.959991
0.954265
0.950933
0.949859
1.0738
1.07819
1.08018
1.07631
1.06529
1.04852
1.02897
1.00962
0.992327
0.977973
0.96677
0.958483
0.952789
0.9495
0.948493
1.07552
1.08004
1.08206
1.07793
1.0663
1.04875
1.02848
1.00859
0.990969
0.976452
0.965204
0.956937
0.951281
0.94804
0.947104
1.07729
1.08195
1.08399
1.07957
1.0673
1.04892
1.02791
1.00748
0.989536
0.974868
0.963589
0.955352
0.94974
0.946549
0.945685
1.07911
1.08391
1.08597
1.08124
1.06828
1.04904
1.02725
1.00628
0.988027
0.97322
0.961925
0.953729
0.948167
0.94503
0.944245
1.08098
1.08594
1.08801
1.08294
1.06923
1.04908
1.02651
1.005
0.986437
0.971507
0.96021
0.952066
0.946561
0.943481
0.942774
1.08292
1.08803
1.09012
1.08466
1.07016
1.04906
1.02567
1.00362
0.984766
0.969729
0.958446
0.950366
0.944922
0.941903
0.941282
1.08491
1.09019
1.09228
1.0864
1.07104
1.04895
1.02473
1.00215
0.98301
0.967883
0.956632
0.948627
0.94325
0.940294
0.93976
1.08697
1.09242
1.0945
1.08816
1.07189
1.04874
1.02368
1.00057
0.981168
0.96597
0.954768
0.94685
0.941546
0.938656
0.938216
1.08909
1.09473
1.09678
1.08994
1.07268
1.04844
1.02252
0.998882
0.979236
0.963988
0.952855
0.945036
0.939807
0.936986
0.936644
1.09128
1.09711
1.09913
1.09173
1.07342
1.04803
1.02123
0.997086
0.977213
0.961937
0.950892
0.943184
0.938036
0.935286
0.935049
1.09354
1.09957
1.10155
1.09352
1.07408
1.0475
1.01982
0.995175
0.975097
0.959818
0.948881
0.941295
0.936231
0.933555
0.933426
1.09587
1.10212
1.10403
1.09531
1.07466
1.04684
1.01827
0.993144
0.972885
0.957628
0.946823
0.939369
0.934393
0.931793
0.931782
1.09829
1.10476
1.10658
1.0971
1.07515
1.04604
1.01657
0.990989
0.970577
0.95537
0.944717
0.937408
0.93252
0.929999
0.930111
1.10078
1.10749
1.10919
1.09887
1.07554
1.04508
1.01472
0.988707
0.968171
0.953042
0.942566
0.935411
0.930613
0.928174
0.928419
1.10335
1.11033
1.11187
1.10061
1.0758
1.04395
1.01271
0.986294
0.965665
0.950647
0.94037
0.933379
0.928671
0.926316
0.926703
1.10602
1.11326
1.11462
1.10232
1.07592
1.04265
1.01054
0.983746
0.963058
0.948184
0.938131
0.931312
0.926694
0.924426
0.924967
1.10877
1.11631
1.11743
1.10399
1.0759
1.04115
1.00819
0.98106
0.96035
0.945655
0.935851
0.929211
0.924681
0.922502
0.923208
1.11163
1.11946
1.1203
1.10559
1.0757
1.03945
1.00565
0.978232
0.957541
0.943062
0.933532
0.927075
0.922631
0.920546
0.921432
1.11458
1.12275
1.12323
1.10711
1.07531
1.03752
1.00293
0.975262
0.95463
0.940406
0.931175
0.924906
0.920543
0.918555
0.919638
1.11765
1.12615
1.12622
1.10854
1.07471
1.03536
1.00001
0.972145
0.951618
0.937691
0.928782
0.922703
0.918415
0.916531
0.917829
1.12083
1.12969
1.12925
1.10985
1.07387
1.03295
0.996898
0.968881
0.948507
0.934919
0.926357
0.920465
0.916247
0.914473
0.916006
1.12412
1.13337
1.13231
1.11103
1.07277
1.03027
0.993574
0.965468
0.945297
0.932094
0.923901
0.918192
0.914037
0.912381
0.914172
1.12755
1.13719
1.13541
1.11203
1.07139
1.02732
0.99004
0.961906
0.941993
0.929221
0.921415
0.915883
0.911782
0.910255
0.912332
1.13111
1.14117
1.13852
1.11285
1.06969
1.02408
0.986291
0.958194
0.938595
0.926303
0.918904
0.913536
0.909481
0.908095
0.910488
1.13482
1.1453
1.14163
1.11344
1.06766
1.02053
0.982326
0.954335
0.935109
0.923346
0.916367
0.911148
0.907131
0.905904
0.908648
1.13868
1.1496
1.14472
1.11376
1.06526
1.01667
0.978141
0.950328
0.93154
0.920356
0.913808
0.908719
0.904729
0.903681
0.906813
1.14271
1.15406
1.14776
1.11379
1.06247
1.01248
0.973738
0.946178
0.927894
0.91734
0.911225
0.90624
0.902274
0.901431
0.904995
1.14692
1.15869
1.15074
1.11348
1.05925
1.00796
0.969115
0.941886
0.924179
0.914303
0.908621
0.903712
0.899761
0.899155
0.903195
1.15132
1.1635
1.15361
1.11277
1.05558
1.0031
0.964278
0.937461
0.920403
0.911255
0.905992
0.901123
0.897189
0.896859
0.901428
1.15593
1.16848
1.15634
1.11164
1.05143
0.997902
0.959225
0.932904
0.916577
0.908199
0.903338
0.898474
0.894556
0.894548
0.899697
1.16076
1.17363
1.15889
1.11001
1.04677
0.992355
0.953966
0.928229
0.912714
0.905146
0.900652
0.895748
0.891861
0.89223
0.898019
1.16584
1.17894
1.1612
1.10784
1.04158
0.986465
0.948503
0.92344
0.908826
0.902099
0.897932
0.892945
0.889104
0.889914
0.896399
1.17118
1.1844
1.16322
1.10507
1.03584
0.980235
0.942848
0.918556
0.904931
0.899064
0.895161
0.890047
0.886286
0.887613
0.894859
1.17681
1.19
1.16488
1.10164
1.02952
0.973673
0.937008
0.913587
0.901042
0.896042
0.892335
0.887052
0.883412
0.885341
0.893404
1.18275
1.19571
1.16611
1.09748
1.02263
0.966788
0.930998
0.908556
0.89718
0.893032
0.889429
0.883941
0.880489
0.883117
0.892058
1.18902
1.2015
1.16682
1.09255
1.01514
0.959598
0.924831
0.90348
0.893362
0.89003
0.886431
0.880713
0.877529
0.880962
0.890827
1.19567
1.20734
1.16693
1.08677
1.00705
0.952118
0.918529
0.898393
0.889605
0.887022
0.883307
0.877351
0.874546
0.8789
0.889735
1.20271
1.21316
1.16633
1.08008
0.998382
0.944371
0.912111
0.89332
0.885924
0.88399
0.880036
0.873859
0.871563
0.876957
0.888785
1.21018
1.21892
1.16491
1.07245
0.989135
0.936383
0.905612
0.888304
0.88233
0.880904
0.876578
0.870225
0.868606
0.875163
0.887991
1.21812
1.22452
1.16256
1.0638
0.979335
0.928186
0.899063
0.88338
0.878827
0.877725
0.872905
0.866464
0.865709
0.873542
0.887343
1.22655
1.22987
1.15914
1.05412
0.969014
0.919817
0.892518
0.878599
0.875408
0.874404
0.868978
0.862583
0.86291
0.872115
0.88683
1.23551
1.23485
1.15452
1.04336
0.958214
0.91132
0.886029
0.874003
0.872055
0.870882
0.864776
0.858619
0.860252
0.870889
0.886406
1.24502
1.23933
1.14857
1.03152
0.946985
0.90275
0.879673
0.869639
0.868732
0.867098
0.860288
0.854616
0.857782
0.869862
0.886006
1.25512
1.24313
1.14114
1.01858
0.935392
0.894173
0.873527
0.865537
0.86539
0.862997
0.855534
0.850654
0.855552
0.869009
0.885532
1.2658
1.24608
1.13207
1.00458
0.92351
0.885668
0.867681
0.861712
0.861964
0.858547
0.850576
0.846831
0.853609
0.868284
0.884863
1.27708
1.24793
1.12124
0.989538
0.911431
0.877328
0.862198
0.858134
0.858392
0.853778
0.845551
0.843285
0.851982
0.867598
0.883835
1.28894
1.24843
1.10849
0.97354
0.899272
0.869252
0.857108
0.854717
0.854614
0.848803
0.840699
0.840196
0.850671
0.866799
0.882212
1.30134
1.24727
1.09368
0.956697
0.887185
0.861532
0.852346
0.851281
0.850578
0.843858
0.83644
0.837896
0.849762
0.86577
0.879791
1.31419
1.24408
1.07671
0.939186
0.875368
0.854246
0.847745
0.84752
0.846136