1.45 	0 	0 	-0.00759089 	-0.00259748 	3.83993e-21
2.35 	0 	0 	0.0625857 	-0.00667257 	2.3647e-21
