/*--------------------------------*- C++ -*----------------------------------*\
  =========                 |
  \\      /  F ield         | OpenFOAM: The Open Source CFD Toolbox
   \\    /   O peration     | Website:  https://openfoam.org
    \\  /    A nd           | Version:  6.0
     \\/     M anipulation  |
\*---------------------------------------------------------------------------*/
FoamFile
{
    version     2.0;
    format      ascii;
    class       volScalarField;
    location    "21";
    object      p;
}
// * * * * * * * * * * * * * * * * * * * * * * * * * * * * * * * * * * * * * //

dimensions      [0 2 -2 0 0 0 0];

internalField   nonuniform List<scalar> 
2000
(
-0.349635
-0.355539
-0.357224
-0.356551
-0.354685
-0.352003
-0.348781
-0.345313
-0.341887
-0.338181
-0.352356
-0.35784
-0.359185
-0.35821
-0.356056
-0.353099
-0.349614
-0.345886
-0.342206
-0.33838
-0.357816
-0.362441
-0.363094
-0.36151
-0.358775
-0.355262
-0.351242
-0.346977
-0.342768
-0.338698
-0.366056
-0.369341
-0.368931
-0.36642
-0.362805
-0.358445
-0.353601
-0.348492
-0.343436
-0.338977
-0.377136
-0.378537
-0.376666
-0.372903
-0.368102
-0.362601
-0.356625
-0.350317
-0.344012
-0.338959
-0.391119
-0.390015
-0.386258
-0.380916
-0.374636
-0.367704
-0.360279
-0.352367
-0.344285
-0.338317
-0.408038
-0.403732
-0.397647
-0.390418
-0.3824
-0.373795
-0.364658
-0.35476
-0.344254
-0.336789
-0.427839
-0.419589
-0.410742
-0.40135
-0.391381
-0.380919
-0.369877
-0.357627
-0.343676
-0.333225
-0.450307
-0.437414
-0.425427
-0.413668
-0.401617
-0.389166
-0.375919
-0.36035
-0.340257
-0.322937
-0.475008
-0.456941
-0.441602
-0.427522
-0.41373
-0.400027
-0.385656
-0.367982
-0.342935
-0.31895
-0.501257
-0.477744
-0.458999
-0.442823
-0.428088
-0.415168
-0.404404
-0.396435
-0.396557
-0.416071
-0.528228
-0.499246
-0.476999
-0.458462
-0.442119
-0.428428
-0.417864
-0.411486
-0.414424
-0.431675
-0.555199
-0.520989
-0.49533
-0.474322
-0.455951
-0.44058
-0.428575
-0.420655
-0.419928
-0.427724
-0.58152
-0.5425
-0.513678
-0.490228
-0.469584
-0.451931
-0.437426
-0.426325
-0.420103
-0.418744
-0.606442
-0.563112
-0.531419
-0.505536
-0.482315
-0.461738
-0.443766
-0.428273
-0.415683
-0.406035
-0.628975
-0.58189
-0.547608
-0.519239
-0.493086
-0.469
-0.446858
-0.42635
-0.407309
-0.3905
-0.647836
-0.597625
-0.561014
-0.530052
-0.50061
-0.472545
-0.44582
-0.42013
-0.395058
-0.372385
-0.661463
-0.608859
-0.570174
-0.536493
-0.503457
-0.471115
-0.439684
-0.409011
-0.378646
-0.351453
-0.668095
-0.613956
-0.573468
-0.536968
-0.500153
-0.463456
-0.427488
-0.392328
-0.357609
-0.327204
-0.665866
-0.611175
-0.569199
-0.529867
-0.489265
-0.448397
-0.408345
-0.369443
-0.331433
-0.299051
-0.652919
-0.598775
-0.555699
-0.513661
-0.469503
-0.424933
-0.381528
-0.339831
-0.29967
-0.266459
-0.62752
-0.575114
-0.531431
-0.487011
-0.439808
-0.392305
-0.346531
-0.303155
-0.262033
-0.229059
-0.588196
-0.538786
-0.495117
-0.448881
-0.399444
-0.350065
-0.303127
-0.259322
-0.218458
-0.186715
-0.533851
-0.488731
-0.445847
-0.398619
-0.348055
-0.298115
-0.251396
-0.208513
-0.169151
-0.139568
-0.463882
-0.424353
-0.383174
-0.33603
-0.285699
-0.236705
-0.191717
-0.151178
-0.114586
-0.088046
-0.378287
-0.345617
-0.307191
-0.261404
-0.212836
-0.166398
-0.124689
-0.0879349
-0.0553998
-0.0327725
-0.277756
-0.253128
-0.218579
-0.175541
-0.130324
-0.0880349
-0.0510841
-0.0194838
0.00768697
0.0254256
-0.163728
-0.148175
-0.118625
-0.0797307
-0.0394002
-0.002758
0.0280401
0.0530574
0.0731327
0.0845182
-0.0384135
-0.0327307
-0.00917811
0.0243535
0.0585518
0.0883804
0.111825
0.128475
0.138414
0.140788
0.0952317
0.0905627
0.107347
0.134682
0.162209
0.185204
0.201696
0.210068
0.209037
0.20231
0.233632
0.218439
0.227847
0.248359
0.269114
0.286231
0.298439
0.303924
0.302879
0.3168
0.372891
0.347253
0.34871
0.361532
0.374556
0.384533
0.390588
0.391832
0.390757
0.403683
0.509066
0.473333
0.466526
0.471081
0.475736
0.477817
0.476755
0.472135
0.466444
0.471549
0.63831
0.593071
0.578005
0.574105
0.570207
0.56422
0.555885
0.545052
0.533794
0.530954
0.756962
0.703026
0.680052
0.667944
0.655779
0.642031
0.62672
0.609883
0.593213
0.583267
0.861636
0.800032
0.769849
0.750204
0.730496
0.709719
0.688132
0.66592
0.644404
0.628249
0.949315
0.881282
0.844908
0.818772
0.792608
0.765858
0.738978
0.712267
0.686691
0.665333
1.01745
0.944407
0.903136
0.871859
0.840612
0.809185
0.778188
0.748
0.719278
0.693863
1.06402
0.987557
0.942896
0.908063
0.873313
0.838676
0.804866
0.772315
0.741449
0.713248
1.08767
1.00946
0.963064
0.926413
0.889877
0.853608
0.818373
0.784626
0.752674
0.723054
1.08767
1.00946
0.963064
0.926413
0.889878
0.853609
0.818373
0.784627
0.752674
0.723054
1.06403
0.987559
0.942898
0.908065
0.873315
0.838678
0.804868
0.772316
0.74145
0.713249
1.01745
0.944411
0.903139
0.871863
0.840616
0.809188
0.778191
0.748002
0.719281
0.693865
0.949321
0.881287
0.844913
0.818776
0.792613
0.765862
0.738982
0.71227
0.686694
0.665336
0.861642
0.800038
0.769855
0.75021
0.730501
0.709724
0.688137
0.665924
0.644409
0.628253
0.75697
0.703034
0.68006
0.667951
0.655785
0.642037
0.626726
0.609889
0.593219
0.583272
0.63832
0.59308
0.578014
0.574113
0.570215
0.564228
0.555892
0.545059
0.533801
0.53096
0.509077
0.473344
0.466537
0.47109
0.475745
0.477825
0.476763
0.472143
0.466451
0.471556
0.372903
0.347265
0.348721
0.361543
0.374566
0.384542
0.390597
0.391841
0.390765
0.403691
0.233645
0.218452
0.227859
0.248371
0.269125
0.286242
0.29845
0.303934
0.302889
0.316809
0.0952461
0.0905767
0.10736
0.134694
0.162221
0.185216
0.201707
0.210078
0.209047
0.20232
-0.0383981
-0.0327156
-0.00916361
0.0243673
0.058565
0.0883929
0.111837
0.128487
0.138425
0.140799
-0.163712
-0.148159
-0.118609
-0.079716
-0.0393861
-0.00274458
0.0280528
0.0530696
0.0731444
0.0845295
-0.277739
-0.253111
-0.218563
-0.175525
-0.130309
-0.0880207
-0.0510705
-0.0194708
0.00769939
0.0254376
-0.37827
-0.345599
-0.307174
-0.261387
-0.21282
-0.166383
-0.124674
-0.0879212
-0.0553867
-0.0327598
-0.463864
-0.424335
-0.383157
-0.336012
-0.285682
-0.236689
-0.191702
-0.151164
-0.114572
-0.0880328
-0.533832
-0.488713
-0.445829
-0.398601
-0.348038
-0.298098
-0.251381
-0.208498
-0.169136
-0.139555
-0.588177
-0.538767
-0.495098
-0.448862
-0.399426
-0.350048
-0.30311
-0.259307
-0.218443
-0.186701
-0.6275
-0.575094
-0.531411
-0.486992
-0.43979
-0.392287
-0.346514
-0.303139
-0.262017
-0.229044
-0.652898
-0.598755
-0.555679
-0.513641
-0.469484
-0.424915
-0.381511
-0.339814
-0.299654
-0.266444
-0.665845
-0.611155
-0.569179
-0.529847
-0.489246
-0.448378
-0.408327
-0.369425
-0.331416
-0.299035
-0.668075
-0.613936
-0.573448
-0.536949
-0.500133
-0.463437
-0.427469
-0.39231
-0.357592
-0.327187
-0.661443
-0.608839
-0.570154
-0.536473
-0.503438
-0.471096
-0.439665
-0.408993
-0.378629
-0.351436
-0.647815
-0.597604
-0.560994
-0.530032
-0.50059
-0.472525
-0.445801
-0.420112
-0.39504
-0.372368
-0.628955
-0.58187
-0.547588
-0.519219
-0.493066
-0.468981
-0.446839
-0.426331
-0.407291
-0.390482
-0.606422
-0.563092
-0.531399
-0.505516
-0.482295
-0.461719
-0.443746
-0.428254
-0.415664
-0.406017
-0.5815
-0.542481
-0.513659
-0.490209
-0.469565
-0.451911
-0.437407
-0.426306
-0.420084
-0.418726
-0.555179
-0.52097
-0.495311
-0.474303
-0.455932
-0.440561
-0.428556
-0.420636
-0.419909
-0.427706
-0.528209
-0.499227
-0.476981
-0.458444
-0.4421
-0.428409
-0.417845
-0.411467
-0.414405
-0.431656
-0.501238
-0.477726
-0.458981
-0.442805
-0.42807
-0.41515
-0.404385
-0.396416
-0.396537
-0.416051
-0.47499
-0.456923
-0.441585
-0.427505
-0.413713
-0.400009
-0.385637
-0.367963
-0.342915
-0.318929
-0.450289
-0.437397
-0.425411
-0.413652
-0.4016
-0.389149
-0.375901
-0.360331
-0.340237
-0.322917
-0.427822
-0.419574
-0.410727
-0.401334
-0.391365
-0.380903
-0.36986
-0.35761
-0.343658
-0.333206
-0.408023
-0.403717
-0.397633
-0.390404
-0.382386
-0.37378
-0.364643
-0.354744
-0.344238
-0.336772
-0.391105
-0.390002
-0.386245
-0.380903
-0.374623
-0.367691
-0.360265
-0.352353
-0.34427
-0.338301
-0.377124
-0.378525
-0.376655
-0.372892
-0.368091
-0.36259
-0.356613
-0.350305
-0.343999
-0.338946
-0.366047
-0.369332
-0.368923
-0.366412
-0.362796
-0.358436
-0.353592
-0.348482
-0.343426
-0.338966
-0.357809
-0.362434
-0.363088
-0.361503
-0.358769
-0.355255
-0.351235
-0.34697
-0.34276
-0.338691
-0.352352
-0.357836
-0.359181
-0.358206
-0.356053
-0.353095
-0.34961
-0.345881
-0.342201
-0.338376
-0.349634
-0.355538
-0.357223
-0.356549
-0.354684
-0.352001
-0.348779
-0.345311
-0.341886
-0.33818
-0.291781
-0.127683
-0.0824156
-0.031395
-0.0203808
-0.00857913
-0.00531478
-0.00133698
-0.00094817
0.00218277
-0.293014
-0.128232
-0.0826872
-0.0315936
-0.0204523
-0.00864211
-0.00534825
-0.00136071
-0.00095873
0.00216427
-0.29541
-0.129315
-0.0832266
-0.0319933
-0.0205941
-0.00876634
-0.00541373
-0.00140746
-0.000980148
0.00212722
-0.298827
-0.13091
-0.0840225
-0.032596
-0.0208056
-0.00895124
-0.00551085
-0.00147706
-0.00101233
0.0020717
-0.30302
-0.13297
-0.085048
-0.0333998
-0.0210844
-0.00919531
-0.00563869
-0.00156918
-0.00105456
0.00199853
-0.307632
-0.135421
-0.0862535
-0.0343908
-0.0214238
-0.00949475
-0.00579547
-0.00168311
-0.0011062
0.00190847
-0.312534
-0.13833
-0.0876436
-0.035564
-0.0218241
-0.0098464
-0.00598026
-0.00181747
-0.00116721
0.00180345
-0.318249
-0.142351
-0.0894817
-0.0370197
-0.0223286
-0.0102632
-0.00619937
-0.00197218
-0.00123936
0.00168637
-0.323039
-0.147863
-0.0919468
-0.0389235
-0.022988
-0.0107733
-0.00646129
-0.00215372
-0.00132015
0.00155469
-0.315244
-0.150241
-0.0930713
-0.0406334
-0.0235001
-0.0112836
-0.00671464
-0.00236762
-0.00138415
0.0013843
-0.248722
-0.142135
-0.0894708
-0.0439216
-0.024002
-0.0126963
-0.00742708
-0.00320691
-0.00153626
0.000641656
-0.190563
-0.133073
-0.0834587
-0.0453773
-0.025698
-0.0151087
-0.00923435
-0.00473026
-0.00227145
-0.000249646
-0.149081
-0.115154
-0.0739945
-0.0439262
-0.0270445
-0.0172881
-0.0110808
-0.00629629
-0.00315904
-0.000915633
-0.109443
-0.0942021
-0.0645363
-0.0419352
-0.0280092
-0.0190432
-0.0126518
-0.00767732
-0.00399272
-0.00134847
-0.0801785
-0.0768943
-0.0577024
-0.0406608
-0.0287652
-0.0203496
-0.0138772
-0.00877679
-0.00469243
-0.00161657
-0.0600699
-0.0640245
-0.0527142
-0.0396452
-0.0291287
-0.0211643
-0.014744
-0.00959017
-0.0052399
-0.00179471
-0.0470348
-0.0547498
-0.0488304
-0.0386627
-0.0291856
-0.021621
-0.0153312
-0.0101724
-0.00565089
-0.00192532
-0.0387858
-0.0482827
-0.0458524
-0.0378009
-0.0291216
-0.0218731
-0.0157188
-0.0105741
-0.00594373
-0.00202176
-0.0339624
-0.0441778
-0.0438347
-0.037192
-0.0290545
-0.0220081
-0.0159533
-0.0108247
-0.00613158
-0.00208485
-0.0317319
-0.0421742
-0.0428187
-0.0368918
-0.0290266
-0.0220664
-0.0160631
-0.0109416
-0.00622459
-0.00211356
-0.22008
-0.24798
-0.273762
-0.29771
-0.320209
-0.341764
-0.362994
-0.384543
-0.406911
-0.430754
-0.06939
-0.0795325
-0.0886972
-0.0971272
-0.10513
-0.113085
-0.121451
-0.130768
-0.141614
-0.15578
-0.0465864
-0.0557666
-0.0645613
-0.0729437
-0.0808765
-0.0883148
-0.095215
-0.10155
-0.107318
-0.112637
-0.0201403
-0.0258584
-0.0313702
-0.0366948
-0.0418541
-0.0468713
-0.0517695
-0.0565709
-0.0612756
-0.0657613
-0.0144145
-0.0187685
-0.0229979
-0.0270994
-0.0310692
-0.0349032
-0.0385979
-0.0421504
-0.0455414
-0.0487374
-0.00934494
-0.0125602
-0.0157161
-0.0188117
-0.0218465
-0.0248199
-0.0277314
-0.0305798
-0.0333536
-0.0360543
-0.00820875
-0.0107433
-0.0132415
-0.0156995
-0.0181136
-0.0204806
-0.0227982
-0.0250639
-0.0272719
-0.0294337
-0.00739709
-0.00945236
-0.011491
-0.013509
-0.0155027
-0.0174685
-0.0194035
-0.0213046
-0.0231688
-0.0250017
-0.00730189
-0.00907368
-0.0108374
-0.0125886
-0.014323
-0.0160368
-0.0177264
-0.0193887
-0.0210217
-0.0226255
-0.00724183
-0.00886479
-0.010485
-0.0120987
-0.0137023
-0.0152926
-0.0168663
-0.0184207
-0.0199545
-0.0214647
0.166528
0.125538
0.0801904
0.0371213
-0.0046175
-0.0454971
-0.0849009
-0.122247
-0.157266
-0.189874
0.116085
0.0901701
0.0633805
0.0405437
0.0204249
0.00175217
-0.0155572
-0.0312924
-0.0454268
-0.0580758
0.0719876
0.0562906
0.0413402
0.0284306
0.0165814
0.0051167
-0.00603427
-0.0167836
-0.0271081
-0.0370346
0.051753
0.0426815
0.0340552
0.0263473
0.0190832
0.0119927
0.00507827
-0.00160151
-0.00802537
-0.0142005
0.0362339
0.0302841
0.0245463
0.0192579
0.0141697
0.00915069
0.00420773
-0.000627835
-0.00534352
-0.00993891
0.0259876
0.0221003
0.0182572
0.0146215
0.011081
0.00756771
0.00408305
0.000643777
-0.0027418
-0.00607169
0.0182975
0.0155706
0.0128174
0.0101428
0.00749874
0.00485242
0.00220563
-0.000430456
-0.003048
-0.00564218
0.013127
0.0111336
0.0090902
0.00705907
0.00502359
0.0029702
0.000901285
-0.00117564
-0.00325423
-0.00532955
0.00980342
0.00821013
0.00656803
0.00490623
0.00321996
0.00150613
-0.000231404
-0.00198647
-0.00375333
-0.00552681
0.00821098
0.00679205
0.00532994
0.00383881
0.00231809
0.000768848
-0.000804595
-0.00239707
-0.00400373
-0.00562009
0.333971
0.33327
0.33172
0.328845
0.323859
0.315526
0.302074
0.28111
0.249998
0.205376
0.244084
0.242967
0.240332
0.235746
0.228875
0.219289
0.206416
0.189599
0.16809
0.141333
0.173267
0.172138
0.169471
0.164946
0.158456
0.149892
0.139065
0.125761
0.109573
0.0905855
0.121672
0.120787
0.118684
0.115122
0.110082
0.103591
0.0956421
0.0862443
0.0753201
0.0632045
0.0853525
0.0847081
0.0831694
0.0805566
0.0768771
0.0721833
0.0665093
0.0598933
0.0523157
0.0439852
0.0601862
0.0597229
0.0586147
0.056733
0.0540911
0.0507402
0.0467221
0.0420807
0.0368335
0.031127
0.0430458
0.0427074
0.0418975
0.0405228
0.0385948
0.0361538
0.0332336
0.0298668
0.0260729
0.0219361
0.0317687
0.0315121
0.0308979
0.0298555
0.0283941
0.0265451
0.0243355
0.0217903
0.0189298
0.0158061
0.0249389
0.0247305
0.0242322
0.0233864
0.0222007
0.0207
0.0189055
0.0168363
0.01451
0.011958
0.0217214
0.0215351
0.0210903
0.0203359
0.0192781
0.0179389
0.0163371
0.0144889
0.0124111
0.0101264
0.483938
0.485691
0.492024
0.50317
0.51902
0.53988
0.566213
0.598545
0.637412
0.68306
0.481697
0.483424
0.489677
0.500666
0.516269
0.53675
0.56252
0.594014
0.631633
0.675467
0.477266
0.478948
0.485048
0.495734
0.510851
0.530592
0.55525
0.585091
0.620241
0.66049
0.470746
0.472373
0.478262
0.488518
0.502933
0.521598
0.544635
0.572052
0.603559
0.638536
0.462276
0.463853
0.469493
0.479212
0.492743
0.510038
0.530997
0.555286
0.582052
0.61019
0.452023
0.453572
0.458946
0.468046
0.480536
0.496208
0.514695
0.535239
0.55629
0.57619
0.440185
0.441773
0.4469
0.455338
0.466677
0.480522
0.496199
0.512454
0.526951
0.537401
0.426967
0.428782
0.433796
0.441645
0.451859
0.463826
0.476494
0.487973
0.495035
0.494618
0.412438
0.414729
0.419823
0.427208
0.436402
0.446573
0.456222
0.462631
0.461418
0.447336
0.396237
0.398672
0.403338
0.409594
0.416972
0.424521
0.430467
0.431588
0.423119
0.395413
0.396241
0.398677
0.403343
0.409599
0.416977
0.424526
0.430473
0.431594
0.423126
0.39542
0.412442
0.414733
0.419827
0.427212
0.436406
0.446578
0.456227
0.462636
0.461424
0.447343
0.42697
0.428786
0.4338
0.441649
0.451863
0.463831
0.476499
0.487978
0.495041
0.494625
0.440188
0.441777
0.446904
0.455342
0.466681
0.480526
0.496203
0.512459
0.526956
0.537407
0.452027
0.453575
0.458949
0.468049
0.48054
0.496212
0.514699
0.535243
0.556294
0.576195
0.462279
0.463855
0.469496
0.479215
0.492745
0.510041
0.531
0.555289
0.582055
0.610194
0.470748
0.472375
0.478264
0.48852
0.502935
0.521601
0.544638
0.572055
0.603561
0.638539
0.477267
0.478949
0.485049
0.495736
0.510852
0.530593
0.555252
0.585093
0.620243
0.660493
0.481697
0.483425
0.489677
0.500667
0.51627
0.536751
0.562521
0.594015
0.631634
0.675469
0.483938
0.485691
0.492024
0.50317
0.519021
0.53988
0.566214
0.598546
0.637413
0.683061
0.0217279
0.0215416
0.0210968
0.0203424
0.0192846
0.0179454
0.0163436
0.0144953
0.0124174
0.0101328
0.0249454
0.024737
0.0242387
0.0233929
0.0222072
0.0207065
0.018912
0.0168427
0.0145165
0.0119645
0.0317753
0.0315186
0.0309045
0.029862
0.0284006
0.0265517
0.024342
0.0217968
0.0189364
0.0158127
0.0430524
0.042714
0.0419041
0.0405294
0.0386014
0.0361604
0.0332402
0.0298735
0.0260796
0.0219427
0.0601929
0.0597296
0.0586214
0.0567397
0.0540978
0.050747
0.0467289
0.0420875
0.0368403
0.0311338
0.0853593
0.0847149
0.0831762
0.0805635
0.076884
0.0721902
0.0665162
0.0599003
0.0523227
0.0439922
0.121679
0.120793
0.118691
0.115129
0.110089
0.103598
0.0956492
0.0862515
0.0753273
0.0632118
0.173274
0.172145
0.169478
0.164953
0.158463
0.149899
0.139073
0.125769
0.10958
0.0905933
0.24409
0.242974
0.240338
0.235753
0.228882
0.219296
0.206423
0.189607
0.168098
0.141341
0.333976
0.333276
0.331726
0.328851
0.323865
0.315532
0.302081
0.281117
0.250006
0.205385
0.00821731
0.00679834
0.00533615
0.00384497
0.00232418
0.000774857
-0.000798671
-0.00239123
-0.00399798
-0.00561443
0.00980983
0.0082165
0.00657432
0.00491244
0.00322609
0.00151217
-0.000225453
-0.00198061
-0.00374756
-0.00552112
0.0131336
0.0111401
0.00909657
0.00706534
0.00502977
0.00297628
0.000907262
-0.00116977
-0.00324845
-0.00532388
0.0183041
0.0155772
0.0128239
0.0101492
0.00750502
0.00485859
0.0022117
-0.000424502
-0.00304216
-0.00563644
0.0259943
0.022107
0.0182638
0.014628
0.0110874
0.00757402
0.00408926
0.000649879
-0.00273581
-0.00606581
0.0362409
0.0302911
0.0245532
0.0192647
0.0141764
0.00915737
0.00421432
-0.000621327
-0.00533711
-0.0099326
0.0517604
0.042689
0.0340626
0.0263546
0.0190904
0.0119999
0.00508542
-0.00159443
-0.00801836
-0.0141935
0.0719956
0.0562986
0.0413483
0.0284387
0.0165895
0.0051248
-0.00602617
-0.0167755
-0.0271001
-0.0370266
0.116094
0.0901788
0.0633893
0.0405526
0.0204339
0.00176136
-0.0155479
-0.031283
-0.0454174
-0.0580664
0.166538
0.125548
0.080201
0.0371323
-0.00460622
-0.0454855
-0.0848889
-0.122234
-0.157253
-0.189861
-0.00723627
-0.00885935
-0.0104797
-0.0120935
-0.0136973
-0.0152877
-0.0168615
-0.0184161
-0.01995
-0.0214603
-0.00729631
-0.00906821
-0.0108321
-0.0125834
-0.0143179
-0.0160319
-0.0177216
-0.019384
-0.0210172
-0.0226211
-0.00739152
-0.00944691
-0.0114857
-0.0135038
-0.0154976
-0.0174635
-0.0193986
-0.0212999
-0.0231642
-0.0249973
-0.00820313
-0.0107378
-0.0132362
-0.0156942
-0.0181084
-0.0204756
-0.0227933
-0.0250591
-0.0272672
-0.0294292
-0.00933916
-0.0125545
-0.0157105
-0.0188062
-0.0218411
-0.0248146
-0.0277263
-0.0305749
-0.0333488
-0.0360496
-0.0144083
-0.0187624
-0.022992
-0.0270936
-0.0310634
-0.0348976
-0.0385924
-0.0421451
-0.0455363
-0.0487325
-0.0201335
-0.0258517
-0.0313637
-0.0366884
-0.0418478
-0.0468651
-0.0517635
-0.0565651
-0.06127
-0.0657559
-0.0465785
-0.0557587
-0.0645534
-0.0729359
-0.0808688
-0.0883072
-0.0952076
-0.101543
-0.107311
-0.11263
-0.0693805
-0.079523
-0.0886876
-0.0971177
-0.10512
-0.113076
-0.121442
-0.130759
-0.141605
-0.15577
-0.220067
-0.247966
-0.273748
-0.297695
-0.320194
-0.341748
-0.362977
-0.384525
-0.406893
-0.430735
-0.0317294
-0.0421721
-0.0428172
-0.0368899
-0.0290234
-0.0220622
-0.016059
-0.0109393
-0.0062233
-0.00211363
-0.0339599
-0.0441757
-0.0438333
-0.0371903
-0.0290513
-0.0220037
-0.0159491
-0.0108223
-0.00613031
-0.00208503
-0.0387834
-0.0482809
-0.0458515
-0.0377994
-0.0291182
-0.0218682
-0.0157142
-0.0105715
-0.00594257
-0.00202216
-0.0470323
-0.0547483
-0.0488302
-0.0386618
-0.0291818
-0.0216152
-0.0153259
-0.0101696
-0.00565003
-0.00192612
-0.0600673
-0.0640236
-0.0527152
-0.0396452
-0.0291242
-0.0211571
-0.0147377
-0.00958714
-0.00523978
-0.00179623
-0.0801757
-0.0768944
-0.0577052
-0.0406621
-0.0287596
-0.0203401
-0.0138693
-0.00877352
-0.00469383
-0.00161927
-0.10944
-0.0942041
-0.064542
-0.0419383
-0.0280013
-0.0190301
-0.0126417
-0.00767377
-0.00399677
-0.00135303
-0.149077
-0.115159
-0.0740056
-0.0439322
-0.0270332
-0.0172696
-0.0110672
-0.00629198
-0.00316668
-0.000922741
-0.190555
-0.133082
-0.0834779
-0.045389
-0.0256842
-0.0150844
-0.0092162
-0.00472397
-0.00228212
-0.000259235
-0.248708
-0.142143
-0.0894961
-0.0439395
-0.0239897
-0.0126702
-0.00740595
-0.00319815
-0.00154738
0.000631469
-0.315229
-0.150247
-0.0930943
-0.0406501
-0.0234908
-0.0112627
-0.00669706
-0.00235938
-0.00139368
0.00137578
-0.323025
-0.147869
-0.0919689
-0.0389394
-0.0229793
-0.0107538
-0.00644493
-0.00214594
-0.00132907
0.00154674
-0.318235
-0.142357
-0.0895027
-0.0370342
-0.0223202
-0.0102451
-0.00618446
-0.00196513
-0.00124756
0.00167907
-0.312523
-0.138336
-0.0876631
-0.0355771
-0.0218164
-0.00983004
-0.00596711
-0.00181125
-0.00117476
0.00179665
-0.307622
-0.135426
-0.0862709
-0.0344023
-0.0214168
-0.00948033
-0.0057839
-0.00167762
-0.00111266
0.00190273
-0.303011
-0.132975
-0.0850631
-0.0334096
-0.0210784
-0.0091831
-0.00562896
-0.00156453
-0.00105997
0.00199372
-0.29882
-0.130914
-0.0840347
-0.0326038
-0.0208008
-0.00894147
-0.00550312
-0.00147332
-0.00101661
0.0020679
-0.295405
-0.129318
-0.0832357
-0.0319991
-0.0205906
-0.00875923
-0.00540816
-0.00140473
-0.000983324
0.00212436
-0.293011
-0.128234
-0.0826927
-0.0315972
-0.0204501
-0.00863776
-0.00534481
-0.00135901
-0.000960588
0.00216265
-0.29178
-0.127684
-0.0824175
-0.0313962
-0.0203801
-0.0085777
-0.00531372
-0.00133644
-0.000948887
0.00218207
)
;

boundaryField
{
    inlet
    {
        type            zeroGradient;
    }
    outlet
    {
        type            fixedValue;
        value           uniform 0;
    }
    cylinder
    {
        type            zeroGradient;
    }
    top
    {
        type            symmetryPlane;
    }
    bottom
    {
        type            symmetryPlane;
    }
    defaultFaces
    {
        type            empty;
    }
}


// ************************************************************************* //
