/*--------------------------------*- C++ -*----------------------------------*\
  =========                 |
  \\      /  F ield         | OpenFOAM: The Open Source CFD Toolbox
   \\    /   O peration     | Website:  https://openfoam.org
    \\  /    A nd           | Version:  6.0
     \\/     M anipulation  |
\*---------------------------------------------------------------------------*/
FoamFile
{
    version     2.0;
    format      ascii;
    class       volVectorField;
    location    "21";
    object      U;
}
// * * * * * * * * * * * * * * * * * * * * * * * * * * * * * * * * * * * * * //

dimensions      [0 1 -1 0 0 0 0];

internalField   nonuniform List<vector> 
2000
(
(-0.00199168 0.00174064 5.75509e-20)
(-0.00762176 0.00330673 6.83471e-20)
(-0.0153279 0.00366633 -6.51569e-20)
(-0.0223255 0.00334135 -1.32954e-19)
(-0.0276666 0.00264237 -9.28765e-20)
(-0.0311987 0.00177273 1.23733e-19)
(-0.0330192 0.000877989 7.20743e-20)
(-0.033398 6.49489e-05 -2.9155e-20)
(-0.0327683 -0.000587183 -7.27872e-20)
(-0.0314234 -0.00101437 5.30718e-20)
(-0.00249024 0.00512366 -1.42648e-19)
(-0.0083706 0.00968825 1.9691e-19)
(-0.015722 0.0106983 1.96358e-20)
(-0.0220162 0.00969491 -1.14058e-19)
(-0.0264425 0.00759154 5.45774e-19)
(-0.0289247 0.00498541 -2.40206e-19)
(-0.0296085 0.00230515 -2.59882e-19)
(-0.02879 -0.000130731 3.13456e-19)
(-0.0269187 -0.00208037 -3.09155e-19)
(-0.0243656 -0.0033509 1.55958e-19)
(-0.00343629 0.00822704 2.3692e-20)
(-0.00972715 0.0154105 8.42095e-21)
(-0.0162959 0.0168829 5.90097e-19)
(-0.0211305 0.0151311 2.06999e-19)
(-0.0236944 0.0116173 4.10523e-20)
(-0.0240627 0.00729352 3.39529e-19)
(-0.0224741 0.00284603 -6.44908e-19)
(-0.0192732 -0.00120206 1.39864e-20)
(-0.014939 -0.00443375 -3.81376e-19)
(-0.0100046 -0.00652483 4.20145e-19)
(-0.00472438 0.0108696 -4.45627e-20)
(-0.0114008 0.0200587 2.56341e-19)
(-0.0166083 0.021711 -7.46894e-19)
(-0.0191166 0.0191329 -9.6554e-20)
(-0.0187995 0.0142418 -5.49766e-19)
(-0.0159557 0.00827601 5.69385e-19)
(-0.0109576 0.00213065 -6.03959e-19)
(-0.0042126 -0.00348479 4.24158e-19)
(0.00376566 -0.00796028 1.78318e-19)
(0.012186 -0.0108359 -2.0152e-19)
(-0.00618694 0.0128755 -4.95895e-19)
(-0.0129349 0.0232526 4.46562e-21)
(-0.0159674 0.0247531 9.19978e-19)
(-0.0151059 0.0213188 2.75835e-19)
(-0.0107696 0.0151895 -8.77038e-19)
(-0.00355179 0.00778755 5.45363e-19)
(0.00600333 0.000136323 6.18234e-19)
(0.0174214 -0.00691031 -5.51212e-19)
(0.0301656 -0.0125347 3.93036e-19)
(0.0430766 -0.0161384 9.65151e-20)
(-0.00758282 0.0140737 6.77909e-20)
(-0.0136872 0.0246564 1.25696e-20)
(-0.0134072 0.0256813 -1.17606e-18)
(-0.0078812 0.0214794 -6.57995e-19)
(0.00179596 0.0144463 7.84973e-19)
(0.0146624 0.00605558 -9.19276e-19)
(0.0299586 -0.00266358 1.05349e-18)
(0.0471444 -0.0108015 -9.09696e-20)
(0.0657015 -0.0173485 -2.96393e-19)
(0.0839872 -0.0215807 -8.61581e-19)
(-0.0085856 0.0143018 -1.47443e-19)
(-0.0128186 0.0239929 -2.69292e-19)
(-0.00768267 0.024283 -3.30871e-19)
(0.00413211 0.0195865 7.05924e-19)
(0.0207379 0.012271 1.30962e-18)
(0.0407242 0.00371313 -2.70667e-19)
(0.0630505 -0.00521906 -6.58927e-19)
(0.0870962 -0.0137336 2.00969e-19)
(0.112446 -0.0207296 -1.26592e-18)
(0.136899 -0.0254097 1.39044e-18)
(-0.00877977 0.0134201 9.01733e-19)
(-0.00930916 0.0210687 -4.92155e-19)
(0.00268706 0.0204699 9.61067e-19)
(0.0228035 0.0157688 -1.57028e-18)
(0.0482717 0.00913994 -7.50396e-19)
(0.0771453 0.00174364 -1.03948e-18)
(0.107995 -0.00589291 3.01982e-19)
(0.140043 -0.0133625 -8.4109e-19)
(0.17311 -0.0197008 1.83165e-18)
(0.204536 -0.0242198 5.12813e-19)
(-0.00767607 0.0113416 6.62901e-20)
(-0.00201901 0.0158173 8.01688e-19)
(0.0193079 0.0142838 1.59324e-18)
(0.0501489 0.0102436 4.86984e-19)
(0.0868214 0.00558447 1.44139e-18)
(0.126751 0.00126718 7.9021e-20)
(0.167928 -0.00251712 -8.05013e-22)
(0.209152 -0.00581775 5.81246e-19)
(0.2505 -0.00797771 4.70446e-19)
(0.289413 -0.00941357 -1.52653e-18)
(-0.00476169 0.00807816 -5.33978e-19)
(0.0101801 0.00835881 -8.94435e-19)
(0.0437084 0.00589371 -1.30034e-18)
(0.0880972 0.00314585 3.06564e-20)
(0.13889 0.00167413 -6.63047e-19)
(0.192985 0.00244076 1.0451e-18)
(0.247808 0.00576869 -2.87765e-18)
(0.301421 0.0118774 1.29206e-18)
(0.353178 0.0213621 4.8592e-19)
(0.400354 0.0300817 1.52466e-18)
(0.000400353 0.00379951 2.6713e-19)
(0.0281593 -0.000903178 -1.02251e-18)
(0.076887 -0.00432094 9.13086e-19)
(0.13768 -0.00552925 -3.54307e-19)
(0.205712 -0.00353045 3.85399e-19)
(0.27802 0.00259929 8.3919e-19)
(0.352766 0.0135968 -1.12671e-18)
(0.429546 0.0304042 1.46469e-19)
(0.509335 0.0522868 -5.39983e-19)
(0.594481 0.0692755 1.09507e-18)
(0.00807504 -0.00111793 3.82596e-19)
(0.05231 -0.0111236 -9.2688e-19)
(0.118846 -0.0153793 1.26308e-18)
(0.197881 -0.0150879 -7.86738e-19)
(0.284223 -0.0103682 -2.88605e-19)
(0.374818 -0.00108069 1.70876e-19)
(0.467855 0.0126863 8.83567e-20)
(0.562765 0.0306217 1.19866e-18)
(0.659197 0.0500119 3.45107e-19)
(0.754856 0.0621648 1.47483e-18)
(0.0183702 -0.00611244 -3.41439e-19)
(0.0826714 -0.0209494 1.19826e-18)
(0.16911 -0.0253129 -1.00005e-18)
(0.267202 -0.0228982 -1.17308e-18)
(0.371277 -0.0151858 1.6413e-18)
(0.477841 -0.00296897 -1.24813e-18)
(0.584496 0.0128218 3.29678e-19)
(0.689683 0.031075 -1.95458e-18)
(0.791621 0.0491103 1.4641e-18)
(0.886326 0.0615863 7.31547e-20)
(0.0312921 -0.0105563 -4.44901e-19)
(0.119044 -0.0288236 -4.29791e-19)
(0.226984 -0.0318308 -9.15347e-19)
(0.344223 -0.0259536 1.10953e-18)
(0.464647 -0.0141174 -5.60641e-20)
(0.584295 0.00198227 7.17531e-19)
(0.700228 0.0207443 1.30913e-18)
(0.810204 0.0406713 -4.02297e-19)
(0.911856 0.0596703 -1.423e-18)
(1.00118 0.0747303 2.82523e-18)
(0.0467708 -0.0138417 -2.29929e-19)
(0.160987 -0.0332444 -2.74286e-19)
(0.291465 -0.032822 4.93787e-19)
(0.427285 -0.02172 -9.17939e-19)
(0.562093 -0.00433057 1.56797e-19)
(0.69168 0.0167976 1.39586e-19)
(0.812922 0.0395159 6.1225e-20)
(0.923468 0.0621192 -9.85543e-21)
(1.02112 0.0831056 -1.4998e-19)
(1.10251 0.100858 -2.38876e-18)
(0.0646478 -0.0154068 9.33377e-19)
(0.207767 -0.0328874 -6.51424e-19)
(0.361117 -0.0265732 8.32565e-21)
(0.514232 -0.00838562 -9.92509e-19)
(0.660867 0.0158479 -3.55209e-19)
(0.79694 0.0428044 3.32082e-19)
(0.919612 0.0699098 2.5799e-19)
(1.02699 0.0953739 -9.19332e-19)
(1.1176 0.118232 7.51548e-19)
(1.18908 0.137672 -9.85522e-19)
(0.0846439 -0.0147403 4.028e-19)
(0.258319 -0.0266629 -3.58042e-19)
(0.434042 -0.0118644 1.48748e-18)
(0.602408 0.0150627 1.51731e-19)
(0.757764 0.0469707 3.48622e-19)
(0.896645 0.0799093 1.55426e-18)
(1.01702 0.111058 -2.37587e-19)
(1.11796 0.138712 2.1669e-19)
(1.19911 0.162465 8.97709e-20)
(1.2594 0.181986 -1.10345e-19)
(0.106329 -0.011392 2.81387e-19)
(0.311237 -0.0137572 6.76687e-19)
(0.507927 0.0119909 -7.25085e-19)
(0.688793 0.0488605 -2.45561e-19)
(0.849369 0.0886275 -3.03376e-19)
(0.987367 0.126968 4.70041e-19)
(1.10208 0.161085 -2.44578e-19)
(1.19396 0.189598 6.58067e-19)
(1.26405 0.212756 2.2155e-19)
(1.31268 0.230564 -3.61155e-19)
(0.129109 -0.00499809 -3.03242e-19)
(0.364801 0.0063201 2.69585e-19)
(0.580163 0.045124 -5.75331e-19)
(0.770221 0.0925231 2.48217e-19)
(0.932361 0.139626 -2.57592e-19)
(1.06605 0.182116 -3.21565e-19)
(1.17234 0.217573 -2.58335e-19)
(1.25339 0.245232 2.88756e-19)
(1.31168 0.266121 -5.44661e-19)
(1.34902 0.280542 3.2916e-19)
(0.152232 0.00468115 -1.08085e-19)
(0.417047 0.0336803 -2.11481e-19)
(0.648 0.0870968 1.00709e-19)
(0.843608 0.144913 6.19884e-21)
(1.00379 0.198165 8.35934e-20)
(1.13027 0.243035 1.14739e-19)
(1.2262 0.27789 1.06392e-19)
(1.29553 0.302872 -1.41074e-19)
(1.34218 0.319904 1.20188e-19)
(1.36925 0.329587 -1.88127e-19)
(0.174816 0.017721 -6.25742e-20)
(0.465873 0.0680058 -2.34772e-20)
(0.708721 0.136903 9.34615e-20)
(0.906174 0.204323 -4.30138e-20)
(1.06128 0.261993 1.14734e-19)
(1.17839 0.307166 -1.48161e-19)
(1.26291 0.339409 3.43301e-20)
(1.32053 0.360021 3.68393e-20)
(1.35641 0.371882 -1.54734e-20)
(1.37477 0.375905 5.85031e-20)
(0.195897 0.0339965 -6.75133e-20)
(0.509168 0.10852 -3.05581e-19)
(0.759825 0.192995 -2.11937e-20)
(0.955624 0.268578 6.30599e-21)
(1.10316 0.328571 -3.97794e-19)
(1.2096 0.371886 5.25534e-20)
(1.28255 0.399657 -4.47699e-20)
(1.32924 0.414506 -1.08128e-19)
(1.35579 0.420267 2.25684e-19)
(1.36726 0.418157 -4.11622e-19)
(0.214484 0.0531579 -3.26242e-20)
(0.544944 0.153985 6.19009e-19)
(0.79919 0.253351 9.97381e-20)
(0.990278 0.335157 -5.45138e-19)
(1.12852 0.395215 -4.42315e-20)
(1.22386 0.434637 -5.23012e-19)
(1.28588 0.456394 3.83589e-19)
(1.32301 0.464494 -1.39367e-19)
(1.34203 0.463647 2.47311e-19)
(1.34851 0.455353 -1.81208e-19)
(0.229624 0.0746219 -2.05689e-19)
(0.57148 0.202738 1.96675e-19)
(0.825209 0.315562 -1.41963e-19)
(1.00915 0.401321 1.06972e-18)
(1.13722 0.459224 5.28253e-19)
(1.22185 0.493016 -1.22593e-19)
(1.27421 0.507645 4.13374e-19)
(1.30356 0.50846 -2.72122e-19)
(1.31698 0.500906 -7.60607e-20)
(1.32037 0.486739 4.99023e-19)
(0.240471 0.0975802 -3.56139e-19)
(0.587435 0.252755 4.53576e-19)
(0.836878 0.376955 -8.92507e-19)
(1.01196 0.464251 1.25485e-19)
(1.12978 0.517995 2.80752e-19)
(1.2048 0.544835 -4.29992e-19)
(1.24924 0.551704 -5.02368e-19)
(1.27281 0.545138 2.20967e-19)
(1.28261 0.53114 -2.66557e-19)
(1.28461 0.511703 3.21849e-19)
(0.246343 0.121026 -8.99692e-20)
(0.591944 0.301751 -4.61554e-19)
(0.833848 0.434735 2.55228e-19)
(0.999133 0.521178 4.29085e-19)
(1.10736 0.569105 -2.57855e-19)
(1.17438 0.588151 -1.92554e-19)
(1.21296 0.587102 -1.07044e-19)
(1.23282 0.573456 -5.28956e-20)
(1.24085 0.553561 1.04147e-20)
(1.24298 0.529675 1.1335e-19)
(0.246787 0.143799 6.63643e-20)
(0.58468 0.347306 -3.88417e-19)
(0.816422 0.486126 6.48214e-19)
(0.971671 0.569515 -3.83878e-19)
(1.07154 0.610396 1.08459e-19)
(1.13256 0.621288 -1.53541e-19)
(1.16749 0.612589 1.65434e-19)
(1.18566 0.592472 3.36763e-20)
(1.19363 0.5674 -7.23976e-20)
(1.19717 0.539983 1.4117e-19)
(0.241618 0.16465 -1.74709e-19)
(0.565887 0.387002 3.41665e-19)
(0.785519 0.528537 -1.51122e-20)
(0.931103 0.606972 -7.45769e-20)
(1.02427 0.640045 -2.01984e-19)
(1.08152 0.642882 2.54582e-20)
(1.11508 0.627173 5.68953e-20)
(1.13356 0.601439 -1.47881e-19)
(1.14308 0.571957 1.72266e-19)
(1.14926 0.541847 1.47964e-19)
(0.230956 0.182325 4.14629e-20)
(0.536372 0.41859 -8.18865e-20)
(0.742592 0.559697 2.22643e-20)
(0.879305 0.631643 1.79052e-20)
(0.96762 0.656566 7.24595e-20)
(1.02341 0.651787 -1.40874e-19)
(1.05794 0.62996 -2.97831e-19)
(1.07897 0.599642 -1.21936e-19)
(1.09219 0.566602 -1.56108e-19)
(1.10259 0.534675 1.31594e-19)
(0.215248 0.195668 1.07787e-19)
(0.497468 0.440157 -1.68712e-19)
(0.689518 0.577832 1.63011e-19)
(0.818319 0.642131 -3.1124e-19)
(0.903478 0.65883 7.53149e-20)
(0.95975 0.646838 5.1222e-19)
(0.99733 0.619359 -1.57168e-19)
(1.02321 0.584691 1.86287e-19)
(1.04276 0.547988 2.73248e-19)
(1.05907 0.515006 9.94349e-19)
(0.195263 0.203739 6.76474e-19)
(0.450999 0.450321 -4.59759e-19)
(0.628555 0.581889 1.1202e-18)
(0.750315 0.637925 -1.91761e-19)
(0.833437 0.646771 9.61907e-19)
(0.891104 0.628057 6.03485e-19)
(0.932355 0.594735 -1.41748e-18)
(0.963612 0.553873 2.15296e-18)
(0.989495 0.507886 -4.55159e-19)
(1.00636 0.46099 8.96065e-19)
(0.172061 0.205886 -3.73361e-19)
(0.39923 0.448277 -2.66657e-19)
(0.562425 0.571553 2.58456e-19)
(0.677966 0.6195 -6.384e-19)
(0.759701 0.622021 -1.99418e-18)
(0.818738 0.598997 -8.02323e-19)
(0.86273 0.563188 -7.22667e-19)
(0.897149 0.521736 3.5018e-19)
(0.92515 0.47815 2.91633e-18)
(0.942636 0.43738 -6.06526e-19)
(0.146903 0.201732 1.96922e-19)
(0.344747 0.43367 -7.97437e-19)
(0.494268 0.546795 1.75294e-19)
(0.604697 0.587151 -1.27667e-18)
(0.686091 0.585028 2.79462e-18)
(0.747325 0.559935 -3.24098e-19)
(0.794615 0.524081 1.52318e-18)
(0.832453 0.484254 -2.18145e-18)
(0.86337 0.443956 6.84574e-19)
(0.884675 0.407468 1.05949e-19)
(0.121125 0.191165 1.45211e-19)
(0.290178 0.406568 8.79335e-19)
(0.427141 0.507913 -2.58369e-18)
(0.533612 0.541244 1.25701e-18)
(0.615659 0.535994 -3.96563e-21)
(0.679914 0.510622 -4.2421e-19)
(0.731231 0.476432 5.34121e-19)
(0.773261 0.439623 -5.30567e-19)
(0.808189 0.403347 -1.82349e-18)
(0.83427 0.370859 -4.99795e-19)
(0.0960536 0.174342 4.75501e-19)
(0.238045 0.367489 5.33508e-19)
(0.363871 0.455632 2.20327e-18)
(0.467439 0.482527 -1.22575e-18)
(0.550853 0.47551 2.5265e-18)
(0.618588 0.451359 -5.44155e-19)
(0.674235 0.420142 -5.75069e-19)
(0.720721 0.387299 6.79648e-19)
(0.759952 0.355512 4.43098e-19)
(0.790889 0.327121 1.60638e-18)
(0.0729483 0.151677 -4.82752e-19)
(0.190673 0.31739 1.57645e-19)
(0.307001 0.391125 4.26737e-20)
(0.408551 0.412163 1.24986e-18)
(0.49372 0.404598 -3.11976e-18)
(0.565008 0.38296 5.30061e-19)
(0.624883 0.355824 1.17007e-18)
(0.675635 0.327752 -1.4145e-18)
(0.718951 0.30091 4.98284e-19)
(0.754411 0.276895 -2.3125e-18)
(0.0529493 0.123832 1.02894e-19)
(0.15012 0.257636 5.55013e-19)
(0.258732 0.315985 2.15855e-19)
(0.358958 0.331702 2.92558e-19)
(0.445955 0.324643 5.60483e-19)
(0.52052 0.306615 1.66852e-18)
(0.58417 0.284492 -2.04276e-18)
(0.63867 0.261884 -1.1504e-18)
(0.685537 0.240442 1.90627e-19)
(0.724917 0.221194 1.4997e-18)
(0.0370334 0.091695 -6.22257e-19)
(0.118115 0.189961 -7.39834e-20)
(0.220882 0.232169 -6.19944e-19)
(0.320299 0.24303 8.83038e-20)
(0.408921 0.23734 -5.30644e-19)
(0.486197 0.223805 -6.05818e-19)
(0.552904 0.207446 -9.0277e-19)
(0.610397 0.19087 2.43246e-18)
(0.660079 0.175234 4.1958e-19)
(0.702574 0.161149 -6.39599e-19)
(0.0259739 0.0563453 3.35389e-19)
(0.0960064 0.116398 4.43267e-19)
(0.194854 0.141933 1.74588e-19)
(0.293821 0.148298 -9.42395e-19)
(0.383651 0.144619 -4.38695e-19)
(0.462856 0.136231 -9.44715e-20)
(0.531705 0.126188 1.84567e-19)
(0.591276 0.116069 1.48202e-19)
(0.642904 0.106554 -1.14575e-18)
(0.687559 0.0979599 6.57464e-19)
(0.020307 0.0190068 -1.74661e-19)
(0.0847168 0.0392089 -1.98685e-19)
(0.181598 0.0477559 1.5834e-19)
(0.28037 0.0498516 1.40572e-19)
(0.37084 0.0485804 1.44062e-19)
(0.451046 0.0457394 2.20298e-19)
(0.520998 0.0423538 -1.15935e-20)
(0.581632 0.038951 -2.88935e-19)
(0.634253 0.0357565 2.74417e-19)
(0.680014 0.0328673 -4.12859e-19)
(0.0203069 -0.0190048 -1.75807e-19)
(0.0847167 -0.0392046 -1.89337e-19)
(0.181598 -0.0477506 1.74479e-19)
(0.280369 -0.0498458 3.4159e-19)
(0.37084 -0.0485746 2.27584e-19)
(0.451046 -0.0457337 -2.99863e-19)
(0.520998 -0.0423482 -1.62917e-19)
(0.581632 -0.0389457 7.10589e-20)
(0.634253 -0.0357515 1.5972e-19)
(0.680014 -0.0328624 -9.51056e-20)
(0.0259737 -0.0563432 4.19536e-19)
(0.0960059 -0.116394 -5.3313e-19)
(0.194853 -0.141928 -4.43266e-20)
(0.293821 -0.148292 2.95366e-19)
(0.38365 -0.144613 -1.33528e-18)
(0.462855 -0.136225 5.70514e-19)
(0.531705 -0.126183 5.88867e-19)
(0.591276 -0.116063 -6.95147e-19)
(0.642904 -0.106549 6.63965e-19)
(0.687559 -0.0979551 -2.91455e-19)
(0.037033 -0.091693 -7.25383e-20)
(0.118115 -0.189957 -9.23848e-21)
(0.220881 -0.232164 -1.43982e-18)
(0.320298 -0.243024 -4.57953e-19)
(0.40892 -0.237334 -4.82071e-20)
(0.486196 -0.223799 -7.53342e-19)
(0.552903 -0.20744 1.4036e-18)
(0.610396 -0.190865 -4.93633e-20)
(0.660078 -0.175229 8.01399e-19)
(0.702573 -0.161145 -7.04545e-19)
(0.0529487 -0.12383 1.22494e-19)
(0.150119 -0.257632 -5.66942e-19)
(0.258731 -0.31598 1.74461e-18)
(0.358957 -0.331697 2.46902e-19)
(0.445954 -0.324637 1.21355e-18)
(0.520518 -0.306609 -1.18626e-18)
(0.584169 -0.284486 1.24528e-18)
(0.638669 -0.261879 -8.97847e-19)
(0.685536 -0.240437 -3.94321e-19)
(0.724916 -0.22119 3.3487e-19)
(0.0729477 -0.151675 1.0935e-18)
(0.190671 -0.317386 2.81011e-21)
(0.307 -0.39112 -1.83821e-18)
(0.408549 -0.412157 -5.33251e-19)
(0.493719 -0.404592 1.77079e-18)
(0.565006 -0.382954 -1.03766e-18)
(0.624881 -0.355819 -1.20123e-18)
(0.675634 -0.327747 1.08081e-18)
(0.718949 -0.300905 -7.35713e-19)
(0.754409 -0.276891 -1.58634e-19)
(0.0960528 -0.17434 -1.63251e-19)
(0.238043 -0.367485 -7.70852e-21)
(0.363869 -0.455627 1.99435e-18)
(0.467437 -0.482522 1.14354e-18)
(0.550851 -0.475505 -1.34842e-18)
(0.618586 -0.451353 1.63273e-18)
(0.674233 -0.420137 -1.77135e-18)
(0.720719 -0.387295 1.76362e-19)
(0.75995 -0.355508 5.27656e-19)
(0.790887 -0.327116 1.2206e-18)
(0.121124 -0.191164 1.86923e-19)
(0.290177 -0.406564 3.00898e-19)
(0.427138 -0.507908 3.27139e-19)
(0.53361 -0.541239 -1.05295e-18)
(0.615656 -0.535989 -1.87526e-18)
(0.679912 -0.510617 3.94938e-19)
(0.731228 -0.476427 1.14316e-18)
(0.773259 -0.439618 -3.27179e-19)
(0.808187 -0.403343 1.96923e-18)
(0.834268 -0.370855 -1.91964e-18)
(0.146902 -0.20173 -1.05794e-18)
(0.344745 -0.433666 4.06065e-19)
(0.494266 -0.546791 -1.09745e-18)
(0.604694 -0.587146 1.77404e-18)
(0.686088 -0.585023 8.87124e-19)
(0.747322 -0.559931 1.25251e-18)
(0.794612 -0.524077 -2.89636e-19)
(0.832451 -0.484249 1.14218e-18)
(0.863368 -0.443951 -2.41797e-18)
(0.884672 -0.407464 -6.3042e-19)
(0.17206 -0.205885 6.26046e-20)
(0.399227 -0.448274 -7.10125e-19)
(0.562422 -0.571549 -1.13588e-18)
(0.677963 -0.619496 -4.81797e-19)
(0.759698 -0.622017 -1.36124e-18)
(0.818735 -0.598992 -1.38683e-19)
(0.862727 -0.563184 1.18736e-19)
(0.897146 -0.521732 -5.31721e-19)
(0.925147 -0.478146 -5.94615e-19)
(0.942634 -0.437376 1.56793e-18)
(0.195262 -0.203738 3.33725e-19)
(0.450996 -0.450318 4.65461e-19)
(0.628552 -0.581886 8.34622e-19)
(0.750311 -0.637921 3.72558e-20)
(0.833433 -0.646767 5.5744e-19)
(0.8911 -0.628052 -7.62755e-19)
(0.932351 -0.594731 2.32958e-18)
(0.963609 -0.553869 -1.02835e-18)
(0.989492 -0.507883 -5.05365e-19)
(1.00635 -0.460986 -1.52418e-18)
(0.215247 -0.195666 -1.31248e-19)
(0.497466 -0.440154 2.30148e-19)
(0.689514 -0.577829 -2.36188e-19)
(0.818315 -0.642127 1.27729e-19)
(0.903474 -0.658826 -1.51045e-19)
(0.959746 -0.646834 -3.87748e-19)
(0.997326 -0.619355 5.09975e-19)
(1.02321 -0.584688 -1.67538e-19)
(1.04275 -0.547985 2.58818e-19)
(1.05907 -0.515003 -5.64964e-19)
(0.230955 -0.182324 -6.2708e-21)
(0.536369 -0.418587 -1.09288e-19)
(0.742588 -0.559694 2.52184e-20)
(0.879301 -0.631639 1.4194e-19)
(0.967616 -0.656563 -6.62996e-20)
(1.0234 -0.651784 1.81185e-20)
(1.05794 -0.629956 -1.6888e-20)
(1.07896 -0.599639 -3.79003e-19)
(1.09218 -0.566599 -1.76661e-19)
(1.10259 -0.534672 -5.54189e-19)
(0.241616 -0.164649 -9.70823e-20)
(0.565884 -0.387 3.42767e-19)
(0.785515 -0.528534 -2.13902e-19)
(0.931099 -0.606968 -7.98506e-20)
(1.02426 -0.640042 3.9392e-20)
(1.08152 -0.642879 6.71836e-20)
(1.11507 -0.62717 -5.88806e-21)
(1.13356 -0.601436 2.85483e-19)
(1.14308 -0.571954 -2.47499e-19)
(1.14925 -0.541844 -3.27501e-21)
(0.246786 -0.143798 -2.37889e-19)
(0.584677 -0.347304 -1.49496e-19)
(0.816418 -0.486124 -3.70914e-19)
(0.971667 -0.569512 4.2215e-19)
(1.07153 -0.610393 -3.08987e-20)
(1.13256 -0.621285 1.38519e-19)
(1.16748 -0.612586 1.58164e-19)
(1.18566 -0.59247 -5.72743e-20)
(1.19362 -0.567397 4.54046e-20)
(1.19717 -0.539981 -1.48615e-19)
(0.246342 -0.121025 -1.61601e-19)
(0.591941 -0.30175 -2.0756e-19)
(0.833844 -0.434732 3.13135e-19)
(0.999128 -0.521176 -4.71099e-19)
(1.10735 -0.569102 8.27151e-20)
(1.17437 -0.588149 4.20283e-20)
(1.21295 -0.587099 9.22127e-20)
(1.23281 -0.573454 -6.04613e-20)
(1.24085 -0.553559 -7.29274e-20)
(1.24297 -0.529673 -2.45663e-19)
(0.240469 -0.0975797 6.73701e-19)
(0.587432 -0.252754 -5.27095e-19)
(0.836874 -0.376954 2.45662e-20)
(1.01196 -0.464249 -6.76181e-19)
(1.12978 -0.517993 -1.96602e-19)
(1.20479 -0.544833 1.57392e-19)
(1.24924 -0.551702 1.15467e-19)
(1.27281 -0.545137 -3.85338e-19)
(1.2826 -0.531138 1.70497e-19)
(1.2846 -0.511701 -3.0658e-19)
(0.229623 -0.0746216 3.34149e-19)
(0.571477 -0.202737 -3.30681e-19)
(0.825205 -0.31556 1.18742e-18)
(1.00914 -0.401319 9.48441e-20)
(1.13721 -0.459223 2.69397e-19)
(1.22185 -0.493014 9.62324e-19)
(1.2742 -0.507644 -1.99699e-19)
(1.30356 -0.508458 4.91914e-20)
(1.31698 -0.500905 -2.80301e-20)
(1.32036 -0.486738 -4.9901e-20)
(0.214483 -0.0531576 2.5749e-19)
(0.544941 -0.153985 5.85327e-19)
(0.799186 -0.25335 -5.96881e-19)
(0.990273 -0.335155 -1.81461e-19)
(1.12851 -0.395214 -1.92276e-19)
(1.22386 -0.434635 3.78113e-19)
(1.28587 -0.456393 -1.78582e-19)
(1.32301 -0.464493 4.21402e-19)
(1.34202 -0.463646 1.01739e-19)
(1.34851 -0.455353 -1.78837e-19)
(0.195896 -0.0339963 -2.78153e-19)
(0.509165 -0.10852 2.58149e-19)
(0.759821 -0.192995 -5.30117e-19)
(0.955619 -0.268577 2.22011e-19)
(1.10315 -0.32857 -2.22568e-19)
(1.20959 -0.371885 -2.64778e-19)
(1.28254 -0.399656 -2.05579e-19)
(1.32923 -0.414506 2.26881e-19)
(1.35579 -0.420266 -3.94757e-19)
(1.36725 -0.418157 2.49881e-19)
(0.174815 -0.0177209 -1.0419e-19)
(0.465871 -0.0680055 -2.04509e-19)
(0.708717 -0.136902 9.62099e-20)
(0.906169 -0.204322 7.0904e-21)
(1.06127 -0.261992 7.66104e-20)
(1.17838 -0.307165 1.09808e-19)
(1.2629 -0.339409 9.35829e-20)
(1.32052 -0.360021 -1.26599e-19)
(1.35641 -0.371882 1.03308e-19)
(1.37477 -0.375905 -1.63229e-19)
(0.152231 -0.00468114 -6.56512e-20)
(0.417044 -0.0336802 -2.64623e-20)
(0.647996 -0.0870966 9.86494e-20)
(0.843603 -0.144913 -4.44947e-20)
(1.00378 -0.198164 1.24596e-19)
(1.13026 -0.243034 -1.57517e-19)
(1.22619 -0.27789 4.0445e-20)
(1.29552 -0.302872 3.4736e-20)
(1.34217 -0.319905 -1.24486e-20)
(1.36925 -0.329588 5.70254e-20)
(0.129108 0.00499804 -7.8752e-20)
(0.364799 -0.00632015 -3.33975e-19)
(0.58016 -0.045124 -2.69176e-20)
(0.770216 -0.092523 1.07432e-20)
(0.932356 -0.139626 -4.63528e-19)
(1.06604 -0.182116 4.89489e-20)
(1.17234 -0.217573 -5.18591e-20)
(1.25338 -0.245232 -1.41142e-19)
(1.31167 -0.266122 3.12484e-19)
(1.34901 -0.280543 -5.68567e-19)
(0.106329 0.0113919 -4.46516e-20)
(0.311235 0.013757 7.16351e-19)
(0.507923 -0.011991 9.55887e-20)
(0.688788 -0.0488607 -6.47246e-19)
(0.849364 -0.0886277 -7.74675e-20)
(0.98736 -0.126969 -7.30205e-19)
(1.10207 -0.161085 5.67885e-19)
(1.19395 -0.189599 -2.30593e-19)
(1.26404 -0.212757 4.37047e-19)
(1.31267 -0.230565 -3.8573e-19)
(0.0846433 0.0147402 -2.52554e-19)
(0.258317 0.0266626 2.94171e-19)
(0.434039 0.0118641 -2.05504e-19)
(0.602404 -0.015063 1.42052e-18)
(0.757759 -0.0469711 7.52093e-19)
(0.896639 -0.0799099 -1.96986e-19)
(1.01701 -0.111059 7.65993e-19)
(1.11795 -0.138713 -5.00952e-19)
(1.1991 -0.162466 -1.61255e-19)
(1.25939 -0.181988 1.16435e-18)
(0.0646473 0.0154067 -4.66934e-19)
(0.207765 0.0328871 6.9728e-19)
(0.361115 0.0265729 -1.32256e-18)
(0.514228 0.00838519 2.28959e-19)
(0.660862 -0.0158485 5.71024e-19)
(0.796934 -0.0428053 -7.17533e-19)
(0.919605 -0.069911 -1.27117e-18)
(1.02698 -0.0953754 6.81478e-19)
(1.11759 -0.118234 -8.8649e-19)
(1.18907 -0.137674 1.4187e-18)
(0.0467705 0.0138416 -1.15421e-19)
(0.160986 0.0332441 -7.01875e-19)
(0.291463 0.0328217 3.46463e-19)
(0.427282 0.0217196 8.67008e-19)
(0.562088 0.00432998 -4.65701e-19)
(0.691674 -0.0167985 -4.59682e-19)
(0.812914 -0.0395172 -7.7954e-19)
(0.92346 -0.062121 -3.57257e-19)
(1.02111 -0.0831079 -8.58318e-20)
(1.1025 -0.100861 1.41769e-18)
(0.0312919 0.0105563 1.93864e-19)
(0.119043 0.0288235 -9.53606e-19)
(0.226982 0.0318307 1.63136e-18)
(0.34422 0.0259534 -9.08399e-19)
(0.464643 0.014117 5.88735e-19)
(0.584289 -0.00198306 -7.32579e-19)
(0.700221 -0.0207456 8.15963e-19)
(0.810196 -0.0406732 7.12693e-19)
(0.911847 -0.0596728 1.55716e-18)
(1.00117 -0.0747333 -2.57436e-18)
(0.0183701 0.00611248 -6.02376e-19)
(0.0826708 0.0209496 1.20982e-18)
(0.169108 0.0253132 1.61924e-20)
(0.267199 0.0228984 -4.35814e-19)
(0.371273 0.0151858 -2.3138e-19)
(0.477836 0.00296856 1.85056e-19)
(0.584489 -0.0128228 -1.31383e-18)
(0.689675 -0.0310768 1.01509e-18)
(0.791612 -0.0491129 -1.30827e-18)
(0.886316 -0.0615895 -5.97094e-19)
(0.0080751 0.00111813 1.03674e-18)
(0.0523098 0.0111241 -3.23415e-19)
(0.118845 0.0153801 -6.06885e-19)
(0.197879 0.0150888 1.64835e-18)
(0.284219 0.0103689 -1.61936e-18)
(0.374812 0.00108099 9.04869e-19)
(0.467848 -0.0126867 9.63838e-19)
(0.562756 -0.030623 2.63768e-19)
(0.659187 -0.0500142 2.74312e-19)
(0.754845 -0.0621679 -3.89027e-19)
(0.000400592 -0.00379908 -9.91618e-19)
(0.0281595 0.000904292 9.42677e-19)
(0.0768864 0.00432261 -8.34305e-19)
(0.137678 0.00553116 1.04692e-18)
(0.205708 0.00353228 -3.12778e-19)
(0.278014 -0.00259788 -1.08655e-18)
(0.352759 -0.0135961 3.11582e-19)
(0.429537 -0.0304045 -5.14073e-19)
(0.509324 -0.0522883 -6.08852e-19)
(0.594469 -0.0692781 -1.89916e-18)
(-0.00476127 -0.00807742 -1.239e-18)
(0.0101807 -0.00835695 9.85104e-19)
(0.0437083 -0.00589099 -1.93037e-18)
(0.0880957 -0.00314267 3.45218e-19)
(0.138887 -0.0016709 -1.33761e-18)
(0.19298 -0.00243785 -8.02373e-19)
(0.247801 -0.00576643 1.92034e-18)
(0.301411 -0.0118762 -2.62566e-18)
(0.353166 -0.0213622 5.05406e-19)
(0.40034 -0.0300835 -8.32854e-19)
(-0.00767545 -0.0113405 6.1035e-19)
(-0.0020181 -0.0158145 2.58351e-19)
(0.0193081 -0.0142799 -7.69202e-20)
(0.0501479 -0.010239 7.33662e-19)
(0.0868187 -0.00557966 2.15466e-18)
(0.126746 -0.00126264 7.43783e-19)
(0.167921 0.002521 7.68632e-19)
(0.209143 0.00582057 -2.65753e-19)
(0.250489 0.00797901 -2.48007e-18)
(0.289399 0.00941287 6.28904e-19)
(-0.008779 -0.0134185 -1.72364e-19)
(-0.00930792 -0.0210649 5.48643e-19)
(0.00268773 -0.0204646 -1.43739e-19)
(0.022803 -0.0157626 1.0149e-18)
(0.0482696 -0.00913351 -2.34659e-18)
(0.0771413 -0.00173749 1.9925e-19)
(0.107989 0.00589831 -1.11704e-18)
(0.140034 0.0133666 1.64398e-18)
(0.173099 0.0197032 -4.80472e-19)
(0.204523 0.02422 -6.86596e-20)
(-0.0085847 -0.0142997 -1.1733e-19)
(-0.0128171 -0.023988 -6.59795e-19)
(-0.00768167 -0.0242762 1.65958e-18)
(0.00413202 -0.0195787 -8.74995e-19)
(0.0207364 -0.012263 6.14615e-20)
(0.0407208 -0.00370543 2.80822e-19)
(0.0630452 0.00522587 -2.56749e-19)
(0.0870888 0.013739 3.33615e-19)
(0.112437 0.020733 1.15627e-18)
(0.136887 0.0254106 3.02607e-19)
(-0.00758187 -0.0140711 -2.63233e-19)
(-0.0136856 -0.0246504 -2.92809e-19)
(-0.013406 -0.0256731 -1.29967e-18)
(-0.00788097 -0.0214702 6.92083e-19)
(0.00179486 -0.0144368 -1.42756e-18)
(0.0146597 -0.00604647 3.24302e-19)
(0.0299541 0.00267167 3.64683e-19)
(0.047138 0.010808 -3.8549e-19)
(0.0656931 0.0173529 -2.49435e-19)
(0.0839767 0.0215824 -1.12093e-18)
(-0.00618602 -0.0128723 2.05681e-19)
(-0.0129334 -0.0232456 -4.83906e-20)
(-0.0159661 -0.0247436 9.64846e-22)
(-0.0151055 -0.0213082 -6.2468e-19)
(-0.0107703 -0.0151786 1.58135e-18)
(-0.00355386 -0.00777717 -2.4666e-19)
(0.00599974 -0.000127092 -6.15605e-19)
(0.0174162 0.00691781 7.5349e-19)
(0.0301586 0.0125399 -2.64817e-19)
(0.0430678 0.0161408 1.46372e-18)
(-0.00472356 -0.010866 -3.86092e-20)
(-0.0113994 -0.0200508 -2.26354e-19)
(-0.0166071 -0.0217004 -8.93372e-20)
(-0.019116 -0.0191211 -1.14136e-19)
(-0.0187999 -0.0142298 -2.45376e-19)
(-0.0159572 -0.00826457 -7.70609e-19)
(-0.0109603 -0.00212046 9.63963e-19)
(-0.00421666 0.00349313 5.63144e-19)
(0.00376022 0.00796623 -1.0087e-19)
(0.012179 0.010839 -8.97809e-19)
(-0.00343564 -0.00822305 2.19262e-19)
(-0.00972602 -0.0154017 3.83057e-20)
(-0.0162949 -0.0168714 2.59325e-19)
(-0.02113 -0.0151184 -2.96931e-20)
(-0.0236946 -0.0116044 2.36134e-19)
(-0.0240637 -0.00728124 2.6643e-19)
(-0.022476 -0.00283509 3.99462e-19)
(-0.019276 0.00121106 -1.13162e-18)
(-0.0149429 0.00444028 -2.08876e-19)
(-0.0100096 0.00652845 3.7434e-19)
(-0.00248983 -0.00511942 -1.10722e-19)
(-0.00836987 -0.00967902 -1.57362e-19)
(-0.0157213 -0.0106863 -7.5693e-20)
(-0.0220158 -0.00968156 3.70243e-19)
(-0.0264425 -0.00757801 1.79716e-19)
(-0.0289252 -0.00497257 3.68575e-20)
(-0.0296096 -0.0022937 -7.99084e-20)
(-0.0287917 0.000140194 -6.19917e-20)
(-0.026921 0.00208731 5.32126e-19)
(-0.0243686 0.00335488 -3.62412e-19)
(-0.00199154 -0.00173627 5.64464e-20)
(-0.00762151 -0.00329724 7.02297e-20)
(-0.0153277 -0.00365397 -5.98818e-20)
(-0.0223254 -0.00332768 -5.47707e-20)
(-0.0276666 -0.00262853 -5.67894e-20)
(-0.0311988 -0.00175961 -9.062e-20)
(-0.0330196 -0.00086628 2.90866e-21)
(-0.0333986 -5.52533e-05 1.25739e-19)
(-0.032769 0.000594347 -1.26257e-19)
(-0.0314244 0.00101856 2.29713e-19)
(-0.00785046 -0.00261449 1.66217e-20)
(0.0626153 -0.00666189 1.00249e-20)
(0.278206 -0.00674465 1.36753e-21)
(0.378995 -0.00435045 -9.20294e-22)
(0.4805 -0.00367669 -6.31217e-23)
(0.558215 -0.00265075 1.5737e-22)
(0.607887 -0.00227156 2.02216e-22)
(0.668411 -0.00171861 -4.56158e-23)
(0.688649 -0.00159684 -1.22976e-24)
(0.745661 -0.00114078 2.44048e-22)
(0.00897046 -0.00811787 2.63051e-20)
(0.077876 -0.0197689 1.17711e-21)
(0.289718 -0.020077 -1.77763e-20)
(0.38774 -0.0130347 1.4463e-20)
(0.48724 -0.0110703 9.37276e-22)
(0.563448 -0.00792083 -6.64205e-22)
(0.61219 -0.0067346 8.3382e-22)
(0.671768 -0.00498595 1.00033e-22)
(0.691595 -0.00464736 2.81452e-22)
(0.747869 -0.0034173 -2.24511e-22)
(0.0423111 -0.0145015 2.70157e-20)
(0.107923 -0.0323947 -3.64117e-20)
(0.312316 -0.0329491 1.81413e-20)
(0.404921 -0.0214186 -1.20209e-20)
(0.500478 -0.0182358 8.77895e-22)
(0.573729 -0.0130384 -6.96373e-22)
(0.620653 -0.0110812 -3.24044e-22)
(0.678364 -0.00817171 7.91976e-24)
(0.697405 -0.00763106 -2.19018e-22)
(0.752208 -0.00565153 -3.27991e-22)
(0.0915668 -0.0222436 -4.17341e-20)
(0.151832 -0.0442402 -5.04148e-20)
(0.345167 -0.0450747 -2.34367e-20)
(0.429936 -0.0293182 1.24482e-20)
(0.519763 -0.0250326 -1.53975e-20)
(0.588744 -0.0179099 4.18214e-21)
(0.633037 -0.0152395 -2.62017e-22)
(0.688052 -0.0112254 1.81731e-22)
(0.705959 -0.0105055 -2.42901e-22)
(0.758638 -0.00781601 1.21366e-22)
(0.155801 -0.0316165 1.15708e-19)
(0.208273 -0.0550177 7.31041e-20)
(0.387072 -0.0561899 2.63487e-20)
(0.461912 -0.0365716 -2.42467e-20)
(0.544438 -0.0313358 1.26673e-20)
(0.60802 -0.0224518 3.42882e-21)
(0.64898 -0.0191442 2.68063e-21)
(0.700569 -0.0141013 3.42721e-22)
(0.717051 -0.0132322 5.91586e-22)
(0.767016 -0.00988583 -6.41578e-22)
(0.233727 -0.0425471 -5.12399e-20)
(0.275566 -0.064412 3.89928e-20)
(0.436544 -0.0660404 4.84918e-21)
(0.49977 -0.0430351 2.71738e-20)
(0.573692 -0.0370375 -6.22829e-21)
(0.630976 -0.0265935 -4.03455e-21)
(0.668036 -0.0227393 -2.75328e-21)
(0.715605 -0.0167599 -2.54024e-22)
(0.730435 -0.0157768 -2.8326e-22)
(0.77719 -0.0118377 6.76287e-22)
(0.323709 -0.054754 -3.87391e-20)
(0.351737 -0.0721582 -1.01643e-19)
(0.491875 -0.0744227 -1.72997e-20)
(0.54227 -0.0485929 -1.50247e-20)
(0.6066 -0.0420544 7.38082e-21)
(0.656943 -0.0302791 -2.12938e-21)
(0.689691 -0.0259798 2.83044e-21)
(0.732793 -0.0191689 5.97398e-22)
(0.745817 -0.0181105 -8.33427e-23)
(0.788971 -0.0136507 2.59932e-22)