/*--------------------------------*- C++ -*----------------------------------*\
  =========                 |
  \\      /  F ield         | OpenFOAM: The Open Source CFD Toolbox
   \\    /   O peration     | Website:  https://openfoam.org
    \\  /    A nd           | Version:  6.0
     \\/     M anipulation  |
\*---------------------------------------------------------------------------*/
FoamFile
{
    version     2.0;
    format      ascii;
    class       surfaceScalarField;
    location    "0.2";
    object      phi;
}
// * * * * * * * * * * * * * * * * * * * * * * * * * * * * * * * * * * * * * //

dimensions      [0 3 -1 0 0 0 0];

internalField   nonuniform List<scalar> 
370
(
-1.99214e-09
1.99171e-09
-1.69371e-07
1.67379e-07
-4.30322e-07
2.60951e-07
-7.21876e-07
2.91554e-07
-1.02374e-06
3.0186e-07
-1.33646e-06
3.12728e-07
-1.66844e-06
3.31978e-07
-2.03211e-06
3.63665e-07
-2.4427e-06
4.10599e-07
-2.91492e-06
4.72213e-07
-3.45413e-06
5.3921e-07
-4.04e-06
5.8587e-07
-4.60253e-06
5.62531e-07
-4.99896e-06
3.96433e-07
-5.01579e-06
1.68279e-08
-4.43378e-06
-5.82007e-07
-3.18148e-06
-1.2523e-06
-1.54234e-06
-1.63914e-06
-2.45056e-07
-1.29729e-06
-2.45056e-07
-2.20989e-07
2.2298e-07
-7.66556e-07
7.12947e-07
-1.47481e-06
9.69209e-07
-2.23797e-06
1.05471e-06
-3.01159e-06
1.07548e-06
-3.78804e-06
1.08918e-06
-4.57703e-06
1.12097e-06
-5.39655e-06
1.18319e-06
-6.26655e-06
1.2806e-06
-7.19858e-06
1.40424e-06
-8.17794e-06
1.51858e-06
-9.13905e-06
1.54698e-06
-9.94012e-06
1.3636e-06
-1.03515e-05
8.0781e-07
-1.0079e-05
-2.5566e-07
-8.8486e-06
-1.81241e-06
-6.57668e-06
-3.52422e-06
-3.62232e-06
-4.5935e-06
-9.90825e-07
-3.92878e-06
-1.23588e-06
-4.548e-07
6.77781e-07
-1.36791e-06
1.62605e-06
-2.4525e-06
2.05381e-06
-3.56458e-06
2.16679e-06
-4.64967e-06
2.16057e-06
-5.6972e-06
2.13671e-06
-6.71662e-06
2.14038e-06
-7.72697e-06
2.19354e-06
-8.74916e-06
2.30279e-06
-9.79441e-06
2.44948e-06
-1.08469e-05
2.57104e-06
-1.18422e-05
2.54234e-06
-1.26477e-05
2.16905e-06
-1.30516e-05
1.21168e-06
-1.27717e-05
-5.35562e-07
-1.14982e-05
-3.08583e-06
-9.01218e-06
-6.01027e-06
-5.44805e-06
-8.15763e-06
-1.75112e-06
-7.62572e-06
-2.987e-06
-6.66708e-07
1.34449e-06
-1.89337e-06
2.85271e-06
-3.25677e-06
3.41721e-06
-4.58015e-06
3.49017e-06
-5.80946e-06
3.38988e-06
-6.9384e-06
3.26564e-06
-7.97943e-06
3.18141e-06
-8.95447e-06
3.16859e-06
-9.88941e-06
3.23773e-06
-1.08063e-05
3.36642e-06
-1.17118e-05
3.47648e-06
-1.25805e-05
3.41103e-06
-1.33363e-05
2.9249e-06
-1.38326e-05
1.708e-06
-1.38336e-05
-5.34596e-07
-1.30037e-05
-3.91573e-06
-1.09415e-05
-8.07244e-06
-7.37788e-06
-1.17213e-05
-2.83173e-06
-1.21719e-05
-5.81873e-06
-8.73887e-07
2.21838e-06
-2.35423e-06
4.33305e-06
-3.87889e-06
4.94187e-06
-5.258e-06
4.86928e-06
-6.45616e-06
4.58804e-06
-7.48116e-06
4.29064e-06
-8.35274e-06
4.05299e-06
-9.09645e-06
3.91229e-06
-9.7422e-06
3.88349e-06
-1.03232e-05
3.94742e-06
-1.08729e-05
4.02614e-06
-1.1417e-05
3.95515e-06
-1.1958e-05
3.46588e-06
-1.24488e-05
2.1988e-06
-1.27556e-05
-2.27729e-07
-1.26042e-05
-4.06717e-06
-1.15071e-05
-9.16956e-06
-8.77605e-06
-1.44523e-05
-4.11504e-06
-1.68329e-05
-9.93377e-06
-1.12446e-06
3.34284e-06
-2.80429e-06
6.01288e-06
-4.32956e-06
6.46713e-06
-5.55498e-06
6.0947e-06
-6.50253e-06
5.53559e-06
-7.21151e-06
4.99963e-06
-7.7161e-06
4.55758e-06
-8.04551e-06
4.2417e-06
-8.2272e-06
4.06518e-06
-8.29273e-06
4.01295e-06
-8.28569e-06
4.0191e-06
-8.26783e-06
3.93729e-06
-8.31687e-06
3.51492e-06
-8.50817e-06
2.3901e-06
-8.87319e-06
1.37284e-07
-9.31747e-06
-3.62288e-06
-9.45833e-06
-9.02871e-06
-8.38576e-06
-1.55249e-05
-4.89248e-06
-2.03262e-05
-1.48262e-05
-1.51883e-06
4.86167e-06
-3.30606e-06
7.80011e-06
-4.51789e-06
7.67897e-06
-5.22104e-06
6.79785e-06
-5.57129e-06
5.88584e-06
-5.66752e-06
5.09585e-06
-5.5674e-06
4.45746e-06
-5.30432e-06
3.97862e-06
-4.89669e-06
3.65755e-06
-4.35942e-06
3.47568e-06
-3.72092e-06
3.38061e-06
-3.04384e-06
3.26021e-06
-2.44423e-06
2.91531e-06
-2.09675e-06
2.04262e-06
-2.21122e-06
2.5176e-07
-2.94842e-06
-2.88569e-06
-4.22529e-06
-7.75184e-06
-5.26104e-06
-1.44891e-05
-4.21894e-06
-2.13683e-05
-1.90452e-05
-2.28046e-06
7.14213e-06
-3.72775e-06
9.2474e-06
-3.81068e-06
7.7619e-06
-3.24184e-06
6.22901e-06
-2.42141e-06
5.06541e-06
-1.49581e-06
4.17025e-06
-5.18589e-07
3.48025e-06
4.91968e-07
2.96806e-06
1.53978e-06
2.60974e-06
2.63852e-06
2.37694e-06
3.79163e-06
2.2275e-06
4.9653e-06
2.08654e-06
6.05398e-06
1.82664e-06
6.84977e-06
1.24682e-06
7.02858e-06
7.29441e-08
6.19676e-06
-2.05387e-06
4.03535e-06
-5.59042e-06
8.15413e-07
-1.12692e-05
-1.53746e-06
-1.90154e-05
-2.05826e-05
-3.41552e-06
1.05577e-05
-1.75967e-06
7.59155e-06
1.31929e-06
4.68293e-06
4.12335e-06
3.42495e-06
6.54234e-06
2.64643e-06
8.65813e-06
2.05445e-06
1.0522e-05
1.61634e-06
1.21826e-05
1.30748e-06
1.36953e-05
1.09708e-06
1.51138e-05
9.58432e-07
1.64757e-05
8.65612e-07
1.77802e-05
7.81997e-07
1.89542e-05
6.52645e-07
1.98091e-05
3.9189e-07
1.99957e-05
-1.1362e-07
1.89799e-05
-1.03802e-06
1.60777e-05
-2.68829e-06
1.0725e-05
-5.91652e-06
3.73817e-06
-1.20285e-05
-1.68445e-05
1.05577e-05
1.81492e-05
2.28321e-05
2.62571e-05
2.89035e-05
3.0958e-05
3.25743e-05
3.38818e-05
3.49789e-05
3.59373e-05
3.68029e-05
3.75849e-05
3.82375e-05
3.86294e-05
3.85158e-05
3.74778e-05
3.47895e-05
2.8873e-05
1.68445e-05
)
;

boundaryField
{
    movingWall
    {
        type            calculated;
        value           uniform 0;
    }
    fixedWalls
    {
        type            calculated;
        value           uniform 0;
    }
    frontAndBack
    {
        type            empty;
        value           nonuniform 0();
    }
}


// ************************************************************************* //
