/*--------------------------------*- C++ -*----------------------------------*\
  =========                 |
  \\      /  F ield         | OpenFOAM: The Open Source CFD Toolbox
   \\    /   O peration     | Website:  https://openfoam.org
    \\  /    A nd           | Version:  6.0
     \\/     M anipulation  |
\*---------------------------------------------------------------------------*/
FoamFile
{
    version     2.0;
    format      ascii;
    class       surfaceScalarField;
    location    "90";
    object      phi;
}
// * * * * * * * * * * * * * * * * * * * * * * * * * * * * * * * * * * * * * //

dimensions      [0 3 -1 0 0 0 0];

internalField   nonuniform List<scalar> 
68636
(
3.02225e-05
0.0031056
8.71355e-09
6.08383e-05
0.00307069
9.10881e-05
0.00300236
0.000120479
0.00290111
0.000148622
0.00276798
0.000175173
0.00260444
0.000199816
0.00241228
0.000222269
0.00219366
0.000242273
0.00195098
0.000259601
0.00168691
0.000274057
0.00140432
0.000285478
0.0011062
0.000293762
0.000795866
0.000298727
0.000475927
0.000144592
0.000298341
2.9937e-05
0.00307564
2.16109e-08
6.02765e-05
0.00304035
9.02529e-05
0.00297238
0.000119378
0.00287198
0.000147266
0.00274009
0.000173575
0.00257812
0.000197994
0.00238786
0.000220243
0.00217141
0.000240064
0.00193116
0.000257235
0.00166973
0.00027156
0.00138999
0.000282875
0.00109488
0.000291122
0.000787621
0.000295817
0.000471235
0.000144734
0.000295683
2.96542e-05
0.00304596
3.39251e-08
5.97196e-05
0.00301028
8.94252e-05
0.00294267
0.000118287
0.00284312
0.000145923
0.00271245
0.000171994
0.00255205
0.000196192
0.00236366
0.000218239
0.00214936
0.00023788
0.00191152
0.000254894
0.00165272
0.000269089
0.0013758
0.000280296
0.00108368
0.000288468
0.000779451
0.000293237
0.000466467
0.000144347
0.000293628
2.93742e-05
0.00301654
4.57769e-08
5.91678e-05
0.00298049
8.86051e-05
0.00291324
0.000117206
0.00281452
0.000144593
0.00268507
0.000170428
0.00252622
0.000194407
0.00233968
0.000216254
0.00212752
0.000235716
0.00189205
0.000252575
0.00163586
0.00026664
0.00136173
0.000277741
0.00107258
0.000285818
0.000771377
0.00029062
0.000461671
0.000143632
0.000291347
2.9097e-05
0.00298738
5.71831e-08
5.86212e-05
0.00295097
8.77924e-05
0.00288406
0.000116135
0.00278618
0.000143274
0.00265793
0.000168876
0.00250061
0.000192638
0.00231592
0.000214285
0.00210587
0.000233571
0.00187277
0.000250275
0.00161916
0.000264212
0.00134779
0.000275209
0.00106158
0.000283189
0.000763397
0.000287967
0.000456893
0.000142691
0.000288909
2.88225e-05
0.00295849
6.81931e-08
5.80795e-05
0.00292171
8.6987e-05
0.00285516
0.000115073
0.00275809
0.000141967
0.00263103
0.000167337
0.00247525
0.000190883
0.00229237
0.000212334
0.00208442
0.000231444
0.00185366
0.000247996
0.00160261
0.000261805
0.00133399
0.000272701
0.00105069
0.000280588
0.000755514
0.000285324
0.000452165
0.000141628
0.000286399
2.85505e-05
0.00292986
7.87175e-08
5.75427e-05
0.00289272
8.61887e-05
0.00282651
0.000114021
0.00273026
0.000140671
0.00260438
0.000165811
0.00245011
0.000189144
0.00226904
0.0002104
0.00206316
0.000229335
0.00183472
0.000245736
0.00158621
0.00025942
0.0013203
0.000270217
0.00103989
0.000278017
0.000747713
0.000282704
0.000447478
0.000140472
0.000283859
2.82813e-05
0.00290149
8.87704e-08
5.70109e-05
0.00286399
8.53976e-05
0.00279812
0.000112978
0.00270268
0.000139387
0.00257797
0.000164299
0.00242519
0.00018742
0.00224592
0.000208482
0.0020421
0.000227246
0.00181596
0.000243497
0.00156996
0.000257055
0.00130675
0.000267755
0.0010292
0.000275475
0.000739998
0.000280113
0.000442848
0.000139271
0.000281326
2.80147e-05
0.00287338
9.83442e-08
5.6484e-05
0.00283552
8.46137e-05
0.00276999
0.000111944
0.00267535
0.000138114
0.0025518
0.000162801
0.00240051
0.000185711
0.00222301
0.000206582
0.00202123
0.000225175
0.00179737
0.000241278
0.00155386
0.000254712
0.00129331
0.000265315
0.00101859
0.000272959
0.000732353
0.000277551
0.000438254
0.000138009
0.000278811
2.77508e-05
0.00284552
1.07415e-07
5.5962e-05
0.00280731
8.38369e-05
0.00274212
0.00011092
0.00264826
0.000136853
0.00252587
0.000161315
0.00237605
0.000184018
0.00220031
0.000204699
0.00200055
0.000223122
0.00177895
0.000239078
0.0015379
0.000252389
0.00128
0.000262897
0.00100809
0.000270468
0.000724786
0.000275019
0.00043371
0.000136725
0.000276314
2.74896e-05
0.00281791
1.15963e-07
5.5445e-05
0.00277935
8.30672e-05
0.0027145
0.000109905
0.00262143
0.000135602
0.00250017
0.000159843
0.00235181
0.000182339
0.00217781
0.000202832
0.00198006
0.000221088
0.00176069
0.000236898
0.00152209
0.000250087
0.00126681
0.0002605
0.000997672
0.000268001
0.000717282
0.000272512
0.000429197
0.000135398
0.000273834
2.7231e-05
0.00279056
1.23953e-07
5.49328e-05
0.00275165
8.23045e-05
0.00268712
0.000108899
0.00259483
0.000134363
0.00247471
0.000158383
0.00232779
0.000180675
0.00215552
0.000200982
0.00195975
0.000219071
0.0017426
0.000234738
0.00150643
0.000247806
0.00125375
0.000258125
0.000987356
0.000265557
0.000709854
0.000270029
0.000424732
0.000134065
0.000271373
2.69751e-05
0.00276345
1.31382e-07
5.44254e-05
0.0027242
8.15488e-05
0.00266
0.000107902
0.00256848
0.000133135
0.00244948
0.000156937
0.00230398
0.000179027
0.00213343
0.000199149
0.00193963
0.000217073
0.00172468
0.000232597
0.0014909
0.000245545
0.0012408
0.00025577
0.000977129
0.000263136
0.000702485
0.00026757
0.000420294
0.000132698
0.000268931
2.67218e-05
0.00273659
1.38252e-07
5.39228e-05
0.002697
8.08e-05
0.00263312
0.000106914
0.00254237
0.000131918
0.00242447
0.000155504
0.0022804
0.000177392
0.00211154
0.000197331
0.00191969
0.000215093
0.00170692
0.000230475
0.00147552
0.000243305
0.00122797
0.000253437
0.000967
0.000260737
0.000695189
0.000265133
0.000415904
0.000131335
0.000266506
2.64711e-05
0.00270997
1.44568e-07
5.3425e-05
0.00267004
8.00581e-05
0.00260649
0.000105935
0.00251649
0.000130712
0.00239969
0.000154083
0.00225703
0.000175773
0.00208985
0.000195531
0.00189993
0.000213131
0.00168932
0.000228373
0.00146028
0.000241085
0.00121526
0.000251125
0.000956958
0.000258359
0.000687952
0.000262719
0.00041154
0.000129948
0.000264099
2.6223e-05
0.0026836
1.5035e-07
5.29319e-05
0.00264333
7.9323e-05
0.0025801
0.000104964
0.00249085
0.000129516
0.00237514
0.000152675
0.00223387
0.000174168
0.00206836
0.000193746
0.00188036
0.000211186
0.00167188
0.000226289
0.00144518
0.000238885
0.00120266
0.000248834
0.000947013
0.000256004
0.000680786
0.000260326
0.000407223
0.000128574
0.000261711
2.59774e-05
0.00265747
1.55628e-07
5.24434e-05
0.00261687
7.85946e-05
0.00255395
0.000104003
0.00246544
0.000128332
0.00235081
0.00015128
0.00221092
0.000172577
0.00204706
0.000191977
0.00186096
0.000209259
0.0016546
0.000224224
0.00143021
0.000236706
0.00119018
0.000246564
0.000937153
0.000253669
0.000673676
0.000257955
0.000402932
0.000127181
0.00025934
2.57343e-05
0.00263157
1.60451e-07
5.19595e-05
0.00259064
7.78729e-05
0.00252803
0.00010305
0.00244026
0.000127158
0.00232671
0.000149898
0.00218818
0.000171001
0.00202596
0.000190225
0.00184173
0.000207349
0.00163747
0.000222178
0.00141538
0.000234546
0.00117781
0.000244314
0.000927388
0.000251357
0.000666637
0.000255606
0.000398688
0.000125807
0.00025699
2.54937e-05
0.00260591
1.64868e-07
5.14802e-05
0.00256466
7.71578e-05
0.00250235
0.000102106
0.00241531
0.000125995
0.00230282
0.000148527
0.00216565
0.000169439
0.00200505
0.000188488
0.00182269
0.000205456
0.0016205
0.000220151
0.00140069
0.000232406
0.00116556
0.000242085
0.000917706
0.000249065
0.000659654
0.000253278
0.00039447
0.000124418
0.000254658
2.52555e-05
0.00258049
1.68935e-07
5.10054e-05
0.00253891
7.64493e-05
0.00247691
0.000101171
0.00239059
0.000124842
0.00227914
0.00014717
0.00214332
0.000167891
0.00198432
0.000186767
0.00180381
0.000203581
0.00160369
0.000218142
0.00138613
0.000230286
0.00115341
0.000239876
0.000908118
0.000246794
0.00065274
0.000250971
0.000390298
0.000123051
0.000252347
2.50197e-05
0.0025553
1.72713e-07
5.0535e-05
0.00251339
7.57473e-05
0.0024517
0.000100243
0.0023661
0.000123699
0.00225569
0.000145824
0.00212119
0.000166357
0.00196379
0.000185061
0.00178511
0.000201722
0.00158703
0.000216151
0.0013717
0.000228184
0.00114138
0.000237688
0.000898611
0.000244544
0.00064588
0.000248685
0.000386151
0.000121672
0.000250056
2.47862e-05
0.00253033
1.76267e-07
5.0069e-05
0.00248811
7.50517e-05
0.00242672
9.93248e-05
0.00234182
0.000122567
0.00223245
0.000144491
0.00209927
0.000164837
0.00194344
0.000183371
0.00176657
0.00019988
0.00157052
0.000214178
0.0013574
0.000226102
0.00112946
0.00023552
0.000889196
0.000242315
0.000639088
0.000246421
0.000382049
0.000120316
0.000247785
2.45549e-05
0.0025056
1.79649e-07
4.96073e-05
0.00246305
7.43625e-05
0.00240196
9.84145e-05
0.00231777
0.000121445
0.00220941
0.000143169
0.00207755
0.000163331
0.00192328
0.000181696
0.00174821
0.000198055
0.00155416
0.000212223
0.00134323
0.000224039
0.00111764
0.000233371
0.00087986
0.000240106
0.000632349
0.000244177
0.000377973
0.00011895
0.000245533
2.43258e-05
0.00248109
1.82913e-07
4.915e-05
0.00243823
7.36795e-05
0.00237743
9.75125e-05
0.00229394
0.000120334
0.00218659
0.00014186
0.00205602
0.000161838
0.00190331
0.000180036
0.00173001
0.000196246
0.00153795
0.000210286
0.00132919
0.000221994
0.00110593
0.000231242
0.000870615
0.000237917
0.000625677
0.000241953
0.000373941
0.000117608
0.000243303
2.4099e-05
0.0024568
1.86102e-07
4.86968e-05
0.00241363
7.30028e-05
0.00235312
9.66187e-05
0.00227032
0.000119232
0.00216398
0.000140562
0.00203469
0.000160359
0.00188351
0.000178391
0.00171198
0.000194454
0.00152189
0.000208366
0.00131528
0.000219968
0.00109433
0.000229132
0.000861448
0.000235748
0.000619057
0.00023975
0.000369934
0.000116257
0.000241092
2.38742e-05
0.00243274
1.89256e-07
4.82478e-05
0.00238926
7.23323e-05
0.00232904
9.57329e-05
0.00224692
0.00011814
0.00214157
0.000139277
0.00201355
0.000158893
0.00186389
0.000176761
0.00169411
0.000192678
0.00150597
0.000206463
0.00130149
0.000217961
0.00108283
0.000227042
0.000852368
0.000233599
0.000612503
0.000237567
0.00036597
0.000114929
0.000238902
2.36515e-05
0.0024089
1.92404e-07
4.78029e-05
0.00236511
7.16678e-05
0.00230517
9.48552e-05
0.00222373
0.000117059
0.00211937
0.000138002
0.00199261
0.00015744
0.00184445
0.000175146
0.0016764
0.000190918
0.0014902
0.000204578
0.00128783
0.000215971
0.00107144
0.000224971
0.000843366
0.00023147
0.000606
0.000235404
0.00036203
0.000113592
0.000236731
2.34309e-05
0.00238527
1.95569e-07
4.7362e-05
0.00234118
7.10094e-05
0.00228153
9.39854e-05
0.00220076
0.000115986
0.00209737
0.00013674
0.00197186
0.000156
0.00182519
0.000173545
0.00165886
0.000189174
0.00147457
0.00020271
0.0012743
0.000214
0.00106015
0.000222918
0.00083445
0.000229359
0.000599561
0.00023326
0.000358133
0.000112279
0.00023458
2.32122e-05
0.00236186
1.98766e-07
4.69251e-05
0.00231746
7.03568e-05
0.00225809
9.31235e-05
0.00217799
0.000114924
0.00207557
0.000135488
0.00195129
0.000154573
0.00180611
0.000171959
0.00164147
0.000187446
0.00145908
0.000200859
0.00126088
0.000212047
0.00104896
0.000220884
0.000825609
0.000227269
0.000593173
0.000231136
0.00035426
0.000110958
0.000232448
2.29955e-05
0.00233866
2.02006e-07
4.64921e-05
0.00229397
6.97102e-05
0.00223488
9.22693e-05
0.00215543
0.000113871
0.00205396
0.000134248
0.00193091
0.00015316
0.0017872
0.000170387
0.00162424
0.000185733
0.00144374
0.000199024
0.00124759
0.000210111
0.00103787
0.000218869
0.000816853
0.000225197
0.000586847
0.000229031
0.000350429
0.000109661
0.000230334
2.27807e-05
0.00231567
2.05297e-07
4.6063e-05
0.00227068
6.90694e-05
0.00221187
9.14228e-05
0.00213308
0.000112828
0.00203256
0.000133019
0.00191072
0.000151758
0.00176846
0.000168829
0.00160717
0.000184036
0.00142853
0.000197207
0.00123442
0.000208193
0.00102688
0.000216872
0.00080817
0.000223144
0.000580571
0.000226945
0.000346622
0.000108357
0.000228239
2.25678e-05
0.0022929
2.08645e-07
4.56377e-05
0.00224761
6.84343e-05
0.00218907
9.05839e-05
0.00211093
0.000111794
0.00201135
0.000131801
0.00189071
0.00015037
0.00174989
0.000167285
0.00159026
0.000182354
0.00141346
0.000195405
0.00122137
0.000206292
0.001016
0.000214893
0.000799571
0.000221109
0.000574357
0.000224878
0.000342857
0.000107079
0.000226162
2.23567e-05
0.00227033
2.12055e-07
4.52162e-05
0.00222475
6.78049e-05
0.00216648
8.97525e-05
0.00208898
0.000110769
0.00199033
0.000130594
0.00187089
0.000148994
0.00173149
0.000165756
0.00157349
0.000180687
0.00139853
0.00019362
0.00120843
0.000204409
0.00100521
0.000212933
0.000791044
0.000219094
0.000568192
0.000222829
0.000339115
0.000105796
0.000224103
2.21475e-05
0.00224797
2.15534e-07
4.47984e-05
0.0022021
6.71811e-05
0.0021441
8.89286e-05
0.00206723
0.000109754
0.00196951
0.000129398
0.00185124
0.000147631
0.00171326
0.00016424
0.00155689
0.000179036
0.00138373
0.000191852
0.00119562
0.000202543
0.000994517
0.00021099
0.000782599
0.000217096
0.000562087
0.0002208
0.000335415
0.000104538
0.000222063
2.19401e-05
0.00222581
2.19092e-07
4.43843e-05
0.00217966
6.65628e-05
0.00212192
8.8112e-05
0.00204568
0.000108747
0.00194887
0.000128213
0.00183178
0.000146279
0.00169519
0.000162737
0.00154043
0.000177399
0.00136907
0.000190099
0.00118292
0.000200693
0.00098392
0.000209064
0.000774224
0.000215117
0.000556031
0.000218788
0.000331738
0.000103276
0.000220041
2.17344e-05
0.00220385
2.22741e-07
4.39739e-05
0.00215742
6.59501e-05
0.00209995
8.73028e-05
0.00202433
0.00010775
0.00192842
0.000127038
0.00181249
0.00014494
0.00167729
0.000161249
0.00152412
0.000175777
0.00135454
0.000188362
0.00117033
0.000198861
0.000973422
0.000207156
0.00076593
0.000213155
0.000550033
0.000216795
0.000328101
0.000102038
0.000218038
2.15305e-05
0.00218209
2.26495e-07
4.35671e-05
0.00213538
6.53428e-05
0.00207817
8.65007e-05
0.00200317
0.000106762
0.00190816
0.000125874
0.00179338
0.000143613
0.00165955
0.000159774
0.00150796
0.00017417
0.00134014
0.000186641
0.00115786
0.000197045
0.000963016
0.000205266
0.000757705
0.000211212
0.000544083
0.00021482
0.000324487
0.000100796
0.000216053
2.13282e-05
0.00216053
2.3037e-07
4.31638e-05
0.00211355
6.47409e-05
0.00205659
8.57058e-05
0.00198221
0.000105782
0.00188809
0.00012472
0.00177444
0.000142298
0.00164197
0.000158312
0.00149194
0.000172578
0.00132588
0.000184935
0.0011455
0.000195245
0.000952707
0.000203392
0.000749559
0.000209286
0.000538192
0.000212863
0.000320912
9.95766e-05
0.000214087
2.11277e-05
0.00213917
2.34383e-07
4.2764e-05
0.00209191
6.41443e-05
0.00203521
8.4918e-05
0.00196143
0.000104811
0.00186819
0.000123577
0.00175567
0.000140995
0.00162455
0.000156863
0.00147608
0.000170999
0.00131174
0.000183245
0.00113325
0.000193462
0.000942488
0.000201536
0.000741482
0.000207377
0.000532347
0.000210923
0.00031736
9.83521e-05
0.000212138
2.09288e-05
0.002118
2.38553e-07
4.23678e-05
0.00207047
6.35529e-05
0.00201403
8.41372e-05
0.00194085
0.000103849
0.00184848
0.000122444
0.00173708
0.000139703
0.00160729
0.000155427
0.00146035
0.000169436
0.00129773
0.00018157
0.00112112
0.000191695
0.000932364
0.000199697
0.000733481
0.000205486
0.000526559
0.000209002
0.000313847
9.71503e-05
0.000210208
2.07316e-05
0.00209703
2.42891e-07
4.19749e-05
0.00204923
6.29668e-05
0.00199304
8.33634e-05
0.00192045
0.000102896
0.00182895
0.000121321
0.00171865
0.000138424
0.00159019
0.000154004
0.00144477
0.000167886
0.00128385
0.000179911
0.00110909
0.000189944
0.000922328
0.000197874
0.000725548
0.000203612
0.000520817
0.000207097
0.000310356
9.59436e-05
0.000208294
2.0536e-05
0.00207625
2.47413e-07
4.15855e-05
0.00202818
6.23859e-05
0.00197224
8.25964e-05
0.00190024
0.000101951
0.00180959
0.000120208
0.00170039
0.000137155
0.00157324
0.000152595
0.00142933
0.00016635
0.00127009
0.000178266
0.00109718
0.000188209
0.000912386
0.000196068
0.000717691
0.000201754
0.000515132
0.00020521
0.000306903
9.47593e-05
0.000206398
2.0342e-05
0.00205565
2.52127e-07
4.11994e-05
0.00200732
6.181e-05
0.00195162
8.18362e-05
0.00188021
0.000101014
0.00179042
0.000119106
0.0016823
0.000135898
0.00155645
0.000151197
0.00141403
0.000164828
0.00125646
0.000176637
0.00108537
0.00018649
0.000902531
0.000194278
0.000709899
0.000199914
0.000509492
0.000203339
0.000303472
9.35709e-05
0.000204518
2.01496e-05
0.00203524
2.5704e-07
4.08167e-05
0.00198665
6.12393e-05
0.0019312
8.10828e-05
0.00186037
0.000100086
0.00177141
0.000118013
0.00166437
0.000134653
0.00153981
0.000149813
0.00139887
0.00016332
0.00124295
0.000175022
0.00107367
0.000184786
0.000892767
0.000192504
0.000702182
0.000198091
0.000503907
0.000201486
0.000300079
9.24049e-05
0.000202656
1.99587e-05
0.00201502
2.62153e-07
4.04372e-05
0.00196617
6.06735e-05
0.00191097
8.03361e-05
0.00184071
9.91659e-05
0.00175258
0.00011693
0.00164661
0.000133418
0.00152332
0.000148441
0.00138385
0.000161826
0.00122957
0.000173422
0.00106207
0.000183098
0.000883088
0.000190747
0.00069453
0.000196284
0.000498366
0.00019965
0.000296707
9.12355e-05
0.00020081
1.97694e-05
0.00199499
2.67467e-07
4.00611e-05
0.00194588
6.01127e-05
0.00189091
7.9596e-05
0.00182122
9.82542e-05
0.00173392
0.000115856
0.00162901
0.000132195
0.00150698
0.000147081
0.00136896
0.000160345
0.0012163
0.000171836
0.00105058
0.000181425
0.0008735
0.000189006
0.00068695
0.000194493
0.00049288
0.00019783
0.000293373
9.00885e-05
0.00019898
1.95816e-05
0.00197513
2.72976e-07
3.96881e-05
0.00192577
5.95569e-05
0.00187105
7.88625e-05
0.00180192
9.73508e-05
0.00171544
0.000114793
0.00161156
0.000130983
0.00149079
0.000145734
0.00135421
0.000158878
0.00120316
0.000170265
0.00103919
0.000179768
0.000863994
0.000187281
0.000679435
0.000192719
0.000487437
0.000196026
0.00029006
8.89391e-05
0.000197166
1.93953e-05
0.00195546
2.78674e-07
3.93184e-05
0.00190585
5.90059e-05
0.00185136
7.81356e-05
0.00178279
9.64554e-05
0.00169712
0.000113738
0.00159428
0.000129782
0.00147475
0.000144399
0.00133959
0.000157424
0.00119013
0.000168708
0.0010279
0.000178126
0.000854577
0.000185571
0.00067199
0.000190961
0.000482047
0.000194239
0.000286784
8.78122e-05
0.000195369
1.92106e-05
0.00193596
2.84551e-07
3.89519e-05
0.00188611
5.84598e-05
0.00183185
7.74151e-05
0.00176383
9.5568e-05
0.00167896
0.000112694
0.00157715
0.000128591
0.00145885
0.000143076
0.0013251
0.000155983
0.00117723
0.000167165
0.00101672
0.000176498
0.000845243
0.000183877
0.000664608
0.000189219
0.000476701
0.000192468
0.00028353
8.6684e-05
0.000193587
1.90273e-05
0.00191665
2.90597e-07
3.85886e-05
0.00186655
5.79186e-05
0.00181252
7.6701e-05
0.00174505
9.46886e-05
0.00166098
0.000111659
0.00156018
0.000127412
0.00144309
0.000141765
0.00131075
0.000154555
0.00116444
0.000165637
0.00100564
0.000174886
0.000835994
0.000182198
0.000657296
0.000187493
0.000471407
0.000190713
0.000280311
8.55778e-05
0.000191822
1.88456e-05
0.0018975
2.96797e-07
3.82284e-05
0.00184716
5.73821e-05
0.00179337
7.59932e-05
0.00172644
9.3817e-05
0.00164315
0.000110633
0.00154337
0.000126243
0.00142748
0.000140466
0.00129653
0.000153141
0.00115176
0.000164122
0.000994655
0.000173288
0.000826827
0.000180535
0.000650046
0.000185783
0.000466155
0.000188975
0.000277114
8.44703e-05
0.000190073
1.86653e-05
0.00187853
3.03141e-07
3.78714e-05
0.00182796
5.68503e-05
0.00177439
7.52918e-05
0.001708
9.29533e-05
0.00162549
0.000109616
0.0015267
0.000125084
0.00141202
0.000139179
0.00128243
0.000151739
0.0011392
0.000162621
0.000983773
0.000171704
0.000817744
0.000178886
0.000642865
0.000184088
0.000460954
0.000187252
0.000273951
8.33837e-05
0.000188341
1.84865e-05
0.00185974
3.09613e-07
3.75174e-05
0.00180893
5.63233e-05
0.00175558
7.45967e-05
0.00168972
9.20974e-05
0.00160799
0.000108609
0.00151019
0.000123937
0.00139669
0.000137903
0.00126846
0.00015035
0.00112675
0.000161134
0.000972987
0.000170135
0.00080874
0.000177253
0.000635744
0.000182408
0.000455795
0.000185545
0.00027081
8.22954e-05
0.000186624
1.83091e-05
0.00184111
3.16202e-07
3.71665e-05
0.00179007
5.58009e-05
0.00173695
7.39078e-05
0.00167162
9.12492e-05
0.00159065
0.00010761
0.00149383
0.000122799
0.0013815
0.000136639
0.00125462
0.000148973
0.00111442
0.00015966
0.0009623
0.000168581
0.00079982
0.000175635
0.00062869
0.000180744
0.000450686
0.000183853
0.000267702
8.1226e-05
0.000184924
1.81332e-05
0.00182266
3.22892e-07
3.68187e-05
0.00177138
5.52831e-05
0.00171848
7.32251e-05
0.00165367
9.04086e-05
0.00157346
0.000106621
0.00147762
0.000121672
0.00136645
0.000135387
0.00124091
0.000147609
0.0011022
0.0001582
0.000951708
0.00016704
0.000790978
0.000174031
0.000621697
0.000179095
0.000445618
0.000182177
0.000264615
8.01544e-05
0.00018324
1.79588e-05
0.00180437
3.29673e-07
3.64739e-05
0.00175287
5.477e-05
0.00170019
7.25484e-05
0.0016359
8.95755e-05
0.00155644
0.000105641
0.00146155
0.000120555
0.00135153
0.000134146
0.00122732
0.000146257
0.00109009
0.000156753
0.000941212
0.000165514
0.000782217
0.000172442
0.000614769
0.000177461
0.0004406
0.000180516
0.000261561
7.91009e-05
0.000181571
1.77858e-05
0.00178625
3.36529e-07
3.61321e-05
0.00173452
5.42614e-05
0.00168206
7.18778e-05
0.00161828
8.875e-05
0.00153956
0.000104669
0.00144563
0.000119448
0.00133675
0.000132916
0.00121385
0.000144918
0.00107808
0.000155319
0.00093081
0.000164001
0.000773533
0.000170867
0.0006079
0.000175842
0.000435622
0.00017887
0.000258528
7.80459e-05
0.000179916
1.76142e-05
0.00176829
3.4345e-07
3.57932e-05
0.00171634
5.37573e-05
0.00166409
7.12133e-05
0.00160082
8.79319e-05
0.00152284
0.000103706
0.00142986
0.000118352
0.00132211
0.000131697
0.0012005
0.000143591
0.00106619
0.000153898
0.000920503
0.000162502
0.000764929
0.000169307
0.000601095
0.000174237
0.000430692
0.000177239
0.000255527
7.70089e-05
0.000178277
1.74441e-05
0.00175049
3.50422e-07
3.54574e-05
0.00169833
5.32577e-05
0.00164629
7.05546e-05
0.00158353
8.71212e-05
0.00150628
0.000102753
0.00141422
0.000117265
0.00130759
0.00013049
0.00118728
0.000142276
0.0010544
0.00015249
0.000910287
0.000161017
0.0007564
0.000167761
0.000594348
0.000172648
0.000425803
0.000175622
0.000252548
7.59716e-05
0.000176652
1.72753e-05
0.00173286
3.57435e-07
3.51245e-05
0.00168048
5.27625e-05
0.00162865
6.9902e-05
0.00156639
8.63178e-05
0.00148986
0.000101807
0.00139873
0.000116188
0.00129321
0.000129293
0.00117417
0.000140973
0.00104272
0.000151096
0.000900165
0.000159546
0.00074795
0.00016623
0.000587665
0.000171072
0.00042096
0.000174021
0.000249599
7.49524e-05
0.000175041
1.71081e-05
0.00171539
3.64473e-07
3.47945e-05
0.00166279
5.22718e-05
0.00161118
6.92551e-05
0.0015494
8.55217e-05
0.00147359
0.00010087
0.00138339
0.000115121
0.00127896
0.000128108
0.00116118
0.000139682
0.00103114
0.000149714
0.000890132
0.000158088
0.000739573
0.000164712
0.000581038
0.000169512
0.000416157
0.000172434
0.000246672
7.3934e-05
0.000173445
1.69422e-05
0.00169807
3.71529e-07
3.44675e-05
0.00164527
5.17854e-05
0.00159386
6.86142e-05
0.00153257
8.47329e-05
0.00145748
9.99423e-05
0.00136818
0.000114064
0.00126484
0.000126933
0.00114831
0.000138403
0.00101967
0.000148344
0.000880191
0.000156644
0.000731274
0.000163208
0.000574473
0.000167965
0.0004114
0.000170862
0.000243776
7.29329e-05
0.000171863
1.67778e-05
0.00168092
3.78588e-07
3.41433e-05
0.0016279
5.13035e-05
0.0015767
6.7979e-05
0.0015159
8.39512e-05
0.0014415
9.90226e-05
0.0013531
0.000113016
0.00125085
0.000125769
0.00113556
0.000137136
0.00100831
0.000146987
0.000870339
0.000155212
0.000723047
0.000161718
0.000567965
0.000166433
0.000406682
0.000169304
0.0002409
7.19326e-05
0.000170296
1.66148e-05
0.00166392
3.85643e-07
3.38221e-05
0.00161069
5.08259e-05
0.00155969
6.73496e-05
0.00149937
8.31766e-05
0.00142568
9.81113e-05
0.00133817
0.000111978
0.00123698
0.000124616
0.00112292
0.00013588
0.000997042
0.000145643
0.000860576
0.000153794
0.000714896
0.000160242
0.000561517
0.000164914
0.000402009
0.00016776
0.000238054
7.09485e-05
0.000168744
1.64532e-05
0.00164707
3.92682e-07
3.35037e-05
0.00159364
5.03526e-05
0.00154285
6.6726e-05
0.001483
8.24091e-05
0.00140999
9.72083e-05
0.00132337
0.000110949
0.00122324
0.000123473
0.0011104
0.000134636
0.000985878
0.000144311
0.000850899
0.000152389
0.000706816
0.000158779
0.000555124
0.00016341
0.000397375
0.00016623
0.00023523
6.99655e-05
0.000167206
1.6293e-05
0.00163038
3.99696e-07
3.31882e-05
0.00157675
4.98836e-05
0.00152615
6.6108e-05
0.00146677
8.16487e-05
0.00139445
9.63136e-05
0.0013087
0.00010993
0.00120962
0.000122341
0.00109799
0.000133403
0.000974816
0.000142991
0.000841311
0.000150997
0.00069881
0.000157329
0.000548791
0.000161919
0.000392785
0.000164715
0.000232434
6.89975e-05
0.000165682
1.61343e-05
0.00161384
4.06674e-07
3.28755e-05
0.00156001
4.94189e-05
0.00150961
6.54956e-05
0.0014507
8.08951e-05
0.00137905
9.5427e-05
0.00129417
0.000108921
0.00119613
0.000121219
0.00108569
0.000132181
0.000963853
0.000141683
0.000831808
0.000149617
0.000690875
0.000155893
0.000542512
0.000160442
0.000388234
0.000163213
0.000229659
6.80313e-05
0.000164172
1.59769e-05
0.00159745
4.13608e-07
3.25657e-05
0.00154342
4.89584e-05
0.00149321
6.48889e-05
0.00143477
8.01485e-05
0.00136379
9.45486e-05
0.00127977
0.00010792
0.00118276
0.000120107
0.0010735
0.000130971
0.000952989
0.000140387
0.000822391
0.00014825
0.000683011
0.00015447
0.000536291
0.000158979
0.000383725
0.000161725
0.000226912
6.70799e-05
0.000162675
1.5821e-05
0.00158121
4.20487e-07
3.22586e-05
0.00152698
4.8502e-05
0.00147697
6.42876e-05
0.00141898
7.94086e-05
0.00134867
9.36782e-05
0.0012655
0.000106929
0.00116951
0.000119006
0.00106142
0.000129772
0.000942222
0.000139103
0.000813058
0.000146896
0.000675218
0.00015306
0.000530125
0.000157529
0.000379254
0.00016025
0.000224187
6.6132e-05
0.000161191
1.56664e-05
0.00156511
4.27304e-07
3.19544e-05
0.00151069
4.80499e-05
0.00146087
6.36919e-05
0.00140334
7.86756e-05
0.00133369
9.28158e-05
0.00125136
0.000105946
0.00115637
0.000117915
0.00104945
0.000128584
0.000931553
0.000137831
0.00080381
0.000145554
0.000667495
0.000151663
0.000524014
0.000156092
0.000374825
0.000158789
0.000221489
6.5199e-05
0.00015972
1.55133e-05
0.00154916
4.34048e-07
3.16529e-05
0.00149455
4.76018e-05
0.00144493
6.31016e-05
0.00138784
7.79492e-05
0.00131884
9.19614e-05
0.00123735
0.000104973
0.00114336
0.000116834
0.00103759
0.000127406
0.000920979
0.000136571
0.000794644
0.000144224
0.00065984
0.000150279
0.000517957
0.000154668
0.000370433
0.000157341
0.000218812
6.42708e-05
0.000158263
1.53616e-05
0.00153336
4.40712e-07
3.13541e-05
0.00147856
4.71579e-05
0.00142912
6.25167e-05
0.00137248
7.72296e-05
0.00130413
9.11148e-05
0.00122346
0.000104009
0.00113047
0.000115762
0.00102584
0.00012624
0.000910501
0.000135322
0.000785561
0.000142907
0.000652255
0.000148908
0.000511955
0.000153258
0.000366083
0.000155906
0.000216162
6.33571e-05
0.000156818
1.52112e-05
0.0015177
4.4729e-07
3.10581e-05
0.00146271
4.6718e-05
0.00141346
6.19372e-05
0.00135726
7.65165e-05
0.00128955
9.0276e-05
0.0012097
0.000103054
0.00111769
0.000114701
0.00101419
0.000125084
0.000900117
0.000134085
0.000776559
0.000141602
0.000644737
0.000147549
0.000506006
0.00015186
0.000361769
0.000154485
0.000213534
6.24488e-05
0.000155387
1.50622e-05
0.00150219
4.53777e-07
3.07649e-05
0.00144701
4.62822e-05
0.00139794
6.13631e-05
0.00134218
7.58101e-05
0.0012751
8.94449e-05
0.00119607
0.000102107
0.00110503
0.000113649
0.00100265
0.000123939
0.000889826
0.000132859
0.000767638
0.000140309
0.000637287
0.000146203
0.000500111
0.000150476
0.000357495
0.000153077
0.000210931
6.15535e-05
0.00015397
1.49147e-05
0.00148681
4.60169e-07
3.04743e-05
0.00143145
4.58504e-05
0.00138257
6.07942e-05
0.00132723
7.51102e-05
0.00126078
8.86215e-05
0.00118255
0.000101169
0.00109248
0.000112607
0.000991208
0.000122805
0.000879628
0.000131645
0.000758797
0.000139027
0.000629903
0.000144869
0.000494268
0.000149104
0.000353259
0.000151682
0.000208349
6.0663e-05
0.000152566
1.47685e-05
0.00147158
4.66464e-07
3.01864e-05
0.00141603
4.54227e-05
0.00136733
6.02306e-05
0.00131243
7.44167e-05
0.0012466
8.78058e-05
0.00116916
0.00010024
0.00108004
0.000111575
0.000979872
0.000121681
0.000869522
0.000130442
0.000750035
0.000137758
0.000622586
0.000143547
0.000488477
0.000147744
0.00034906
0.000150299
0.000205792
5.97834e-05
0.000151176
1.46236e-05
0.00145648
4.72661e-07
2.99012e-05
0.00140075
4.49988e-05
0.00135223
5.96723e-05
0.00129775
7.37297e-05
0.00123254
8.69975e-05
0.0011559
9.93196e-05
0.00106772
0.000110553
0.000968639
0.000120567
0.000859506
0.000129249
0.000741352
0.0001365
0.000615334
0.000142238
0.000482738
0.000146397
0.000344899
0.00014893
0.000203256
5.89079e-05
0.0001498
1.44801e-05
0.00144152
4.78763e-07
2.96186e-05
0.00138561
4.45789e-05
0.00133727
5.9119e-05
0.00128321
7.3049e-05
0.00121861
8.61968e-05
0.00114275
9.84076e-05
0.00105551
0.000109539
0.000957506
0.000119464
0.000849581
0.000128068
0.000732747
0.000135254
0.000608147
0.00014094
0.000477051
0.000145062
0.000340775
0.000147573
0.000200744
5.80414e-05
0.000148436
1.4338e-05
0.0014267
4.84767e-07
2.93387e-05
0.00137061
4.41628e-05
0.00132245
5.85709e-05
0.0012688
7.23746e-05
0.00120481
8.54034e-05
0.00112972
9.75039e-05
0.00104341
0.000108535
0.000946475
0.000118371
0.000839745
0.000126898
0.00072422
0.000134019
0.000601024
0.000139654
0.000471414
0.00014374
0.000336688
0.000146228
0.000198252
5.71786e-05
0.000147086
1.41971e-05
0.00141201
4.90678e-07
2.90613e-05
0.00135575
4.37506e-05
0.00130776
5.80279e-05
0.00125453
7.17064e-05
0.00119113
8.46173e-05
0.00111681
9.66086e-05
0.00103142
0.000107541
0.000935542
0.000117288
0.000829998
0.000125738
0.000715769
0.000132796
0.000593966
0.000138381
0.000465828
0.00014243
0.000332638
0.000144896
0.000195784
5.63239e-05
0.000145748
1.40576e-05
0.00139746
4.96495e-07
2.87865e-05
0.00134102
4.33422e-05
0.0012932
5.74898e-05
0.00124038
7.10443e-05
0.00117757
8.38385e-05
0.00110401
9.57215e-05
0.00101953
0.000106555
0.000924708
0.000116214
0.000820338
0.000124589
0.000707393
0.000131584
0.00058697
0.000137119
0.000460292
0.000141131
0.000328623
0.000143576
0.000193336
5.54738e-05
0.000144421
1.39195e-05
0.00138304
5.0222e-07
2.85142e-05
0.00132642
4.29376e-05
0.00127878
5.69567e-05
0.00122636
7.03884e-05
0.00116414
8.30668e-05
0.00109133
9.48426e-05
0.00100776
0.000105579
0.000913972
0.000115151
0.000810765
0.000123451
0.000699093
0.000130383