1.275 	2.15223e-18 	-2.76991e-20 	-0.0344024 	-0.000440923 	-1.92899e-22
1.825 	2.15223e-18 	-1.39322e-20 	-0.00935457 	-0.00277237 	1.71216e-21
2.375 	2.15223e-18 	-2.66896e-23 	0.115616 	-0.00326141 	-7.14426e-22
