1.45 	0 	0 	-0.00813509 	-0.00258497 	1.65343e-20
2.35 	0 	0 	0.0621231 	-0.0066271 	9.88737e-21
