1.45 	0 	0 	-0.296091
2.35 	0 	0 	-0.130793
