/*--------------------------------*- C++ -*----------------------------------*\
  =========                 |
  \\      /  F ield         | OpenFOAM: The Open Source CFD Toolbox
   \\    /   O peration     | Website:  https://openfoam.org
    \\  /    A nd           | Version:  6.0
     \\/     M anipulation  |
\*---------------------------------------------------------------------------*/
FoamFile
{
    version     2.0;
    format      ascii;
    class       volScalarField;
    location    "2.9";
    object      p;
}
// * * * * * * * * * * * * * * * * * * * * * * * * * * * * * * * * * * * * * //

dimensions      [0 2 -2 0 0 0 0];

internalField   nonuniform List<scalar> 
24000
(
1.00701
1.00689
1.00632
1.00553
1.00452
1.00347
1.00247
1.00161
1.0009
1.0004
0.999974
0.999696
1.00702
1.00696
1.00649
1.00581
1.0049
1.00389
1.00288
1.00196
1.00114
1.00052
0.999934
0.999556
1.00702
1.00694
1.00645
1.00575
1.00482
1.00381
1.0028
1.00189
1.00108
1.00049
0.999901
0.999566
1.00702
1.00693
1.00642
1.00569
1.00475
1.00375
1.00275
1.00186
1.00107
1.00049
0.9999
0.999572
1.00703
1.00694
1.00643
1.00571
1.00478
1.00379
1.0028
1.00191
1.00112
1.00052
0.999895
0.999537
1.00704
1.00695
1.00645
1.00574
1.00481
1.00383
1.00284
1.00194
1.00114
1.00052
0.999862
0.999484
1.00705
1.00696
1.00647
1.00576
1.00483
1.00383
1.00284
1.00193
1.00112
1.0005
0.999823
0.999437
1.00705
1.00697
1.00649
1.00578
1.00485
1.00385
1.00285
1.00194
1.00112
1.00049
0.999805
0.999408
1.00706
1.00699
1.00651
1.00581
1.00489
1.00389
1.00289
1.00198
1.00115
1.00051
0.999806
0.999388
1.00707
1.007
1.00653
1.00585
1.00494
1.00395
1.00295
1.00203
1.0012
1.00054
0.999812
0.999367
1.00708
1.00701
1.00656
1.00589
1.00498
1.004
1.003
1.00208
1.00123
1.00056
0.99981
0.999341
1.00709
1.00702
1.00657
1.00592
1.00502
1.00404
1.00304
1.00211
1.00125
1.00057
0.999802
0.999313
1.00711
1.00703
1.00659
1.00594
1.00505
1.00407
1.00306
1.00213
1.00127
1.00057
0.99979
0.999286
1.00712
1.00704
1.0066
1.00596
1.00508
1.0041
1.00309
1.00215
1.00128
1.00057
0.99978
0.999262
1.00713
1.00705
1.00661
1.00598
1.0051
1.00413
1.00312
1.00218
1.00129
1.00058
0.999772
0.999239
1.00715
1.00707
1.00663
1.006
1.00513
1.00416
1.00315
1.0022
1.00131
1.00058
0.999765
0.999218
1.00716
1.00708
1.00664
1.00601
1.00515
1.00418
1.00318
1.00222
1.00132
1.00058
0.999758
0.999198
1.00718
1.0071
1.00666
1.00603
1.00517
1.00421
1.0032
1.00224
1.00134
1.00059
0.999752
0.999179
1.0072
1.00712
1.00669
1.00606
1.00519
1.00423
1.00323
1.00226
1.00135
1.00059
0.999747
0.999162
1.00722
1.00714
1.00671
1.00608
1.00522
1.00426
1.00325
1.00229
1.00137
1.0006
0.999743
0.999146
1.00724
1.00717
1.00674
1.00612
1.00525
1.00429
1.00328
1.00231
1.00138
1.0006
0.99974
0.999131
1.00726
1.0072
1.00678
1.00615
1.00529
1.00433
1.00332
1.00234
1.0014
1.00061
0.999738
0.999117
1.00729
1.00722
1.00681
1.00619
1.00533
1.00437
1.00335
1.00237
1.00142
1.00062
0.999736
0.999103
1.00731
1.00725
1.00685
1.00623
1.00537
1.00441
1.00339
1.0024
1.00144
1.00062
0.999734
0.99909
1.00733
1.00728
1.00688
1.00627
1.00541
1.00445
1.00343
1.00243
1.00146
1.00063
0.999732
0.999077
1.00736
1.00732
1.00692
1.00631
1.00545
1.00449
1.00346
1.00245
1.00148
1.00064
0.99973
0.999065
1.00738
1.00735
1.00695
1.00635
1.00549
1.00453
1.0035
1.00248
1.0015
1.00064
0.999729
0.999054
1.00741
1.00738
1.00699
1.00638
1.00554
1.00457
1.00353
1.00251
1.00152
1.00065
0.999728
0.999043
1.00744
1.00741
1.00702
1.00642
1.00558
1.00461
1.00357
1.00254
1.00154
1.00066
0.999728
0.999032
1.00747
1.00744
1.00706
1.00647
1.00562
1.00465
1.00361
1.00257
1.00156
1.00067
0.999727
0.999021
1.0075
1.00748
1.0071
1.00651
1.00566
1.00469
1.00365
1.0026
1.00158
1.00068
0.999726
0.99901
1.00753
1.00751
1.00714
1.00655
1.00571
1.00474
1.00369
1.00263
1.0016
1.00068
0.999725
0.998999
1.00756
1.00755
1.00717
1.00659
1.00575
1.00478
1.00372
1.00266
1.00162
1.00069
0.999722
0.998987
1.00759
1.00758
1.00721
1.00663
1.0058
1.00482
1.00376
1.00269
1.00164
1.0007
0.99972
0.998975
1.00762
1.00762
1.00725
1.00668
1.00584
1.00487
1.0038
1.00272
1.00166
1.0007
0.999716
0.998962
1.00766
1.00766
1.00729
1.00672
1.00588
1.00491
1.00383
1.00275
1.00167
1.0007
0.999712
0.99895
1.0077
1.00769
1.00733
1.00676
1.00592
1.00495
1.00387
1.00277
1.00169
1.00071
0.999707
0.998937
1.00773
1.00773
1.00737
1.0068
1.00596
1.00499
1.0039
1.0028
1.0017
1.00071
0.999703
0.998925
1.00777
1.00778
1.00741
1.00684
1.00601
1.00502
1.00394
1.00282
1.00172
1.00072
0.999698
0.998912
1.00781
1.00782
1.00745
1.00689
1.00605
1.00507
1.00397
1.00285
1.00174
1.00072
0.999693
0.998899
1.00786
1.00786
1.0075
1.00693
1.00609
1.00511
1.00401
1.00288
1.00175
1.00072
0.999689
0.998886
1.0079
1.00791
1.00755
1.00698
1.00614
1.00515
1.00404
1.0029
1.00177
1.00073
0.999684
0.998873
1.00794
1.00796
1.0076
1.00703
1.00619
1.0052
1.00408
1.00293
1.00179
1.00073
0.999679
0.99886
1.00799
1.00801
1.00765
1.00709
1.00624
1.00524
1.00412
1.00296
1.00181
1.00074
0.999675
0.998846
1.00803
1.00806
1.0077
1.00714
1.0063
1.00529
1.00416
1.00299
1.00182
1.00075
0.999669
0.998832
1.00808
1.00811
1.00775
1.0072
1.00635
1.00534
1.00421
1.00303
1.00184
1.00075
0.999664
0.998817
1.00813
1.00816
1.00781
1.00725
1.0064
1.00539
1.00425
1.00306
1.00186
1.00076
0.999658
0.998801
1.00818
1.00822
1.00787
1.00731
1.00646
1.00544
1.00429
1.00309
1.00188
1.00076
0.999653
0.998785
1.00823
1.00827
1.00792
1.00737
1.00652
1.00549
1.00433
1.00312
1.0019
1.00076
0.999646
0.998768
1.00828
1.00833
1.00798
1.00743
1.00657
1.00555
1.00438
1.00315
1.00192
1.00077
0.999639
0.998751
1.00834
1.00838
1.00804
1.00749
1.00663
1.0056
1.00442
1.00318
1.00194
1.00077
0.999631
0.998732
1.00839
1.00844
1.0081
1.00755
1.00669
1.00565
1.00446
1.00321
1.00195
1.00077
0.999622
0.998712
1.00844
1.0085
1.00815
1.00761
1.00674
1.0057
1.00451
1.00324
1.00197
1.00078
0.999612
0.998691
1.0085
1.00856
1.00821
1.00767
1.0068
1.00575
1.00455
1.00328
1.00199
1.00078
0.999602
0.99867
1.00856
1.00862
1.00827
1.00773
1.00686
1.00581
1.00459
1.00331
1.002
1.00078
0.99959
0.998647
1.00861
1.00868
1.00834
1.00779
1.00692
1.00586
1.00464
1.00334
1.00202
1.00078
0.999578
0.998624
1.00867
1.00874
1.0084
1.00785
1.00698
1.00591
1.00468
1.00337
1.00203
1.00078
0.999564
0.998599
1.00873
1.0088
1.00846
1.00792
1.00704
1.00596
1.00472
1.0034
1.00205
1.00078
0.99955
0.998575
1.00879
1.00887
1.00853
1.00798
1.0071
1.00602
1.00476
1.00343
1.00206
1.00078
0.999535
0.998549
1.00886
1.00893
1.00859
1.00805
1.00716
1.00607
1.00481
1.00346
1.00208
1.00078
0.99952
0.998523
1.00892
1.009
1.00866
1.00811
1.00722
1.00613
1.00485
1.00349
1.00209
1.00077
0.999504
0.998495
1.00898
1.00907
1.00873
1.00818
1.00728
1.00618
1.0049
1.00352
1.00211
1.00077
0.999488
0.998468
1.00905
1.00914
1.0088
1.00825
1.00735
1.00624
1.00494
1.00355
1.00212
1.00077
0.999471
0.998439
1.00912
1.00922
1.00888
1.00833
1.00742
1.0063
1.00499
1.00358
1.00214
1.00077
0.999454
0.99841
1.00919
1.00929
1.00895
1.0084
1.00748
1.00636
1.00504
1.00361
1.00215
1.00076
0.999435
0.998379
1.00926
1.00937
1.00903
1.00848
1.00755
1.00642
1.00509
1.00365
1.00217
1.00076
0.999417
0.998347
1.00933
1.00945
1.00911
1.00855
1.00763
1.00648
1.00513
1.00368
1.00218
1.00076
0.999397
0.998314
1.0094
1.00953
1.00918
1.00863
1.0077
1.00655
1.00518
1.00371
1.00219
1.00075
0.999377
0.998279
1.00947
1.00961
1.00926
1.00871
1.00777
1.00661
1.00523
1.00374
1.00221
1.00075
0.999355
0.998244
1.00955
1.00969
1.00935
1.00879
1.00784
1.00667
1.00528
1.00378
1.00222
1.00074
0.999333
0.998207
1.00963
1.00977
1.00943
1.00887
1.00792
1.00674
1.00533
1.00381
1.00223
1.00073
0.999309
0.998168
1.0097
1.00985
1.00951
1.00895
1.00799
1.0068
1.00538
1.00384
1.00224
1.00072
0.999284
0.998129
1.00978
1.00994
1.0096
1.00903
1.00807
1.00687
1.00543
1.00387
1.00225
1.00071
0.999258
0.998088
1.00987
1.01003
1.00968
1.00912
1.00814
1.00693
1.00548
1.0039
1.00226
1.0007
0.999231
0.998047
1.00995
1.01011
1.00977
1.0092
1.00822
1.007
1.00553
1.00393
1.00227
1.00069
0.999202
0.998004
1.01003
1.0102
1.00986
1.00929
1.0083
1.00706
1.00558
1.00396
1.00228
1.00068
0.999173
0.997961
1.01012
1.01029
1.00995
1.00937
1.00838
1.00713
1.00563
1.00399
1.00229
1.00067
0.999143
0.997917
1.01021
1.01039
1.01004
1.00946
1.00846
1.0072
1.00568
1.00402
1.0023
1.00065
0.999112
0.997872
1.0103
1.01048
1.01013
1.00955
1.00854
1.00727
1.00573
1.00405
1.0023
1.00064
0.99908
0.997826
1.01039
1.01058
1.01023
1.00964
1.00862
1.00734
1.00578
1.00408
1.00231
1.00063
0.999048
0.997779
1.01048
1.01068
1.01032
1.00974
1.0087
1.0074
1.00583
1.00411
1.00232
1.00061
0.999015
0.997731
1.01058
1.01078
1.01042
1.00983
1.00879
1.00748
1.00588
1.00414
1.00232
1.0006
0.998981
0.997683
1.01068
1.01088
1.01052
1.00993
1.00887
1.00755
1.00593
1.00416
1.00233
1.00058
0.998946
0.997633
1.01078
1.01098
1.01062
1.01003
1.00896
1.00762
1.00598
1.00419
1.00233
1.00056
0.998911
0.997583
1.01088
1.01109
1.01073
1.01013
1.00905
1.00769
1.00604
1.00422
1.00234
1.00055
0.998875
0.997531
1.01098
1.0112
1.01083
1.01023
1.00914
1.00777
1.00609
1.00425
1.00234
1.00053
0.998839
0.997479
1.01109
1.01131
1.01094
1.01033
1.00923
1.00784
1.00614
1.00428
1.00235
1.00051
0.998801
0.997425
1.01119
1.01142
1.01105
1.01044
1.00932
1.00792
1.0062
1.00431
1.00235
1.00049
0.998763
0.997371
1.0113
1.01153
1.01116
1.01055
1.00942
1.008
1.00625
1.00434
1.00236
1.00047
0.998723
0.997315
1.01141
1.01165
1.01128
1.01065
1.00951
1.00808
1.00631
1.00437
1.00236
1.00045
0.998683
0.997258
1.01152
1.01176
1.01139
1.01076
1.00961
1.00816
1.00636
1.0044
1.00236
1.00043
0.998641
0.997199
1.01164
1.01188
1.01151
1.01088
1.00971
1.00824
1.00642
1.00443
1.00237
1.00041
0.998599
0.99714
1.01175
1.01201
1.01163
1.01099
1.00981
1.00832
1.00647
1.00447
1.00237
1.00039
0.998555
0.997079
1.01187
1.01213
1.01175
1.01111
1.00991
1.0084
1.00653
1.0045
1.00237
1.00036
0.99851
0.997017
1.01199
1.01225
1.01187
1.01122
1.01001
1.00848
1.00659
1.00453
1.00237
1.00034
0.998464
0.996952
1.01212
1.01238
1.012
1.01134
1.01011
1.00857
1.00665
1.00456
1.00237
1.00032
0.998417
0.996888
1.01224
1.01251
1.01213
1.01146
1.01022
1.00866
1.00671
1.00459
1.00237
1.00029
0.998368
0.99682
1.01237
1.01264
1.01225
1.01159
1.01033
1.00874
1.00676
1.00462
1.00237
1.00026
0.998319
0.996752
1.0125
1.01278
1.01239
1.01171
1.01044
1.00883
1.00682
1.00465
1.00237
1.00024
0.998267
0.996682
1.01263
1.01292
1.01252
1.01184
1.01055
1.00892
1.00689
1.00468
1.00237
1.00021
0.998215
0.996611
1.01276
1.01306
1.01266
1.01198
1.01066
1.00902
1.00695
1.00472
1.00237
1.00018
0.998161
0.996537
1.0129
1.0132
1.0128
1.01211
1.01078
1.00911
1.00701
1.00475
1.00237
1.00015
0.998106
0.996462
1.01304
1.01335
1.01295
1.01225
1.0109
1.00921
1.00707
1.00478
1.00237
1.00012
0.998049
0.996385
1.01318
1.01349
1.01309
1.01239
1.01102
1.0093
1.00714
1.00481
1.00237
1.00009
0.997991
0.996306
1.01332
1.01365
1.01324
1.01253
1.01114
1.0094
1.00721
1.00485
1.00236
1.00005
0.99793
0.996224
1.01347
1.0138
1.0134
1.01267
1.01127
1.00951
1.00727
1.00488
1.00236
1.00002
0.997869
0.996141
1.01362
1.01396
1.01355
1.01282
1.01139
1.00961
1.00734
1.00491
1.00236
0.999981
0.997804
0.996055
1.01378
1.01412
1.01371
1.01297
1.01153
1.00971
1.00741
1.00495
1.00235
0.999944
0.997739
0.995968
1.01393
1.01429
1.01387
1.01313
1.01166
1.00982
1.00748
1.00498
1.00235
0.999905
0.997671
0.995877
1.01409
1.01445
1.01404
1.01329
1.0118
1.00993
1.00755
1.00502
1.00234
0.999865
0.997601
0.995784
1.01425
1.01462
1.01421
1.01345
1.01193
1.01004
1.00762
1.00505
1.00233
0.999822
0.997529
0.995688
1.01442
1.0148
1.01438
1.01361
1.01208
1.01015
1.0077
1.00508
1.00233
0.999779
0.997455
0.99559
1.01459
1.01498
1.01456
1.01378
1.01222
1.01027
1.00777
1.00512
1.00232
0.999733
0.997378
0.995489
1.01476
1.01516
1.01474
1.01395
1.01237
1.01038
1.00785
1.00515
1.00231
0.999687
0.997299
0.995385
1.01494
1.01534
1.01492
1.01412
1.01251
1.0105
1.00792
1.00518
1.0023
0.999637
0.997217
0.995278
1.01512
1.01553
1.01511
1.0143
1.01267
1.01062
1.008
1.00522
1.00229
0.999586
0.997133
0.995168
1.0153
1.01572
1.0153
1.01448
1.01282
1.01074
1.00808
1.00525
1.00227
0.999533
0.997046
0.995054
1.01549
1.01592
1.01549
1.01466
1.01298
1.01086
1.00816
1.00528
1.00226
0.999478
0.996956
0.994938
1.01568
1.01612
1.01569
1.01485
1.01314
1.01099
1.00824
1.00532
1.00225
0.999421
0.996863
0.994817
1.01587
1.01633
1.01589
1.01504
1.0133
1.01111
1.00832
1.00535
1.00223
0.999361
0.996768
0.994694
1.01607
1.01653
1.0161
1.01523
1.01347
1.01124
1.0084
1.00538
1.00221
0.999299
0.996668
0.994566
1.01627
1.01675
1.01631
1.01543
1.01364
1.01138
1.00848
1.00541
1.00219
0.999235
0.996567
0.994435
1.01648
1.01696
1.01652
1.01563
1.01381
1.01151
1.00857
1.00545
1.00217
0.999168
0.996461
0.9943
1.01669
1.01719
1.01674
1.01584
1.01399
1.01165
1.00865
1.00548
1.00215
0.999099
0.996353
0.994162
1.0169
1.01741
1.01697
1.01605
1.01417
1.01178
1.00874
1.00551
1.00213
0.999027
0.99624
0.994018
1.01712
1.01764
1.01719
1.01626
1.01435
1.01193
1.00883
1.00554
1.00211
0.998952
0.996124
0.993871
1.01735
1.01788
1.01743
1.01648
1.01454
1.01207
1.00891
1.00557
1.00208
0.998874
0.996004
0.993719
1.01757
1.01812
1.01766
1.0167
1.01473
1.01221
1.009
1.0056
1.00205
0.998793
0.995881
0.993563
1.01781
1.01836
1.0179
1.01693
1.01493
1.01236
1.00909
1.00563
1.00202
0.998709
0.995752
0.993402
1.01804
1.01861
1.01815
1.01716
1.01512
1.01251
1.00919
1.00566
1.00199
0.998622
0.995621
0.993237
1.01828
1.01887
1.0184
1.0174
1.01533
1.01267
1.00928
1.00569
1.00195
0.998531
0.995484
0.993066
1.01853
1.01913
1.01866
1.01764
1.01553
1.01282
1.00937
1.00572
1.00192
0.998437
0.995343
0.99289
1.01878
1.01939
1.01892
1.01788
1.01574
1.01298
1.00946
1.00574
1.00188
0.998338
0.995197
0.992709
1.01904
1.01966
1.01919
1.01813
1.01595
1.01314
1.00956
1.00577
1.00184
0.998237
0.995048
0.992523
1.0193
1.01994
1.01946
1.01839
1.01617
1.0133
1.00966
1.00579
1.00179
0.99813
0.994892
0.992331
1.01957
1.02022
1.01974
1.01865
1.01639
1.01347
1.00975
1.00582
1.00174
0.998021
0.994732
0.992134
1.01984
1.02051
1.02003
1.01892
1.01662
1.01363
1.00985
1.00584
1.00169
0.997906
0.994566
0.99193
1.02012
1.02081
1.02032
1.01919
1.01685
1.0138
1.00995
1.00586
1.00164
0.997788
0.994395
0.991721
1.0204
1.02111
1.02061
1.01947
1.01708
1.01398
1.01005
1.00588
1.00158
0.997664
0.994218
0.991505
1.02069
1.02141
1.02092
1.01975
1.01732
1.01415
1.01014
1.0059
1.00153
0.997537
0.994036
0.991284
1.02099
1.02173
1.02123
1.02004
1.01757
1.01433
1.01024
1.00591
1.00146
0.997404
0.993848
0.991055
1.02129
1.02205
1.02154
1.02033
1.01782
1.01451
1.01035
1.00593
1.0014
0.997267
0.993654
0.99082
1.0216
1.02237
1.02187
1.02063
1.01807
1.0147
1.01045
1.00594
1.00133
0.997123
0.993453
0.990578
1.02191
1.02271
1.02219
1.02094
1.01833
1.01489
1.01055
1.00595
1.00125
0.996976
0.993246
0.990329
1.02223
1.02305
1.02253
1.02125
1.01859
1.01508
1.01065
1.00596
1.00117
0.996821
0.993032
0.990072
1.02256
1.0234
1.02288
1.02157
1.01886
1.01527
1.01075
1.00597
1.00109
0.996662
0.992812
0.989809
1.0229
1.02375
1.02323
1.0219
1.01913
1.01546
1.01085
1.00597
1.00101
0.996496
0.992583
0.989537
1.02324
1.02412
1.02359
1.02224
1.01941
1.01566
1.01096
1.00598
1.00092
0.996324
0.992349
0.989258
1.02359
1.02449
1.02396
1.02258
1.0197
1.01587
1.01106
1.00598
1.00082
0.996145
0.992105
0.988969
1.02395
1.02487
1.02433
1.02293
1.01999
1.01607
1.01116
1.00597
1.00072
0.99596
0.991855
0.988674
1.02432
1.02526
1.02472
1.02328
1.02028
1.01628
1.01127
1.00597
1.00061
0.995768
0.991596
0.988368
1.02469
1.02566
1.02511
1.02365
1.02059
1.01649
1.01137
1.00596
1.0005
0.995569
0.991329
0.988055
1.02508
1.02606
1.02551
1.02402
1.02089
1.0167
1.01147
1.00595
1.00038
0.995361
0.991053
0.987731
1.02547
1.02648
1.02592
1.0244
1.02121
1.01692
1.01157
1.00593
1.00026
0.995147
0.990769
0.987399
1.02587
1.0269
1.02635
1.02479
1.02153
1.01714
1.01167
1.00591
1.00013
0.994923
0.990474
0.987057
1.02628
1.02734
1.02678
1.02519
1.02186
1.01736
1.01178
1.00589
0.999992
0.994692
0.990171
0.986705
1.0267
1.02778
1.02722
1.02559
1.02219
1.01759
1.01188
1.00586
0.999848
0.994452
0.989858
0.986342
1.02713
1.02824
1.02767
1.02601
1.02253
1.01782
1.01197
1.00583
0.999697
0.994203
0.989535
0.98597
1.02757
1.02871
1.02813
1.02644
1.02288
1.01805
1.01207
1.00579
0.999538
0.993944
0.989201
0.985586
1.02801
1.02918
1.0286
1.02687
1.02323
1.01828
1.01217
1.00574
0.999372
0.993677
0.988857
0.985192
1.02847
1.02967
1.02909
1.02732
1.02359
1.01852
1.01226
1.0057
0.999197
0.993398
0.988502
0.984785
1.02895
1.03017
1.02958
1.02777
1.02396
1.01876
1.01236
1.00564
0.999014
0.99311
0.988135
0.984368
1.02943
1.03068
1.03009
1.02824
1.02433
1.019
1.01245
1.00558
0.998821
0.99281
0.987756
0.983937
1.02992
1.03121
1.03061
1.02872
1.02471
1.01925
1.01253
1.00552
0.998619
0.9925
0.987366
0.983495
1.03043
1.03175
1.03115
1.0292
1.0251
1.0195
1.01262
1.00544
0.998407
0.992177
0.986963
0.983039
1.03094
1.0323
1.03169
1.0297
1.0255
1.01975
1.0127
1.00536
0.998185
0.991844
0.986547
0.982571
1.03147
1.03286
1.03225
1.03022
1.02591
1.02
1.01278
1.00527
0.997952
0.991496
0.986117
0.982089
1.03202
1.03344
1.03283
1.03074
1.02632
1.02026
1.01286
1.00517
0.997708
0.991137
0.985674
0.981593
1.03257
1.03404
1.03342
1.03128
1.02674
1.02051
1.01293
1.00507
0.997451
0.990763
0.985216
0.981083
1.03314
1.03465
1.03402
1.03183
1.02717
1.02077
1.013
1.00495
0.997182
0.990376
0.984745
0.980558
1.03373
1.03527
1.03464
1.03239
1.02761
1.02103
1.01306
1.00483
0.9969
0.989973
0.984257
0.980018
1.03433
1.03591
1.03528
1.03297
1.02806
1.02129
1.01312
1.00469
0.996605
0.989556
0.983755
0.979463
1.03494
1.03657
1.03593
1.03356
1.02851
1.02155
1.01317
1.00454
0.996294
0.989123
0.983235
0.978891
1.03557
1.03724
1.0366
1.03416
1.02898
1.02182
1.01321
1.00438
0.995969
0.988674
0.9827
0.978303
1.03622
1.03794
1.03729
1.03478
1.02945
1.02208
1.01325
1.00421
0.995628
0.988207
0.982147
0.977698
1.03688
1.03865
1.038
1.03542
1.02993
1.02235
1.01328
1.00403
0.995272
0.987724
0.981577
0.977076
1.03756
1.03938
1.03873
1.03607
1.03042
1.02261
1.0133
1.00383
0.994897
0.987221
0.980988
0.976436
1.03826
1.04013
1.03947
1.03674
1.03092
1.02287
1.01331
1.00361
0.994505
0.9867
0.980381
0.975779
1.03898
1.0409
1.04024
1.03743
1.03143
1.02313
1.01331
1.00338
0.994093
0.986159
0.979753
0.975101
1.03971
1.0417
1.04103
1.03813
1.03194
1.02339
1.0133
1.00313
0.993662
0.985599
0.979107
0.974406
1.04047
1.04251
1.04184
1.03885
1.03247
1.02365
1.01328
1.00286
0.99321
0.985016
0.978439
0.97369
1.04125
1.04335
1.04268
1.03959
1.033
1.0239
1.01324
1.00258
0.992737
0.984412
0.977751
0.972954
1.04205
1.04422
1.04354
1.04035
1.03354
1.02415
1.01319
1.00227
0.992241
0.983785
0.977039
0.972197
1.04287
1.04511
1.04442
1.04113
1.03409
1.02439
1.01312
1.00195
0.991721
0.983134
0.976307
0.971419
1.04371
1.04602
1.04533
1.04192
1.03465
1.02463
1.01304
1.0016
0.991176
0.982459
0.97555
0.970618
1.04458
1.04697
1.04627
1.04274
1.03522
1.02486
1.01294
1.00122
0.990606
0.981758
0.974769
0.969796
1.04548
1.04794
1.04724
1.04358
1.03579
1.02508
1.01282
1.00082
0.990008
0.981031
0.973964
0.96895
1.0464
1.04894
1.04824
1.04445
1.03637
1.0253
1.01268
1.00039
0.989381
0.980277
0.973134
0.968081
1.04735
1.04997
1.04926
1.04533
1.03695
1.0255
1.01251
0.999938
0.988725
0.979494
0.972276
0.967187
1.04832
1.05104
1.05032
1.04624
1.03754
1.02568
1.01232
0.999452
0.988038
0.978682
0.971393
0.966269
1.04933
1.05213
1.05142
1.04717
1.03814
1.02586
1.0121
0.998932
0.987317
0.977839
0.970481
0.965325
1.05037
1.05327
1.05254
1.04812
1.03874
1.02602
1.01186
0.998378
0.986563
0.976965
0.969541
0.964355
1.05144
1.05444
1.05371
1.0491
1.03934
1.02616
1.01158
0.997787
0.985773
0.976058
0.968571
0.963358
1.05254
1.05565
1.05491
1.0501
1.03994
1.02627
1.01126
0.997159
0.984946
0.975118
0.967572
0.962334
1.05368
1.0569
1.05615
1.05113
1.04054
1.02637
1.01091
0.996489
0.98408
0.974142
0.966541
0.961282
1.05486
1.05819
1.05744
1.05218
1.04115
1.02644
1.01052
0.995776
0.983174
0.973131
0.965479
0.960201
1.05607
1.05953
1.05876
1.05326
1.04174
1.02647
1.01009
0.995017
0.982225
0.972082
0.964383
0.959091
1.05733
1.06092
1.06013
1.05436
1.04233
1.02648
1.00961
0.994211
0.981232
0.970995
0.963255
0.957951
1.05862
1.06235
1.06155
1.05549
1.04292
1.02645
1.00908
0.993353
0.980193
0.969867
0.962092
0.956781
1.05996
1.06384
1.06302
1.05664
1.04349
1.02637
1.00849
0.992442
0.979107
0.9687
0.960894
0.955579
1.06135
1.06538
1.06454
1.05782
1.04404
1.02626
1.00785
0.991474
0.97797
0.967489
0.959659
0.954345
1.06279
1.06699
1.06611
1.05902
1.04458
1.02609
1.00715
0.990447
0.976782
0.966235
0.958387
0.953079
1.06427
1.06865
1.06774
1.06024
1.04509
1.02586
1.00637
0.989356
0.97554
0.964935
0.957078
0.951779
1.06581
1.07037
1.06943
1.06148
1.04558
1.02557
1.00553
0.9882
0.974243
0.963591
0.95573
0.950446
1.06741
1.07217
1.07117
1.06274
1.04603
1.02522
1.00461
0.986973
0.972887
0.962198
0.954342
0.949078
1.06907
1.07404
1.07298
1.06402
1.04644
1.02479
1.00361
0.985675
0.971472
0.960757
0.952914
0.947675
1.07079
1.07598
1.07486
1.06532
1.04681
1.02427
1.00252
0.9843
0.969994
0.959265
0.951445
0.946236
1.07258
1.07801
1.0768
1.06662
1.04712
1.02367
1.00134
0.982845
0.968454
0.957724
0.949934
0.944761
1.07443
1.08013
1.07881
1.06793
1.04736
1.02296
1.00005
0.981307
0.966846
0.956129
0.948381
0.943248
1.07636
1.08234
1.08089
1.06924
1.04754
1.02215
0.998662
0.979682
0.965172
0.954482
0.946784
0.941699
1.07837
1.08464
1.08305
1.07054
1.04762
1.02121
0.997159
0.977966
0.963427
0.952779
0.945143
0.94011
1.08047
1.08706
1.08528
1.07183
1.04761
1.02015
0.995538
0.976157
0.961611
0.951022
0.943458
0.938483
1.08265
1.08958
1.08758
1.0731
1.04749
1.01894
0.993789
0.97425
0.959722
0.949209
0.941727
0.936816
1.08493
1.09222
1.08996
1.07433
1.04724
1.01758
0.991907
0.972243
0.957759
0.947339
0.939951
0.93511
1.08731
1.095
1.09242
1.07552
1.04685
1.01605
0.989884
0.970131
0.955719
0.94541
0.938129
0.933363
1.0898
1.09791
1.09494
1.07665
1.04629
1.01433
0.987715
0.967914
0.953602
0.943424
0.936261
0.931578
1.09241
1.10096
1.09754
1.07769
1.04555
1.01242
0.98539
0.965587
0.951407
0.941379
0.934346
0.929751
1.09514
1.10417
1.1002
1.07864
1.0446
1.0103
0.982906
0.963149
0.949133
0.939276
0.932384
0.927885
1.09801
1.10754
1.10292
1.07946
1.04341
1.00795
0.980254
0.960597
0.946779
0.937113
0.930375
0.925978
1.10103
1.1111
1.10569
1.08014
1.04197
1.00536
0.977432
0.957932
0.944346
0.934891
0.928319
0.924032
1.1042
1.11483
1.10849
1.08063
1.04024
1.00251
0.974431
0.95515
0.941832
0.93261
0.926216
0.922044
1.10756
1.11877
1.11132
1.0809
1.03818
0.999391
0.971251
0.952254
0.93924
0.930272
0.924067
0.920016
1.1111
1.12291
1.11414
1.08091
1.03577
0.995981
0.967887
0.949243
0.936569
0.927875
0.921871
0.917948
1.11484
1.12727
1.11693
1.08062
1.03297
0.992271
0.96434
0.946119
0.933822
0.925423
0.919629
0.91584
1.11882
1.13185
1.11966
1.07997
1.02974
0.988247
0.960607
0.942882
0.930998
0.922914
0.917343
0.913691
1.12305
1.13667
1.1223
1.0789
1.02604
0.9839
0.956693
0.939539
0.928102
0.920352
0.915012
0.911504
1.12755
1.14172
1.12478
1.07735
1.02184
0.979223
0.952601
0.93609
0.925134
0.917737
0.912638
0.909276
1.13236
1.14701
1.12704
1.07523
1.01709
0.974212
0.948339
0.932543
0.922099
0.915072
0.910221
0.907011
1.13751
1.15252
1.12903
1.07248
1.01177
0.968867
0.943913
0.928901
0.918998
0.912359
0.907764
0.904707
1.14304
1.15825
1.13064
1.06901
1.00583
0.963196
0.939337
0.925173
0.915838
0.9096
0.905267
0.902366
1.14899
1.16417
1.13178
1.06472
0.999258
0.957208
0.934624
0.921364
0.912621
0.9068
0.902732
0.899989
1.15541
1.17024
1.13232
1.05952
0.992021
0.950925
0.929791
0.917485
0.909353
0.90396
0.900161
0.897577
1.16235
1.17641
1.13213
1.05331
0.984112
0.94437
0.924856
0.913543
0.906038
0.901085
0.897557
0.89513
1.16986
1.18261
1.13104
1.04598
0.975533
0.937581
0.919842
0.909548
0.902684
0.898179
0.894922
0.892651
1.17802
1.18873
1.12887
1.03744
0.9663
0.930599
0.91477
0.905508
0.899294
0.895246
0.892258
0.890142
1.18689
1.19465
1.12541
1.0276
0.956452
0.923477
0.909664
0.901434
0.895878
0.892293
0.889569
0.887604
1.19654
1.20018
1.12043
1.01639
0.946049
0.916274
0.904548
0.897334
0.892439
0.889323
0.886858
0.88504
1.20704
1.20511
1.11368
1.00376
0.935178
0.909055
0.899444
0.893219
0.888989
0.886344
0.884131
0.882452
1.21846
1.20916
1.10489
0.989697
0.923955
0.901891
0.894372
0.889096
0.885533
0.883364
0.881393
0.879844
1.23084
1.21197
1.09377
0.974237
0.912526
0.894852
0.889352
0.884974
0.882082
0.880391
0.878651
0.877218
1.24422
1.21311
1.08006
0.957479
0.901064
0.888004
0.884393
0.88086
0.878645
0.877437
0.87592
0.874576
1.25858
1.21204
1.06347
0.939607
0.889768
0.881409
0.879508
0.876763
0.875233
0.874508
0.8732
0.871908
1.27386
1.2081
1.04378
0.920898
0.878843
0.875104
0.874692
0.872693
0.871874
0.87165
0.870541
0.869246
1.28989
1.20049
1.02087
0.901756
0.86852
0.869136
0.869945
0.868625
0.868511
0.868763
0.867822
0.866481
1.30635
1.18826
0.994718
0.882646
0.858923
0.863489
0.865345
0.864767
0.865464
0.866235
0.865383
0.863835
1.32271
1.17027
0.965699
0.86436
0.85035
0.858
0.860409
0.860417
0.861862
0.863229
0.862505
0.860825
1.33802
1.14513
0.934227
0.847055
0.843201
0.853939
0.85707
0.857792
0.859888
0.861531
0.860483
0.858281
1.35111
1.11204
0.90334
0.830845
0.834281
0.846717
0.85071
0.852892
0.856564
0.859094
0.857957
0.855252
1.35839
1.06672
0.877424
0.824696
0.834098
0.845775
0.848579
0.850785
0.855115
0.858029
0.856644
0.853513
1.36125
0.995257
0.827983
0.800898
0.823463
0.840401
0.845568
0.849308
0.854653
0.857986
0.856656
0.85354
0.995417
0.996009
0.99704
0.997597
0.997631
0.997471
0.997417
0.997563
0.997815
0.998027
0.998113
0.998085
0.99607
0.996383
0.997144
0.99759
0.997629
0.997507
0.99747
0.997601
0.997824
0.998015
0.998097
0.998075
0.996669
0.996669
0.997138
0.997495
0.997586
0.997541
0.997532
0.997637
0.997816
0.997977
0.998054
0.998043
0.997019
0.996831
0.997121
0.997448
0.997605
0.997624
0.997623
0.997683
0.997808
0.997937
0.99801
0.998011
0.997223
0.996967
0.997169
0.997478
0.997663
0.997702
0.997683
0.997699
0.997779
0.997886
0.997959
0.997972
0.997393
0.99713
0.997275
0.997543
0.997711
0.99774
0.997704
0.997695
0.997751
0.997845
0.99792
0.997943
0.997572
0.99731
0.997395
0.997599
0.997731
0.997748
0.99771
0.997695
0.99774
0.997823
0.997893
0.99792
0.997744
0.997473
0.997495
0.997636
0.997736
0.997751
0.99772
0.997706
0.99774
0.997808
0.99787
0.997896
0.997884
0.997601
0.997572
0.997666
0.997744
0.997759
0.997735
0.997719
0.997741
0.997795
0.997847
0.997873
0.997986
0.997698
0.997637
0.997697
0.997758
0.99777
0.997748
0.99773
0.997742
0.997785
0.99783
0.997855
0.998061
0.997779
0.997697
0.997731
0.997776
0.997782
0.99776
0.997739
0.997745
0.997778
0.997816
0.997838
0.998123
0.99785
0.997754
0.997766
0.997794
0.997794
0.997771
0.997749
0.99775
0.997775
0.997805
0.997823
0.998176
0.997913
0.997806
0.997799
0.997812
0.997806
0.997782
0.99776
0.997756
0.997773
0.997795
0.997808
0.998224
0.997968
0.997852
0.99783
0.997831
0.99782
0.997795
0.99777
0.997761
0.997771
0.997786
0.997796
0.998263
0.998015
0.997893
0.997859
0.99785
0.997834
0.997806
0.997779
0.997766
0.997769
0.997779
0.997787
0.998296
0.998056
0.99793
0.997887
0.99787
0.997848
0.997817
0.997787
0.99777
0.997769
0.997775
0.99778
0.998324
0.998092
0.997964
0.997913
0.997888
0.997861
0.997827
0.997794
0.997774
0.997769
0.997772
0.997775
0.998349
0.998124
0.997994
0.997936
0.997904
0.997872
0.997836
0.997802
0.99778
0.997772
0.997771
0.99777
0.998371
0.998152
0.99802
0.997956
0.997918
0.997883
0.997844
0.997809
0.997785
0.997774
0.997769
0.997765
0.998389
0.998176
0.998042
0.997974
0.997932
0.997893
0.997853
0.997817
0.99779
0.997776
0.997767
0.99776
0.998404
0.998195
0.998061
0.997989
0.997944
0.997903
0.997862
0.997823
0.997794
0.997776
0.997764
0.997753
0.998416
0.998211
0.998077
0.998003
0.997955
0.997913
0.997869
0.997829
0.997797
0.997776
0.997759
0.997745
0.998424
0.998224
0.998091
0.998015
0.997965
0.997921
0.997875
0.997832
0.997797
0.997773
0.997753
0.997737
0.998432
0.998236
0.998104
0.998027
0.997974
0.997927
0.997879
0.997834
0.997796
0.997769
0.997747
0.997728
0.998438
0.998246
0.998115
0.998036
0.997981
0.997931
0.99788
0.997833
0.997793
0.997763
0.997739
0.997719
0.998443
0.998255
0.998124
0.998043
0.997986
0.997933
0.99788
0.99783
0.997788
0.997757
0.997731
0.99771
0.998447
0.998262
0.998131
0.998048
0.997988
0.997933
0.997877
0.997826
0.997782
0.99775
0.997723
0.997702
0.99845
0.998268
0.998137
0.998051
0.997988
0.99793
0.997873
0.99782
0.997776
0.997743
0.997715
0.997693
0.998452
0.998272
0.99814
0.998051
0.997986
0.997926
0.997868
0.997814
0.997769
0.997735
0.997707
0.997685
0.998452
0.998274
0.99814
0.99805
0.997982
0.997921
0.997862
0.997807
0.997762
0.997727
0.997699
0.997676
0.998451
0.998274
0.998139
0.998046
0.997977
0.997915
0.997855
0.9978
0.997754
0.997719
0.99769
0.997667
0.998448
0.998272
0.998137
0.998042
0.997971
0.997908
0.997849
0.997793
0.997747
0.997711
0.997681
0.997658
0.998444
0.998269
0.998132
0.998036
0.997964
0.997901
0.997842
0.997786
0.997739
0.997702
0.997671
0.997648
0.998439
0.998265
0.998127
0.99803
0.997957
0.997894
0.997835
0.997779
0.99773
0.997693
0.997661
0.997637
0.998432
0.998259
0.998121
0.998022
0.997949
0.997887
0.997827
0.99777
0.997721
0.997683
0.997651
0.997626
0.998426
0.998253
0.998114
0.998015
0.997941
0.997879
0.997819
0.997762
0.997712
0.997673
0.99764
0.997615
0.998418
0.998246
0.998106
0.998006
0.997932
0.99787
0.997811
0.997753
0.997703
0.997662
0.997629
0.997603
0.998411
0.998238
0.998098
0.997996
0.997923
0.997861
0.997802
0.997744
0.997693
0.997652
0.997617
0.997591
0.998402
0.998229
0.998087
0.997986
0.997913
0.997851
0.997792
0.997734
0.997682
0.99764
0.997605
0.997577
0.998393
0.998219
0.998076
0.997974
0.997902
0.997841
0.997782
0.997724
0.997671
0.997628
0.997592
0.997564
0.998382
0.998207
0.998064
0.997961
0.997889
0.997829
0.99777
0.997712
0.997659
0.997615
0.997578
0.99755
0.99837
0.998195
0.99805
0.997948
0.997876
0.997817
0.997758
0.9977
0.997646
0.997602
0.997565
0.997535
0.998357
0.99818
0.998034
0.997932
0.997861
0.997803
0.997745
0.997686
0.997633
0.997588
0.99755
0.99752
0.998343
0.998165
0.998018
0.997916
0.997846
0.997788
0.99773
0.997672
0.997618
0.997573
0.997535
0.997505