1.275 	2.15223e-18 	-2.76991e-20 	-0.0344806 	-0.000439393 	-1.9027e-22
1.825 	2.15223e-18 	-1.39322e-20 	-0.00949881 	-0.00275531 	1.67777e-21
2.375 	2.15223e-18 	-2.66896e-23 	0.115202 	-0.00323039 	-6.99762e-22
