1.45 	0 	0 	-0.303547
2.35 	0 	0 	-0.0943913
