1.45 	0 	0 	-0.00806458 	-0.00257252 	3.78889e-21
2.35 	0 	0 	0.0614356 	-0.00663545 	2.29481e-21
