1.45 	0 	0 	-0.00698623 	-0.00264229 	3.88582e-21
2.35 	0 	0 	0.0645409 	-0.00673327 	2.41567e-21
