1.45 	0 	0 	-0.291868
2.35 	0 	0 	-0.127195
