1.45 	0 	0 	-0.293516
2.35 	0 	0 	-0.128637
