1.45 	0 	0 	-0.00803331 	-0.00257408 	3.79203e-21
2.35 	0 	0 	0.0614981 	-0.00663777 	2.29929e-21
