1.45 	0 	0 	-0.00762699 	-0.00259516 	3.83616e-21
2.35 	0 	0 	0.0624847 	-0.00666892 	2.35977e-21
