1.275 	2.15223e-18 	-2.76991e-20 	-0.0339519 	-0.000441669 	-1.99098e-22
1.825 	2.15223e-18 	-1.39322e-20 	-0.00853608 	-0.00278137 	1.7893e-21
2.375 	2.15223e-18 	-2.66896e-23 	0.117934 	-0.00329983 	-7.46828e-22
