1.275 	2.15223e-18 	-2.76991e-20 	-0.323534
1.825 	2.15223e-18 	-1.39322e-20 	-0.135717
2.375 	2.15223e-18 	-2.66896e-23 	-0.0715144
