1.45 	0 	0 	-0.00610853 	-0.0027056 	3.9201e-21
2.35 	0 	0 	0.0672898 	-0.00680349 	2.44198e-21
