/*--------------------------------*- C++ -*----------------------------------*\
  =========                 |
  \\      /  F ield         | OpenFOAM: The Open Source CFD Toolbox
   \\    /   O peration     | Website:  https://openfoam.org
    \\  /    A nd           | Version:  6.0
     \\/     M anipulation  |
\*---------------------------------------------------------------------------*/
FoamFile
{
    version     2.0;
    format      ascii;
    class       volVectorField;
    location    "54";
    object      U;
}
// * * * * * * * * * * * * * * * * * * * * * * * * * * * * * * * * * * * * * //

dimensions      [0 1 -1 0 0 0 0];

internalField   nonuniform List<vector> 
2000
(
(-0.00199123 0.00173843 5.729e-20)
(-0.00762157 0.00330272 6.80429e-20)
(-0.0153301 0.00366206 -6.4868e-20)
(-0.0223324 0.00333777 -1.32365e-19)
(-0.0276804 0.00264015 -9.24638e-20)
(-0.0312214 0.00177232 1.23181e-19)
(-0.0330527 0.000879688 7.17495e-20)
(-0.0334436 6.89535e-05 -2.90249e-20)
(-0.0328262 -0.000580753 -7.2457e-20)
(-0.0314952 -0.00100555 5.28308e-20)
(-0.0024897 0.00512138 -1.42006e-19)
(-0.00837068 0.00968561 1.96036e-19)
(-0.0157252 0.0106976 1.95485e-20)
(-0.022025 0.00969752 -1.13552e-19)
(-0.0264593 0.0075983 5.43357e-19)
(-0.0289517 0.00499682 -2.39138e-19)
(-0.0296475 0.00232143 -2.58716e-19)
(-0.0288423 -0.000109592 3.12045e-19)
(-0.0269846 -0.00205451 -3.07749e-19)
(-0.0244467 -0.00332086 1.55255e-19)
(-0.00343576 0.00822493 2.35847e-20)
(-0.0097281 0.0154096 8.38824e-21)
(-0.0163015 0.0168862 5.87517e-19)
(-0.0211436 0.0151403 2.06095e-19)
(-0.0237176 0.0116334 4.08754e-20)
(-0.0240981 0.00731698 3.38021e-19)
(-0.0225237 0.00287702 -6.42027e-19)
(-0.0193384 -0.00116372 1.39245e-20)
(-0.0150201 -0.00438845 -3.79649e-19)
(-0.0101029 -0.00647357 4.18229e-19)
(-0.00472405 0.010868 -4.43652e-20)
(-0.0114034 0.0200604 2.55241e-19)
(-0.0166178 0.021719 -7.43654e-19)
(-0.0191362 0.0191493 -9.61242e-20)
(-0.018832 0.0142676 -5.47355e-19)
(-0.0160035 0.00831172 5.66875e-19)
(-0.0110227 0.00217638 -6.01277e-19)
(-0.0042964 -0.00342936 4.22268e-19)
(0.00366291 -0.00789575 1.77522e-19)
(0.0120633 -0.0107636 -2.00597e-19)
(-0.00618707 0.0128748 -4.93787e-19)
(-0.01294 0.0232574 4.45593e-21)
(-0.0159823 0.0247665 9.16074e-19)
(-0.0151343 0.0213428 2.74636e-19)
(-0.0108146 0.0152252 -8.73243e-19)
(-0.00361579 0.00783557 5.43001e-19)
(0.00591825 0.000196583 6.15482e-19)
(0.0173138 -0.00683825 -5.48749e-19)
(0.0300355 -0.0124516 3.91254e-19)
(0.0429234 -0.0160459 9.60772e-20)
(-0.00758378 0.0140743 6.74974e-20)
(-0.0136957 0.0246649 1.25188e-20)
(-0.0134292 0.0257007 -1.1712e-18)
(-0.0079207 0.0215116 -6.55221e-19)
(0.00173563 0.0144923 7.81623e-19)
(0.0145787 0.00611572 -9.15314e-19)
(0.0298495 -0.00258936 1.04885e-18)
(0.0470087 -0.0107138 -9.05983e-20)
(0.0655394 -0.0172481 -2.95076e-19)
(0.083799 -0.0214694 -8.57621e-19)
(-0.00858783 0.0143041 -1.46871e-19)
(-0.0128318 0.0240057 -2.68248e-19)
(-0.00771335 0.0243088 -3.29557e-19)
(0.00407932 0.019627 7.03034e-19)
(0.0206596 0.0123271 1.30413e-18)
(0.0406177 0.00378493 -2.69544e-19)
(0.0629141 -0.00513182 -6.56023e-19)
(0.0869291 -0.0136316 2.00088e-19)
(0.112249 -0.0206139 -1.26007e-18)
(0.136673 -0.025282 1.38407e-18)
(-0.00878375 0.0134242 8.98273e-19)
(-0.00932806 0.021086 -4.90321e-19)
(0.00264609 0.0205024 9.57253e-19)
(0.0227356 0.0158176 -1.56396e-18)
(0.0481734 0.00920577 -7.47283e-19)
(0.0770141 0.00182644 -1.03508e-18)
(0.107829 -0.00579379 3.00721e-19)
(0.139842 -0.0132481 -8.37266e-19)
(0.172876 -0.0195725 1.82328e-18)
(0.204273 -0.0240791 5.10392e-19)
(-0.00768225 0.0113475 6.61295e-20)
(-0.00204467 0.0158391 7.98693e-19)
(0.0192554 0.0143226 1.58718e-18)
(0.0500646 0.0103002 4.8501e-19)
(0.0867019 0.00565942 1.43555e-18)
(0.126594 0.00136019 7.86852e-20)
(0.167733 -0.00240702 -7.09316e-22)
(0.20892 -0.00569218 5.78755e-19)
(0.250232 -0.00783842 4.68107e-19)
(0.289114 -0.00926205 -1.51927e-18)
(-0.00477047 0.00808579 -5.32101e-19)
(0.0101469 0.00838455 -8.91191e-19)
(0.0436436 0.00593791 -1.29538e-18)
(0.0879961 0.00320916 3.0611e-20)
(0.13875 0.00175694 -6.60372e-19)
(0.192804 0.00254295 1.04082e-18)
(0.247586 0.00588948 -2.8655e-18)
(0.30116 0.0120153 1.28647e-18)
(0.352881 0.0215153 4.83551e-19)
(0.400028 0.030248 1.51714e-18)
(0.000388679 0.00380853 2.66174e-19)
(0.028118 -0.000874408 -1.01894e-18)
(0.0768094 -0.00427283 9.0982e-19)
(0.137563 -0.0054614 -3.52979e-19)
(0.205553 -0.0034424 3.83944e-19)
(0.27782 0.00270785 8.35871e-19)
(0.352528 0.0137258 -1.12225e-18)
(0.429273 0.0305531 1.45809e-19)
(0.509035 0.0524533 -5.37769e-19)
(0.59417 0.0694537 1.0911e-18)
(0.0080602 -0.00110794 3.81365e-19)
(0.0522601 -0.0110931 -9.23808e-19)
(0.118756 -0.0153294 1.25869e-18)
(0.197748 -0.0150187 -7.83869e-19)
(0.284048 -0.0102794 -2.87558e-19)
(0.374603 -0.000971884 1.70248e-19)
(0.467605 0.0128152 8.80215e-20)
(0.562487 0.0307702 1.19395e-18)
(0.658902 0.050177 3.43712e-19)
(0.754558 0.0623402 1.46941e-18)
(0.018352 -0.00610194 -3.404e-19)
(0.0826126 -0.0209185 1.19443e-18)
(0.169007 -0.0252637 -9.96642e-19)
(0.267055 -0.022831 -1.16885e-18)
(0.371088 -0.0151007 1.63536e-18)
(0.477614 -0.00286572 -1.24343e-18)
(0.584238 0.0129432 3.28447e-19)
(0.689404 0.0312139 -1.94709e-18)
(0.791332 0.0492641 1.4585e-18)
(0.88604 0.0617494 7.28726e-20)
(0.0312702 -0.0105458 -4.43623e-19)
(0.118976 -0.0287937 -4.28432e-19)
(0.226869 -0.0317843 -9.12313e-19)
(0.344063 -0.0258913 1.10584e-18)
(0.464446 -0.0140393 -5.58545e-20)
(0.58406 0.00207622 7.14922e-19)
(0.699967 0.0208542 1.30422e-18)
(0.809928 0.0407966 -4.00791e-19)
(0.911576 0.0598091 -1.41761e-18)
(1.0009 0.0748783 2.8145e-18)
(0.0467452 -0.0138316 -2.29306e-19)
(0.160911 -0.0332168 -2.73516e-19)
(0.291339 -0.03278 4.92214e-19)
(0.427113 -0.0216646 -9.14894e-19)
(0.561883 -0.00426161 1.56305e-19)
(0.69144 0.0168804 1.39095e-19)
(0.812662 0.0396129 6.10003e-20)
(0.923199 0.0622302 -9.85865e-21)
(1.02086 0.0832293 -1.49427e-19)
(1.10226 0.100992 -2.37939e-18)
(0.0646184 -0.0153976 9.30818e-19)
(0.207682 -0.0328632 -6.49607e-19)
(0.360982 -0.0265372 8.30771e-21)
(0.514053 -0.00833839 -9.89346e-19)
(0.660653 0.0159068 -3.5396e-19)
(0.796701 0.0428757 3.30957e-19)
(0.91936 0.0699942 2.57017e-19)
(1.02673 0.0954716 -9.15867e-19)
(1.11735 0.118343 7.48592e-19)
(1.18885 0.137793 -9.81509e-19)
(0.084611 -0.0147325 4.01746e-19)
(0.258228 -0.0266432 -3.57045e-19)
(0.433899 -0.0118354 1.48301e-18)
(0.602223 0.0151009 1.51204e-19)
(0.757549 0.0470193 3.47495e-19)
(0.896411 0.0799695 1.5488e-18)
(1.01678 0.111131 -2.36813e-19)
(1.11772 0.138798 2.15771e-19)
(1.19888 0.162564 8.93476e-20)
(1.25919 0.182097 -1.0997e-19)
(0.106293 -0.0113861 2.80677e-19)
(0.311141 -0.0137428 6.74812e-19)
(0.50778 0.0120121 -7.22886e-19)
(0.688607 0.0488895 -2.44723e-19)
(0.849158 0.0886661 -3.02309e-19)
(0.987142 0.127018 4.68413e-19)
(1.10185 0.161148 -2.43645e-19)
(1.19374 0.189675 6.55499e-19)
(1.26384 0.212846 2.20582e-19)
(1.31249 0.230666 -3.59618e-19)
(0.129071 -0.00499455 -3.02464e-19)
(0.364701 0.0063285 2.68842e-19)
(0.580015 0.0451371 -5.73658e-19)
(0.770038 0.092543 2.47448e-19)
(0.932158 0.139656 -2.56759e-19)
(1.06584 0.182158 -3.20445e-19)
(1.17213 0.217628 -2.57329e-19)
(1.25319 0.245301 2.87582e-19)
(1.3115 0.266204 -5.42203e-19)
(1.34885 0.280637 3.27671e-19)
(0.152191 0.00468204 -1.07814e-19)
(0.416945 0.0336823 -2.10897e-19)
(0.647853 0.0871018 1.00428e-19)
(0.843431 0.144924 6.19181e-21)
(1.0036 0.198186 8.33293e-20)
(1.13007 0.243068 1.1432e-19)
(1.22601 0.277938 1.05949e-19)
(1.29535 0.302934 -1.40494e-19)
(1.34201 0.31998 1.19606e-19)
(1.36911 0.329676 -1.87178e-19)
(0.174775 0.017719 -6.24092e-20)
(0.465772 0.0680015 -2.34115e-20)
(0.708578 0.1369 9.31615e-20)
(0.906006 0.204326 -4.28883e-20)
(1.0611 0.262007 1.14309e-19)
(1.17821 0.307192 -1.47593e-19)
(1.26274 0.33945 3.42081e-20)
(1.32037 0.360077 3.67047e-20)
(1.35627 0.371952 -1.53845e-20)
(1.37465 0.375986 5.82068e-20)
(0.195856 0.0339917 -6.73278e-20)
(0.50907 0.10851 -3.04677e-19)
(0.759689 0.192986 -2.11023e-20)
(0.955467 0.268575 6.27147e-21)
(1.10299 0.328579 -3.96271e-19)
(1.20943 0.371907 5.23875e-20)
(1.28239 0.399693 -4.46002e-20)
(1.3291 0.414557 -1.07576e-19)
(1.35567 0.42033 2.24276e-19)
(1.36715 0.418232 -4.08923e-19)
(0.214444 0.0531504 -3.2517e-20)
(0.54485 0.15397 6.17058e-19)
(0.799063 0.253335 9.94246e-20)
(0.990133 0.335148 -5.43238e-19)
(1.12837 0.395217 -4.40515e-20)
(1.22372 0.434653 -5.20572e-19)
(1.28574 0.456425 3.81588e-19)
(1.32289 0.464539 -1.38446e-19)
(1.34191 0.463703 2.45596e-19)
(1.34841 0.45542 -1.79441e-19)
(0.229586 0.0746121 -2.05051e-19)
(0.571393 0.202718 1.95838e-19)
(0.825092 0.315541 -1.41352e-19)
(1.00902 0.401307 1.06544e-18)
(1.13708 0.459223 5.25828e-19)
(1.22172 0.493028 -1.21914e-19)
(1.27409 0.507671 4.10716e-19)
(1.30345 0.508499 -2.70253e-19)
(1.31688 0.500956 -7.52875e-20)
(1.32028 0.486799 4.93972e-19)
(0.240436 0.0975684 -3.54916e-19)
(0.587355 0.252731 4.51649e-19)
(0.836773 0.376931 -8.88613e-19)
(1.01185 0.464233 1.24792e-19)
(1.12966 0.51799 2.78864e-19)
(1.20469 0.544843 -4.27651e-19)
(1.24914 0.551725 -4.97913e-19)
(1.27272 0.545172 2.18557e-19)
(1.28252 0.531184 -2.63167e-19)
(1.28453 0.511755 3.15945e-19)
(0.246311 0.121013 -8.96747e-20)
(0.591872 0.301725 -4.59567e-19)
(0.833754 0.434708 2.54252e-19)
(0.99903 0.521159 4.26365e-19)
(1.10725 0.569097 -2.56402e-19)
(1.17428 0.588156 -1.91026e-19)
(1.21287 0.587119 -1.04302e-19)
(1.23273 0.573485 -5.15633e-20)
(1.24077 0.553598 1.07854e-20)
(1.24291 0.52972 1.07515e-19)
(0.246759 0.143785 6.58188e-20)
(0.584617 0.347278 -3.8562e-19)
(0.81634 0.486098 6.43169e-19)
(0.971581 0.569494 -3.8107e-19)
(1.07145 0.610386 1.06478e-19)
(1.13247 0.621291 -1.51055e-19)
(1.16741 0.612602 1.62617e-19)
(1.18559 0.592496 3.11487e-20)
(1.19356 0.567431 -7.80115e-20)
(1.19711 0.540022 1.51518e-19)
(0.241593 0.164636 -1.73027e-19)
(0.565832 0.386974 3.38036e-19)
(0.785448 0.528508 -1.52032e-20)
(0.931025 0.60695 -7.32237e-20)
(1.02419 0.640034 -2.01309e-19)
(1.08145 0.642882 2.48056e-20)
(1.11501 0.627184 6.15309e-20)
(1.1335 0.601458 -1.51521e-19)
(1.14302 0.571983 1.76968e-19)
(1.1492 0.541879 1.50327e-19)
(0.230935 0.18231 3.843e-20)
(0.536325 0.418562 -8.09283e-20)
(0.742531 0.559669 2.42455e-20)
(0.879239 0.631621 1.24471e-20)
(0.967553 0.656554 7.79725e-20)
(1.02334 0.651785 -1.44066e-19)
(1.05788 0.629967 -3.01351e-19)
(1.07891 0.599657 -1.2293e-19)
(1.09213 0.566623 -1.57125e-19)
(1.10255 0.534701 1.33128e-19)
(0.21523 0.195653 1.10785e-19)
(0.49743 0.44013 -1.71721e-19)
(0.689467 0.577805 1.65746e-19)
(0.818263 0.64211 -3.14832e-19)
(0.903421 0.658818 7.63847e-20)
(0.959695 0.646834 5.16201e-19)
(0.997278 0.619363 -1.58294e-19)
(1.02316 0.584703 1.88171e-19)
(1.04271 0.548005 2.75478e-19)
(1.05903 0.515028 1.00199e-18)
(0.195249 0.203726 6.8046e-19)
(0.450967 0.450296 -4.63017e-19)
(0.628513 0.581864 1.12682e-18)
(0.750268 0.637905 -1.92982e-19)
(0.833389 0.646759 9.66771e-19)
(0.891057 0.628052 6.06544e-19)
(0.93231 0.594737 -1.42498e-18)
(0.96357 0.553881 2.16351e-18)
(0.989456 0.507899 -4.57213e-19)
(1.00632 0.461007 8.99676e-19)
(0.17205 0.205874 -3.75359e-19)
(0.399204 0.448254 -2.67606e-19)
(0.562391 0.571529 2.58804e-19)
(0.677928 0.619482 -6.41011e-19)
(0.759661 0.622009 -2.00216e-18)
(0.818699 0.598991 -8.05198e-19)
(0.862692 0.563188 -7.25747e-19)
(0.897113 0.521741 3.51221e-19)
(0.925117 0.478159 2.92725e-18)
(0.942605 0.437392 -6.08906e-19)
(0.146894 0.201721 1.97537e-19)
(0.344727 0.433649 -7.99428e-19)
(0.494241 0.546774 1.75833e-19)
(0.604666 0.587133 -1.28047e-18)
(0.686058 0.585016 2.80348e-18)
(0.747292 0.559929 -3.24925e-19)
(0.794584 0.52408 1.52764e-18)
(0.832423 0.484257 -2.18834e-18)
(0.863342 0.443962 6.86537e-19)
(0.884648 0.407477 1.06207e-19)
(0.121118 0.191156 1.45619e-19)
(0.290163 0.40655 8.81727e-19)
(0.427119 0.507894 -2.58995e-18)
(0.533587 0.541229 1.26029e-18)
(0.615632 0.535983 -4.16063e-21)
(0.679887 0.510616 -4.25286e-19)
(0.731204 0.47643 5.35226e-19)
(0.773236 0.439624 -5.31933e-19)
(0.808165 0.403352 -1.82851e-18)
(0.834247 0.370865 -5.01005e-19)
(0.0960486 0.174334 4.76479e-19)
(0.238033 0.367474 5.34621e-19)
(0.363854 0.455615 2.20821e-18)
(0.467419 0.482513 -1.22844e-18)
(0.550831 0.4755 2.53213e-18)
(0.618565 0.451352 -5.45425e-19)
(0.674213 0.420139 -5.76533e-19)
(0.720699 0.387299 6.81305e-19)
(0.759931 0.355515 4.44208e-19)
(0.790869 0.327125 1.61059e-18)
(0.0729448 0.15167 -4.83559e-19)
(0.190664 0.317377 1.57842e-19)
(0.306988 0.391112 4.26869e-20)
(0.408535 0.412151 1.25235e-18)
(0.493702 0.404589 -3.12607e-18)
(0.56499 0.382954 5.31052e-19)
(0.624864 0.355821 1.17263e-18)
(0.675617 0.327751 -1.41765e-18)
(0.718933 0.300911 4.99429e-19)
(0.754394 0.276898 -2.31788e-18)
(0.0529469 0.123826 1.03049e-19)
(0.150114 0.257626 5.5592e-19)
(0.258722 0.315974 2.16216e-19)
(0.358945 0.331692 2.93022e-19)
(0.445941 0.324635 5.61473e-19)
(0.520504 0.306609 1.67169e-18)
(0.584154 0.284488 -2.04677e-18)
(0.638655 0.261882 -1.1528e-18)
(0.685522 0.240441 1.91039e-19)
(0.724903 0.221195 1.50298e-18)
(0.0370318 0.0916909 -6.2315e-19)
(0.118111 0.189953 -7.41312e-20)
(0.220874 0.23216 -6.20979e-19)
(0.320288 0.243022 8.84368e-20)
(0.408909 0.237333 -5.31593e-19)
(0.486184 0.2238 -6.06909e-19)
(0.55289 0.207442 -9.04449e-19)
(0.610384 0.190868 2.43724e-18)
(0.660066 0.175233 4.20485e-19)
(0.702561 0.161149 -6.40955e-19)
(0.0259729 0.0563424 3.35846e-19)
(0.0960029 0.116392 4.43911e-19)
(0.194847 0.141927 1.74894e-19)
(0.293812 0.148292 -9.43902e-19)
(0.38364 0.144614 -4.39429e-19)
(0.462844 0.136227 -9.46238e-20)
(0.531693 0.126185 1.84897e-19)
(0.591264 0.116066 1.48464e-19)
(0.642892 0.106552 -1.14804e-18)
(0.687548 0.0979588 6.58766e-19)
(0.0203063 0.0190053 -1.74895e-19)
(0.084714 0.0392057 -1.98972e-19)
(0.181592 0.0477522 1.58584e-19)
(0.280362 0.0498479 1.40795e-19)
(0.370831 0.0485769 1.44295e-19)
(0.451036 0.0457362 2.20675e-19)
(0.520987 0.042351 -1.16023e-20)
(0.581621 0.0389485 -2.89466e-19)
(0.634242 0.0357544 2.74961e-19)
(0.680003 0.0328654 -4.13692e-19)
(0.0203063 -0.0190051 -1.76045e-19)
(0.084714 -0.0392055 -1.89616e-19)
(0.181592 -0.0477519 1.74745e-19)
(0.280362 -0.0498475 3.42134e-19)
(0.370831 -0.0485766 2.27968e-19)
(0.451036 -0.0457359 -3.00378e-19)
(0.520987 -0.0423506 -1.63222e-19)
(0.581621 -0.0389482 7.11805e-20)
(0.634242 -0.0357541 1.60032e-19)
(0.680003 -0.0328651 -9.5297e-20)
(0.0259729 -0.0563423 4.20121e-19)
(0.0960029 -0.116392 -5.33929e-19)
(0.194847 -0.141927 -4.44095e-20)
(0.293812 -0.148292 2.95833e-19)
(0.38364 -0.144613 -1.33752e-18)
(0.462844 -0.136226 5.71507e-19)
(0.531693 -0.126185 5.89958e-19)
(0.591264 -0.116066 -6.96473e-19)
(0.642892 -0.106552 6.65298e-19)
(0.687548 -0.0979585 -2.92005e-19)
(0.0370318 -0.0916908 -7.26358e-20)
(0.118111 -0.189953 -9.26703e-21)
(0.220874 -0.23216 -1.44218e-18)
(0.320288 -0.243022 -4.58786e-19)
(0.408909 -0.237333 -4.8372e-20)
(0.486184 -0.2238 -7.54745e-19)
(0.55289 -0.207442 1.40629e-18)
(0.610384 -0.190868 -4.94209e-20)
(0.660066 -0.175233 8.03021e-19)
(0.702561 -0.161149 -7.06083e-19)
(0.0529468 -0.123826 1.22673e-19)
(0.150114 -0.257625 -5.67946e-19)
(0.258722 -0.315974 1.74757e-18)
(0.358945 -0.331692 2.47299e-19)
(0.445941 -0.324635 1.21577e-18)
(0.520504 -0.306609 -1.18859e-18)
(0.584154 -0.284488 1.24778e-18)
(0.638655 -0.261882 -8.99612e-19)
(0.685522 -0.240441 -3.95065e-19)
(0.724903 -0.221195 3.35614e-19)
(0.0729448 -0.15167 1.09541e-18)
(0.190664 -0.317376 2.80494e-21)
(0.306988 -0.391111 -1.84178e-18)
(0.408535 -0.41215 -5.34358e-19)
(0.493702 -0.404588 1.77429e-18)
(0.56499 -0.382953 -1.03984e-18)
(0.624864 -0.35582 -1.2038e-18)
(0.675617 -0.327751 1.08311e-18)
(0.718933 -0.30091 -7.37381e-19)
(0.754394 -0.276898 -1.58974e-19)
(0.0960486 -0.174334 -1.63517e-19)
(0.238033 -0.367474 -7.75586e-21)
(0.363854 -0.455615 1.99878e-18)
(0.467419 -0.482513 1.14608e-18)
(0.550831 -0.4755 -1.3515e-18)
(0.618565 -0.451352 1.63638e-18)
(0.674213 -0.420139 -1.77566e-18)
(0.720699 -0.387299 1.76701e-19)
(0.759931 -0.355514 5.28879e-19)
(0.790869 -0.327124 1.22377e-18)
(0.121118 -0.191156 1.87439e-19)
(0.290163 -0.40655 3.01846e-19)
(0.427119 -0.507894 3.28339e-19)
(0.533587 -0.541228 -1.05558e-18)
(0.615632 -0.535982 -1.8803e-18)
(0.679887 -0.510616 3.95965e-19)
(0.731204 -0.476429 1.14585e-18)
(0.773235 -0.439624 -3.27995e-19)
(0.808165 -0.403351 1.9747e-18)
(0.834247 -0.370865 -1.92479e-18)
(0.146894 -0.201721 -1.06106e-18)
(0.344727 -0.433649 4.07727e-19)
(0.494241 -0.546774 -1.10093e-18)
(0.604666 -0.587133 1.77981e-18)
(0.686058 -0.585016 8.8998e-19)
(0.747292 -0.559929 1.25655e-18)
(0.794583 -0.52408 -2.90794e-19)
(0.832423 -0.484256 1.14573e-18)
(0.863341 -0.443962 -2.42575e-18)
(0.884648 -0.407477 -6.32409e-19)
(0.17205 -0.205874 6.24628e-20)
(0.399204 -0.448254 -7.1284e-19)
(0.562391 -0.571529 -1.14141e-18)
(0.677928 -0.619481 -4.83605e-19)
(0.759661 -0.622009 -1.36659e-18)
(0.818699 -0.598991 -1.38992e-19)
(0.862692 -0.563188 1.18832e-19)
(0.897113 -0.521741 -5.34018e-19)
(0.925116 -0.478159 -5.96798e-19)
(0.942605 -0.437392 1.5739e-18)
(0.195249 -0.203726 3.35418e-19)
(0.450967 -0.450295 4.68415e-19)
(0.628513 -0.581864 8.39152e-19)
(0.750268 -0.637905 3.72162e-20)
(0.833389 -0.646758 5.59891e-19)
(0.891057 -0.628052 -7.66689e-19)
(0.93231 -0.594737 2.34078e-18)
(0.96357 -0.55388 -1.0335e-18)
(0.989456 -0.507899 -5.07571e-19)
(1.00632 -0.461007 -1.53053e-18)
(0.21523 -0.195653 -1.32114e-19)
(0.49743 -0.44013 2.33402e-19)
(0.689467 -0.577805 -2.39179e-19)
(0.818263 -0.64211 1.28946e-19)
(0.903421 -0.658818 -1.52378e-19)
(0.959695 -0.646834 -3.90802e-19)
(0.997277 -0.619363 5.1408e-19)
(1.02316 -0.584702 -1.68154e-19)
(1.04271 -0.548005 2.60872e-19)
(1.05903 -0.515028 -5.69256e-19)
(0.230935 -0.18231 -7.39183e-21)
(0.536325 -0.418562 -1.06462e-19)
(0.742531 -0.559669 2.1173e-20)
(0.879239 -0.631621 1.44573e-19)
(0.967553 -0.656554 -6.53316e-20)
(1.02334 -0.651785 1.75398e-20)
(1.05788 -0.629967 -1.71895e-20)
(1.07891 -0.599657 -3.83365e-19)
(1.09213 -0.566623 -1.77959e-19)
(1.10255 -0.534701 -5.59988e-19)
(0.241593 -0.164635 -9.61289e-20)
(0.565832 -0.386974 3.39236e-19)
(0.785448 -0.528508 -2.10755e-19)
(0.931025 -0.60695 -7.59549e-20)
(1.02419 -0.640034 3.39136e-20)
(1.08145 -0.642882 7.15209e-20)
(1.11501 -0.627183 -7.02279e-21)
(1.1335 -0.601458 2.92461e-19)
(1.14302 -0.571983 -2.52723e-19)
(1.1492 -0.541879 -3.58054e-21)
(0.246759 -0.143785 -2.36705e-19)
(0.584617 -0.347278 -1.48238e-19)
(0.816339 -0.486098 -3.68097e-19)
(0.971581 -0.569494 4.18723e-19)
(1.07145 -0.610386 -3.07022e-20)
(1.13247 -0.621291 1.36102e-19)
(1.16741 -0.612602 1.53591e-19)
(1.18559 -0.592496 -5.58724e-20)
(1.19356 -0.567431 5.04985e-20)
(1.19711 -0.540021 -1.59889e-19)
(0.246311 -0.121013 -1.61017e-19)
(0.591872 -0.301725 -2.06832e-19)
(0.833754 -0.434707 3.11656e-19)
(0.999029 -0.521159 -4.68256e-19)
(1.10725 -0.569097 8.22575e-20)
(1.17428 -0.588156 4.15737e-20)
(1.21287 -0.587119 9.19868e-20)
(1.23273 -0.573484 -6.04727e-20)
(1.24077 -0.553598 -7.24208e-20)
(1.24291 -0.52972 -2.35874e-19)
(0.240435 -0.0975684 6.71298e-19)
(0.587355 -0.252731 -5.2537e-19)
(0.836772 -0.376931 2.45462e-20)
(1.01185 -0.464233 -6.73197e-19)
(1.12966 -0.51799 -1.95426e-19)
(1.20468 -0.544843 1.56344e-19)
(1.24914 -0.551725 1.14544e-19)
(1.27272 -0.545172 -3.82063e-19)
(1.28252 -0.531184 1.67685e-19)
(1.28453 -0.511755 -3.02429e-19)
(0.229586 -0.0746121 3.33148e-19)
(0.571393 -0.202718 -3.29718e-19)
(0.825092 -0.315541 1.18316e-18)
(1.00902 -0.401307 9.43463e-20)
(1.13708 -0.459222 2.68322e-19)
(1.22172 -0.493027 9.57153e-19)
(1.27409 -0.507671 -1.98962e-19)
(1.30345 -0.508499 4.83145e-20)
(1.31688 -0.500956 -2.84386e-20)
(1.32028 -0.486799 -4.95287e-20)
(0.214444 -0.0531504 2.56805e-19)
(0.54485 -0.15397 5.83529e-19)
(0.799063 -0.253335 -5.94777e-19)
(0.990133 -0.335148 -1.80661e-19)
(1.12837 -0.395217 -1.91268e-19)
(1.22372 -0.434653 3.76544e-19)
(1.28574 -0.456425 -1.77682e-19)
(1.32289 -0.464538 4.18934e-19)
(1.34191 -0.463703 1.00804e-19)
(1.34841 -0.45542 -1.77285e-19)
(0.195856 -0.0339917 -2.77402e-19)
(0.509069 -0.10851 2.57423e-19)
(0.759689 -0.192986 -5.28492e-19)
(0.955467 -0.268575 2.21266e-19)
(1.10299 -0.328579 -2.21763e-19)
(1.20943 -0.371907 -2.63696e-19)
(1.28239 -0.399693 -2.04602e-19)
(1.3291 -0.414556 2.25739e-19)
(1.35567 -0.42033 -3.92359e-19)
(1.36714 -0.418232 2.48388e-19)
(0.174775 -0.017719 -1.03925e-19)
(0.465772 -0.0680015 -2.03936e-19)
(0.708578 -0.1369 9.59356e-20)
(0.906006 -0.204326 7.08308e-21)
(1.0611 -0.262007 7.63531e-20)
(1.17821 -0.307192 1.09396e-19)
(1.26274 -0.33945 9.31493e-20)
(1.32037 -0.360077 -1.2603e-19)
(1.35627 -0.371951 1.02736e-19)
(1.37464 -0.375986 -1.62286e-19)
(0.152191 -0.00468204 -6.54859e-20)
(0.416945 -0.0336823 -2.63953e-20)
(0.647853 -0.0871017 9.83495e-20)
(0.843431 -0.144924 -4.43697e-20)
(1.0036 -0.198186 1.2417e-19)
(1.13007 -0.243068 -1.56951e-19)
(1.22601 -0.277937 4.03217e-20)
(1.29535 -0.302934 3.46033e-20)
(1.34201 -0.31998 -1.23615e-20)
(1.36911 -0.329676 5.67349e-20)
(0.129071 0.00499455 -7.8561e-20)
(0.364701 -0.0063285 -3.33062e-19)
(0.580015 -0.0451371 -2.68242e-20)
(0.770038 -0.0925429 1.07068e-20)
(0.932158 -0.139656 -4.6199e-19)
(1.06584 -0.182158 4.87857e-20)
(1.17213 -0.217628 -5.16876e-20)
(1.25319 -0.245301 -1.40586e-19)
(1.3115 -0.266204 3.11071e-19)
(1.34885 -0.280637 -5.65933e-19)
(0.106293 0.0113861 -4.45385e-20)
(0.31114 0.0137428 7.14365e-19)
(0.507779 -0.0120121 9.52793e-20)
(0.688607 -0.0488895 -6.45312e-19)
(0.849158 -0.0886661 -7.7272e-20)
(0.987142 -0.127018 -7.27704e-19)
(1.10185 -0.161148 5.65837e-19)
(1.19374 -0.189675 -2.29657e-19)
(1.26384 -0.212846 4.353e-19)
(1.31249 -0.230666 -3.8402e-19)
(0.084611 0.0147325 -2.51896e-19)
(0.258228 0.0266432 2.93297e-19)
(0.433899 0.0118354 -2.04869e-19)
(0.602223 -0.0151009 1.41612e-18)
(0.757549 -0.0470192 7.49596e-19)
(0.896411 -0.0799695 -1.96287e-19)
(1.01678 -0.111131 7.63243e-19)
(1.11772 -0.138798 -4.99036e-19)
(1.19888 -0.162564 -1.60483e-19)
(1.25919 -0.182097 1.15951e-18)
(0.0646184 0.0153976 -4.65668e-19)
(0.207682 0.0328632 6.95268e-19)
(0.360982 0.0265372 -1.31852e-18)
(0.514053 0.00833839 2.28232e-19)
(0.660652 -0.0159068 5.6905e-19)
(0.7967 -0.0428757 -7.15101e-19)
(0.919359 -0.0699942 -1.26653e-18)
(1.02673 -0.0954716 6.78964e-19)
(1.11735 -0.118343 -8.83005e-19)
(1.18885 -0.137793 1.41309e-18)
(0.0467452 0.0138316 -1.15116e-19)
(0.160911 0.0332168 -6.99807e-19)
(0.291339 0.0327801 3.45453e-19)
(0.427113 0.0216646 8.64155e-19)
(0.561883 0.00426163 -4.64182e-19)
(0.69144 -0.0168804 -4.58079e-19)
(0.812662 -0.0396129 -7.76651e-19)
(0.923199 -0.0622302 -3.55879e-19)
(1.02086 -0.0832293 -8.54668e-20)
(1.10226 -0.100992 1.41221e-18)
(0.0312702 0.0105458 1.93284e-19)
(0.118976 0.0287937 -9.50655e-19)
(0.226869 0.0317843 1.62605e-18)
(0.344063 0.0258913 -9.05443e-19)
(0.464446 0.0140394 5.86635e-19)
(0.58406 -0.0020762 -7.2995e-19)
(0.699967 -0.0208542 8.12988e-19)
(0.809928 -0.0407966 7.1003e-19)
(0.911576 -0.0598091 1.55133e-18)
(1.0009 -0.0748783 -2.5647e-18)
(0.018352 0.00610195 -6.00581e-19)
(0.0826126 0.0209186 1.20598e-18)
(0.169007 0.0252637 1.60937e-20)
(0.267055 0.0228311 -4.34379e-19)
(0.371088 0.0151007 -2.30675e-19)
(0.477614 0.00286575 1.84368e-19)
(0.584238 -0.0129432 -1.30891e-18)
(0.689404 -0.0312139 1.01127e-18)
(0.791332 -0.0492641 -1.30333e-18)
(0.88604 -0.0617493 -5.94916e-19)
(0.00806022 0.00110796 1.03348e-18)
(0.0522602 0.0110931 -3.22397e-19)
(0.118756 0.0153295 -6.04771e-19)
(0.197748 0.0150188 1.64253e-18)
(0.284048 0.0102794 -1.61348e-18)
(0.374603 0.000971949 9.01471e-19)
(0.467605 -0.0128152 9.60106e-19)
(0.562487 -0.0307701 2.62726e-19)
(0.658902 -0.050177 2.73251e-19)
(0.754557 -0.0623402 -3.87626e-19)
(0.000388703 -0.0038085 -9.8839e-19)
(0.028118 0.000874468 9.3945e-19)
(0.0768095 0.00427291 -8.31378e-19)
(0.137563 0.00546151 1.04308e-18)
(0.205553 0.00344251 -3.11634e-19)
(0.27782 -0.00270774 -1.08231e-18)
(0.352528 -0.0137257 3.10376e-19)
(0.429273 -0.0305531 -5.12092e-19)
(0.509035 -0.0524532 -6.06529e-19)
(0.59417 -0.0694536 -1.89221e-18)
(-0.00477044 -0.00808575 -1.23468e-18)
(0.0101469 -0.00838447 9.81595e-19)
(0.0436436 -0.00593779 -1.92324e-18)
(0.0879961 -0.00320901 3.43909e-19)
(0.13875 -0.00175678 -1.33239e-18)
(0.192804 -0.00254279 -7.99103e-19)
(0.247586 -0.00588932 1.91235e-18)
(0.30116 -0.0120152 -2.61445e-18)
(0.352881 -0.0215151 5.03227e-19)
(0.400028 -0.0302478 -8.28667e-19)
(-0.00768222 -0.0113475 6.08186e-19)
(-0.00204461 -0.015839 2.57331e-19)
(0.0192554 -0.0143224 -7.65394e-20)
(0.0500646 -0.0103 7.3085e-19)
(0.0867019 -0.0056592 2.14609e-18)
(0.126594 -0.00135996 7.40705e-19)
(0.167733 0.00240725 7.65352e-19)
(0.20892 0.00569242 -2.6464e-19)
(0.250232 0.00783867 -2.46853e-18)
(0.289114 0.00926231 6.26044e-19)
(-0.00878372 -0.0134241 -1.71697e-19)
(-0.00932799 -0.0210858 5.46477e-19)
(0.00264615 -0.0205021 -1.43158e-19)
(0.0227356 -0.0158173 1.0108e-18)
(0.0481734 -0.00920548 -2.33707e-18)
(0.077014 -0.00182613 1.9837e-19)
(0.107829 0.0057941 -1.11227e-18)
(0.139842 0.0132484 1.63667e-18)
(0.172876 0.0195728 -4.78387e-19)
(0.204272 0.0240794 -6.8359e-20)
(-0.0085878 -0.014304 -1.16885e-19)
(-0.0128317 -0.0240055 -6.57202e-19)
(-0.00771328 -0.0243086 1.65281e-18)
(0.00407936 -0.0196267 -8.71453e-19)
(0.0206596 -0.0123267 6.12487e-20)
(0.0406177 -0.00378456 2.79664e-19)
(0.062914 0.00513221 -2.55579e-19)
(0.0869289 0.013632 3.32161e-19)
(0.112249 0.0206143 1.15098e-18)
(0.136673 0.0252824 3.01188e-19)
(-0.00758374 -0.0140742 -2.62165e-19)
(-0.0136957 -0.0246647 -2.91601e-19)
(-0.0134291 -0.0257003 -1.29432e-18)
(-0.00792066 -0.0215112 6.89182e-19)
(0.00173563 -0.0144918 -1.42151e-18)
(0.0145786 -0.00611527 3.22936e-19)
(0.0298494 0.00258983 3.63119e-19)
(0.0470085 0.0107142 -3.83742e-19)
(0.0655392 0.0172486 -2.48274e-19)
(0.0837988 0.0214699 -1.1158e-18)
(-0.00618704 -0.0128747 2.048e-19)
(-0.0129399 -0.0232571 -4.8173e-20)
(-0.0159822 -0.0247661 9.78704e-22)
(-0.0151342 -0.0213424 -6.22001e-19)
(-0.0108146 -0.0152248 1.57457e-18)
(-0.00361583 -0.00783505 -2.45594e-19)
(0.00591817 -0.000196051 -6.12889e-19)
(0.0173137 0.00683879 7.50149e-19)
(0.0300353 0.0124522 -2.63615e-19)
(0.0429232 0.0160464 1.4571e-18)
(-0.00472402 -0.0108679 -3.84396e-20)
(-0.0114033 -0.0200601 -2.2537e-19)
(-0.0166177 -0.0217186 -8.8947e-20)
(-0.0191361 -0.0191488 -1.13634e-19)
(-0.018832 -0.014267 -2.44309e-19)
(-0.0160035 -0.00831115 -7.6722e-19)
(-0.0110227 -0.00217579 9.59698e-19)
(-0.00429651 0.00342996 5.6061e-19)
(0.00366277 0.00789635 -1.00428e-19)
(0.0120631 0.0107643 -8.93749e-19)
(-0.00343574 -0.0082248 2.18286e-19)
(-0.00972806 -0.0154093 3.81457e-20)
(-0.0163014 -0.0168858 2.58202e-19)
(-0.0211436 -0.0151398 -2.95522e-20)
(-0.0237176 -0.0116328 2.35111e-19)
(-0.0240981 -0.00731636 2.6526e-19)
(-0.0225237 -0.00287638 3.97678e-19)
(-0.0193385 0.00116436 -1.12655e-18)
(-0.0150202 0.0043891 -2.07926e-19)
(-0.010103 0.00647424 3.72647e-19)
(-0.00248969 -0.00512123 -1.10222e-19)
(-0.00837065 -0.00968526 -1.5666e-19)
(-0.0157252 -0.0106971 -7.53636e-20)
(-0.022025 -0.00969694 3.68612e-19)
(-0.0264593 -0.00759767 1.78925e-19)
(-0.0289517 -0.00499617 3.66936e-20)
(-0.0296476 -0.00232076 -7.95547e-20)
(-0.0288424 0.000110268 -6.17125e-20)
(-0.0269847 0.00205519 5.29715e-19)
(-0.0244468 0.00332156 -3.60776e-19)
(-0.00199122 -0.00173828 5.61902e-20)
(-0.00762157 -0.00330237 6.99166e-20)
(-0.0153301 -0.00366156 -5.96172e-20)
(-0.0223324 -0.00333718 -5.45292e-20)
(-0.0276804 -0.00263951 -5.65385e-20)
(-0.0312214 -0.00177165 -9.0216e-20)
(-0.0330527 -0.000879005 2.89768e-21)
(-0.0334436 -6.82617e-05 1.25174e-19)
(-0.0328262 0.000581454 -1.25684e-19)
(-0.0314952 0.00100626 2.28672e-19)
(-0.00813495 -0.00258524 1.65343e-20)
(0.0621244 -0.00662818 9.88739e-21)
(0.277545 -0.00671274 1.33757e-21)
(0.376958 -0.00438955 -9.02404e-22)
(0.479666 -0.00368011 -6.35447e-23)
(0.55355 -0.00263503 1.48046e-22)
(0.606043 -0.00217954 1.66333e-22)
(0.66034 -0.00157817 -3.40035e-23)
(0.683573 -0.00146659 -2.48923e-24)
(0.733799 -0.00101269 2.43878e-22)
(0.00866473 -0.00806015 2.62205e-20)
(0.0773787 -0.0197202 1.25331e-21)
(0.289035 -0.0199789 -1.74801e-20)
(0.385714 -0.0130649 1.40444e-20)
(0.486374 -0.0109668 8.87148e-22)
(0.558785 -0.00785945 -5.94088e-22)
(0.610314 -0.00650787 6.88746e-22)
(0.6637 -0.00471101 6.97221e-23)
(0.686505 -0.00436984 1.40201e-22)
(0.736023 -0.00301858 -2.23492e-22)
(0.0419694 -0.0144154 2.68569e-20)
(0.107413 -0.0323312 -3.61026e-20)
(0.311589 -0.032786 1.78692e-20)
(0.402914 -0.0214395 -1.16345e-20)
(0.499557 -0.0180261 8.28226e-22)
(0.569088 -0.0129324 -6.45434e-22)
(0.618731 -0.0107212 -2.56805e-22)
(0.670332 -0.00776417 8.69288e-25)
(0.692303 -0.00720723 -1.07363e-22)
(0.740428 -0.00498492 -3.26289e-22)
(0.0911774 -0.0221292 -4.16268e-20)
(0.151305 -0.044162 -5.01137e-20)
(0.344375 -0.044849 -2.3123e-20)
(0.427953 -0.0293298 1.21277e-20)
(0.518762 -0.0247185 -1.45361e-20)
(0.584134 -0.0177605 3.84435e-21)
(0.631051 -0.014748 -2.08866e-22)
(0.680067 -0.0106879 1.20918e-22)
(0.700832 -0.0099372 -1.29066e-22)
(0.746934 -0.00688636 1.21096e-22)
(0.155357 -0.0314743 1.15128e-19)
(0.207729 -0.0549249 7.22387e-20)
(0.386207 -0.0559044 2.598e-20)
(0.459962 -0.0365737 -2.35674e-20)
(0.543345 -0.0309198 1.19319e-20)
(0.60346 -0.0222608 3.16021e-21)
(0.646921 -0.018524 2.20932e-21)
(0.692656 -0.0134371 2.39424e-22)
(0.711903 -0.0125215 2.86832e-22)
(0.755421 -0.00869916 -6.42592e-22)
(0.233228 -0.0423782 -5.08264e-20)
(0.275008 -0.0643049 3.90007e-20)
(0.435603 -0.0656987 4.82046e-21)
(0.49786 -0.0430277 2.62832e-20)
(0.572503 -0.0365233 -5.94622e-21)
(0.626483 -0.026363 -3.68294e-21)
(0.665905 -0.0219939 -2.28217e-21)
(0.707791 -0.0159731 -1.47686e-22)
(0.72527 -0.0149263 -1.55654e-22)
(0.765736 -0.0104017 6.89386e-22)
(0.323162 -0.0545607 -3.86778e-20)
(0.351172 -0.0720375 -1.00779e-19)
(0.490867 -0.074029 -1.70467e-20)
(0.540412 -0.0485762 -1.46383e-20)
(0.605321 -0.0414463 6.97177e-21)
(0.652539 -0.0300117 -1.94186e-21)
(0.687494 -0.0251137 2.45508e-21)
(0.725108 -0.0182642 4.49727e-22)
(0.740648 -0.0171234 -4.66203e-23)