1.275 	2.15223e-18 	-2.76991e-20 	-0.0340168 	-0.000441903 	-1.98673e-22
1.825 	2.15223e-18 	-1.39322e-20 	-0.00865271 	-0.00277418 	1.78452e-21
2.375 	2.15223e-18 	-2.66896e-23 	0.117612 	-0.00328379 	-7.44887e-22
