/*--------------------------------*- C++ -*----------------------------------*\
  =========                 |
  \\      /  F ield         | OpenFOAM: The Open Source CFD Toolbox
   \\    /   O peration     | Website:  https://openfoam.org
    \\  /    A nd           | Version:  6.0
     \\/     M anipulation  |
\*---------------------------------------------------------------------------*/
FoamFile
{
    version     2.0;
    format      ascii;
    class       volVectorField;
    location    "18";
    object      U;
}
// * * * * * * * * * * * * * * * * * * * * * * * * * * * * * * * * * * * * * //

dimensions      [0 1 -1 0 0 0 0];

internalField   nonuniform List<vector> 
8000
(
(-0.000398641 0.000443424 -1.38016e-21)
(-0.0020988 0.00106817 8.04276e-21)
(-0.0051467 0.00147588 -1.00321e-20)
(-0.00877639 0.00171803 7.79964e-21)
(-0.0125913 0.00183198 3.8716e-21)
(-0.0163651 0.00184676 -1.18133e-20)
(-0.0199353 0.00178606 -1.05525e-21)
(-0.023194 0.00166919 -3.69883e-22)
(-0.0260774 0.00151208 -6.33611e-21)
(-0.0285536 0.001328 -3.45072e-21)
(-0.0306145 0.00112814 2.62381e-21)
(-0.0322695 0.000922072 9.9439e-21)
(-0.0335412 0.000717986 -7.87798e-22)
(-0.0344616 0.000522907 1.04863e-21)
(-0.0350699 0.000342808 -1.01507e-20)
(-0.0354103 0.000182668 6.27501e-21)
(-0.0355301 4.64972e-05 -8.97247e-21)
(-0.0354703 -6.24774e-05 1.36473e-20)
(-0.0352621 -0.000141506 -1.56346e-23)
(-0.0350111 -0.000189813 3.40502e-21)
(-0.000466197 0.00132445 4.57976e-21)
(-0.0022513 0.00318884 -2.55676e-20)
(-0.00533445 0.00440435 -1.81344e-20)
(-0.00896131 0.00512504 -1.25803e-20)
(-0.0127431 0.0054627 -1.64801e-20)
(-0.0164592 0.00550413 3.671e-21)
(-0.019952 0.00532004 -1.95573e-20)
(-0.0231173 0.00496815 -4.41377e-21)
(-0.0258942 0.00449595 1.47351e-21)
(-0.028253 0.00394303 1.50796e-20)
(-0.0301873 0.00334287 -1.65364e-20)
(-0.0317078 0.00272405 2.31586e-20)
(-0.0328382 0.00211109 -1.74245e-20)
(-0.0336116 0.00152509 -2.07127e-20)
(-0.0340679 0.000984021 -2.8533e-20)
(-0.0342526 0.000502895 1.84812e-20)
(-0.034214 9.38489e-05 -5.8621e-21)
(-0.0339935 -0.000233295 -2.15664e-20)
(-0.0336228 -0.000470109 2.05142e-20)
(-0.0332111 -0.000614341 -1.76706e-20)
(-0.000599929 0.00218875 4.47829e-20)
(-0.00255215 0.00526425 2.55158e-20)
(-0.00570317 0.00726527 2.93388e-20)
(-0.00932193 0.0084475 2.50752e-21)
(-0.0130353 0.0089963 1.68523e-20)
(-0.0166344 0.00905536 2.12463e-20)
(-0.019971 0.00874159 -3.9395e-20)
(-0.0229485 0.00815026 -2.09971e-20)
(-0.0255118 0.00735968 -2.76217e-20)
(-0.0276355 0.00643519 2.97458e-20)
(-0.0293165 0.00543206 -2.28983e-20)
(-0.0305682 0.00439762 -2.96083e-20)
(-0.0314166 0.0033726 -1.08776e-20)
(-0.0318965 0.00239219 1.03734e-20)
(-0.0320497 0.00148653 -2.74473e-21)
(-0.0319237 0.000680938 4.26955e-21)
(-0.0315687 -3.99945e-06 4.81609e-20)
(-0.0310279 -0.000551427 -7.01014e-21)
(-0.030333 -0.000946681 -4.91211e-20)
(-0.0296011 -0.00118626 7.50791e-20)
(-0.000797052 0.00302524 1.57661e-20)
(-0.00299305 0.00726439 -2.40667e-20)
(-0.00623913 0.0100141 -6.275e-21)
(-0.00983961 0.01163 1.19621e-20)
(-0.013445 0.0123695 3.43878e-20)
(-0.0168641 0.0124319 7.63595e-20)
(-0.019963 0.0119787 7.55924e-20)
(-0.0226564 0.0111413 6.34889e-21)
(-0.0248976 0.0100277 4.72937e-20)
(-0.0266679 0.0087278 7.29897e-20)
(-0.027969 0.00731796 -5.84744e-20)
(-0.0288183 0.0058637 8.75793e-20)
(-0.0292445 0.00442176 -1.96606e-20)
(-0.0292856 0.00304143 5.18924e-21)
(-0.028986 0.00176528 2.07307e-20)
(-0.0283956 0.000629419 2.75108e-20)
(-0.027568 -0.000336551 -4.39827e-20)
(-0.0265485 -0.00110797 -3.66053e-20)
(-0.0253695 -0.00166296 -6.46121e-20)
(-0.0241604 -0.00199721 1.09296e-19)
(-0.00105332 0.00382285 -8.1512e-21)
(-0.00356126 0.00915947 -9.22014e-20)
(-0.00692137 0.0126069 -2.8006e-20)
(-0.0104858 0.0146183 -6.95178e-20)
(-0.0139371 0.0155212 2.68545e-20)
(-0.0171077 0.0155683 -4.27478e-20)
(-0.019883 0.0149636 1.50525e-20)
(-0.0221927 0.0138727 -9.26879e-20)
(-0.0240015 0.0124311 4.9533e-20)
(-0.0252992 0.0107521 -5.93865e-20)
(-0.0260938 0.00893184 -5.30855e-20)
(-0.0264075 0.00705319 -5.97492e-20)
(-0.0262732 0.0051885 5.44276e-20)
(-0.0257319 0.0034012 -4.90485e-20)
(-0.0248314 0.00174669 6.86313e-20)
(-0.0236254 0.000272456 1.97268e-20)
(-0.0221713 -0.000981971 4.88988e-20)
(-0.0205171 -0.00198296 2.12908e-20)
(-0.0186967 -0.00269997 -8.54e-20)
(-0.0168572 -0.00312849 1.61007e-19)
(-0.00136293 0.0045705 3.66311e-20)
(-0.00423933 0.0109199 2.78495e-21)
(-0.00772108 0.0150006 1.69159e-20)
(-0.0112214 0.0173601 6.00177e-20)
(-0.0144633 0.0183934 -9.07687e-21)
(-0.0173094 0.0184037 1.00704e-19)
(-0.0196694 0.0176347 4.53797e-20)
(-0.0214915 0.0162834 3.94722e-21)
(-0.0227546 0.0145106 1.1852e-19)
(-0.0234589 0.0124506 3.89511e-20)
(-0.0236203 0.0102178 1.86706e-20)
(-0.0232665 0.00791121 5.95672e-20)
(-0.0224347 0.00561819 5.47484e-20)
(-0.02117 0.0034162 9.99979e-20)
(-0.0195237 0.00137387 -9.00665e-20)
(-0.0175537 -0.00044899 1.26685e-19)
(-0.0153224 -0.00200176 1.00028e-21)
(-0.0128811 -0.00324014 -1.6262e-19)
(-0.0102657 -0.00412292 2.10897e-19)
(-0.00764748 -0.0046462 1.00778e-19)
(-0.00171834 0.00525702 -2.14577e-20)
(-0.00500469 0.0125162 -4.33066e-20)
(-0.00860107 0.017153 -9.19643e-20)
(-0.0119957 0.0198053 -2.82679e-21)
(-0.0149614 0.0209316 1.64683e-20)
(-0.0173973 0.0208825 -1.23225e-19)
(-0.0192421 0.0199377 -9.24577e-20)
(-0.0204668 0.0183221 -1.34482e-20)
(-0.0210671 0.0162188 -1.19099e-19)
(-0.0210554 0.0137802 -8.28975e-20)
(-0.0204564 0.0111366 -2.43363e-20)
(-0.0193041 0.00840171 -7.87918e-20)
(-0.0176405 0.00567675 -1.51376e-21)
(-0.0155145 0.00305295 -1.0537e-19)
(-0.0129812 0.000612652 4.40222e-20)
(-0.0101032 -0.001571 -5.07609e-20)
(-0.00694828 -0.00343464 3.84106e-20)
(-0.00357166 -0.00492097 -5.00512e-20)
(-1.23726e-05 -0.00597537 -1.41351e-19)
(0.00352636 -0.00659563 -4.97693e-20)
(-0.00211009 0.00587102 -8.4264e-21)
(-0.00582909 0.013919 -9.97301e-21)
(-0.0095149 0.0190228 7.74478e-20)
(-0.0127459 0.0219058 -1.28954e-19)
(-0.015354 0.0230855 1.91642e-20)
(-0.0172814 0.0229555 -7.69946e-20)
(-0.0185014 0.0218272 3.64763e-20)
(-0.0190114 0.0199492 1.65975e-19)
(-0.0188265 0.0175228 -1.11526e-20)
(-0.0179731 0.0147153 -1.2573e-19)
(-0.0164858 0.0116698 2.29129e-20)
(-0.0144053 0.00851222 4.70105e-21)
(-0.0117783 0.00535621 -2.5678e-20)
(-0.00865712 0.00230611 3.26991e-21)
(-0.00510067 -0.000541724 2.30049e-19)
(-0.00117598 -0.00309956 -3.32634e-20)
(0.00304338 -0.00528926 -6.40538e-20)
(0.00749781 -0.00703741 -1.14276e-19)
(0.0121439 -0.00827223 1.17457e-19)
(0.0167372 -0.00899446 5.86009e-20)
(-0.0025265 0.00640075 4.08681e-20)
(-0.00667796 0.0150986 -5.88641e-20)
(-0.0104061 0.02057 8.50939e-20)
(-0.0133954 0.0236165 8.77042e-20)
(-0.015547 0.0248095 8.19576e-20)
(-0.0168529 0.0245804 1.67811e-19)
(-0.0173261 0.0232675 1.0949e-19)
(-0.0169943 0.0211379 -2.37681e-19)
(-0.0158948 0.0184064 1.22516e-19)
(-0.01407 0.0152508 9.65205e-20)
(-0.011565 0.0118232 -1.73907e-21)
(-0.00842764 0.00825861 1.08881e-19)
(-0.00470878 0.0046806 8.44857e-20)
(-0.000463735 0.00120538 -4.68121e-20)
(0.00424594 -0.00205675 1.56407e-19)
(0.00934915 -0.00500223 -1.95135e-19)
(0.0147665 -0.0075356 7.78477e-20)
(0.0204341 -0.00956328 9.99014e-20)
(0.0263028 -0.0109913 -2.31767e-20)
(0.0320751 -0.0118246 2.3327e-19)
(-0.00295333 0.00683402 8.39824e-20)
(-0.00750978 0.0160253 5.0915e-21)
(-0.0112072 0.0217551 -3.33349e-20)
(-0.0138537 0.0248948 -3.56511e-20)
(-0.0154292 0.0260628 -1.68898e-19)
(-0.0159827 0.0257225 2.49352e-20)
(-0.0155721 0.0242332 6.91792e-20)
(-0.0142592 0.0218751 -3.41291e-20)
(-0.0121066 0.018871 2.82425e-20)
(-0.00917453 0.0154041 -7.5723e-21)
(-0.00551983 0.0116305 -3.69893e-20)
(-0.00119735 0.00768972 3.55664e-20)
(0.00373832 0.00371201 -1.52106e-19)
(0.0092302 -0.000176993 1.47457e-19)
(0.0152155 -0.00385384 -1.26873e-19)
(0.0216203 -0.0071982 3.96797e-20)
(0.0283602 -0.0100945 8.90768e-20)
(0.0353672 -0.0124237 -1.90513e-20)
(0.0425851 -0.0140629 -6.1818e-20)
(0.0496504 -0.0150221 -4.88019e-20)
(-0.00337345 0.00715816 -1.06291e-19)
(-0.00827543 0.0166694 -7.65343e-21)
(-0.0118396 0.0225405 2.49278e-20)
(-0.0140153 0.0257012 6.48034e-20)
(-0.0148717 0.0268093 -9.2878e-20)
(-0.014521 0.026354 -8.18025e-20)
(-0.0130714 0.0247089 1.92116e-19)
(-0.0106231 0.0221614 -1.081e-19)
(-0.00726698 0.0189363 -6.98971e-20)
(-0.00308316 0.0152159 -1.00333e-19)
(0.00185826 0.0111546 6.67322e-20)
(0.00749505 0.00689087 -2.42215e-21)
(0.0137696 0.00255614 -1.25835e-19)
(0.0206248 -0.00171842 -2.04196e-19)
(0.0279988 -0.00579844 1.56578e-19)
(0.0358174 -0.00954675 -1.25706e-19)
(0.0439928 -0.0128248 1.78969e-19)
(0.0524542 -0.0154818 -5.0729e-20)
(0.0611375 -0.0173566 1.03519e-19)
(0.069597 -0.0184642 -4.15032e-19)
(-0.0037665 0.00736013 -2.20233e-19)
(-0.00891776 0.0170015 1.56967e-19)
(-0.0122128 0.0228898 2.13558e-20)
(-0.0137601 0.0259993 4.38455e-21)
(-0.0137277 0.027018 -1.00415e-19)
(-0.0122974 0.0264538 1.49686e-19)
(-0.00963253 0.0246883 1.57982e-20)
(-0.0058758 0.0220095 -3.09318e-20)
(-0.00114983 0.0186382 -1.00505e-19)
(0.00444246 0.0147493 1.09209e-19)
(0.0108159 0.0104884 2.76532e-19)
(0.0178998 0.00598559 -6.17556e-20)
(0.0256339 0.00136647 1.38767e-19)
(0.0339627 -0.00323877 -1.63186e-19)
(0.0428283 -0.00768952 -1.55832e-19)
(0.0521595 -0.0118337 9.4594e-20)
(0.0618686 -0.015508 1.53882e-19)
(0.0718852 -0.0185222 -5.0073e-19)
(0.0821372 -0.0206645 6.01381e-20)
(0.0920784 -0.0219527 9.33984e-20)
(-0.00410869 0.00742689 1.64487e-19)
(-0.00937157 0.0169934 6.15543e-20)
(-0.0122252 0.0227693 3.126e-19)
(-0.0129545 0.0257565 1.63778e-20)
(-0.0118348 0.0266625 -3.51205e-20)
(-0.00912296 0.0260065 -1.69911e-19)
(-0.00504197 0.0241718 1.46942e-19)
(0.000218845 0.0214412 2.65088e-19)
(0.00650139 0.0180253 1.7587e-19)
(0.0136765 0.0140852 1.28167e-19)
(0.0216408 0.00975025 1.10526e-19)
(0.0303132 0.00513351 -1.9863e-19)
(0.0396299 0.000345187 -6.12622e-20)
(0.0495383 -0.00449524 -4.55776e-20)
(0.0599878 -0.00924956 4.88482e-19)
(0.0709151 -0.0137566 -3.26561e-21)
(0.0822382 -0.0178289 -1.20768e-19)
(0.0938927 -0.0212292 -3.57267e-20)
(0.105802 -0.0236789 3.46927e-19)
(0.117298 -0.0251918 5.35861e-20)
(-0.00437278 0.00734596 -6.43475e-21)
(-0.00956407 0.0166193 -1.7029e-19)
(-0.0117655 0.0221494 -2.5765e-19)
(-0.0114533 0.0249447 -7.27721e-20)
(-0.00901736 0.0257207 4.15625e-20)
(-0.00479353 0.0250007 9.35521e-21)
(0.000931868 0.0231636 2.36148e-19)
(0.00791925 0.0204819 -2.95447e-19)
(0.0159711 0.0171514 -1.13263e-19)
(0.0249277 0.0133138 -2.2759e-19)
(0.0346633 0.00907508 -1.93465e-19)
(0.0450823 0.00452201 -1.71376e-19)
(0.0561147 -0.000262243 4.32739e-20)
(0.0677102 -0.00518256 -5.58257e-20)
(0.0798279 -0.0101174 2.36777e-19)
(0.0924187 -0.0149091 -1.31611e-19)
(0.105415 -0.0193527 -4.04712e-19)
(0.118768 -0.0231595 -7.86474e-20)
(0.132406 -0.025962 1.98594e-19)
(0.145514 -0.0277567 -2.01345e-19)
(-0.00452843 0.00710629 -2.56072e-20)
(-0.00941614 0.0158575 2.14429e-19)
(-0.0107148 0.0210058 -2.76306e-19)
(-0.00910381 0.0235415 6.43433e-20)
(-0.00509181 0.0241753 -1.33219e-19)
(0.000904018 0.0234275 3.0217e-19)
(0.00853174 0.0216675 -2.16572e-19)
(0.0174988 0.0191542 2.48039e-19)
(0.0275647 0.0160656 -2.3779e-19)
(0.0385345 0.0125208 1.00298e-19)
(0.0502541 0.00859737 -4.9899e-20)
(0.0626073 0.00434793 -1.23829e-19)
(0.0755119 -0.000183717 -1.51805e-19)
(0.0889157 -0.00494392 1.5116e-19)
(0.102788 -0.00984918 -1.26144e-19)
(0.117097 -0.014768 -2.72614e-19)
(0.131801 -0.0194975 2.84019e-19)
(0.146887 -0.0237009 -3.59415e-19)
(0.162307 -0.0268971 1.60992e-19)
(0.177074 -0.0290404 4.09705e-21)
(-0.00454284 0.00669942 -2.53401e-19)
(-0.00884443 0.014693 -2.94367e-19)
(-0.00895073 0.0193225 3.37667e-20)
(-0.00575077 0.0215324 -2.89382e-19)
(0.000126591 0.0220148 -2.59726e-20)
(0.0081831 0.0212797 -2.15389e-19)
(0.0180011 0.0196833 -4.99336e-20)
(0.029234 0.0174693 -1.46202e-19)
(0.0415959 0.0147982 4.71427e-22)
(0.0548524 0.0117668 -6.48604e-20)
(0.0688149 0.00842416 3.12367e-21)
(0.0833379 0.00478475 -1.85239e-19)
(0.0983172 0.000844 2.01402e-19)
(0.113689 -0.00340318 -2.88089e-19)
(0.129424 -0.00793835 1.00159e-19)
(0.145512 -0.0126926 2.44682e-21)
(0.161944 -0.017505 -1.5882e-19)
(0.178769 -0.0220169 3.89068e-19)
(0.196009 -0.0256162 -9.30381e-20)
(0.212477 -0.0281789 -7.01331e-20)
(-0.00438191 0.00612075 2.88499e-19)
(-0.00776434 0.0131196 1.67369e-19)
(-0.0063517 0.0170948 1.5623e-19)
(-0.00124315 0.0189136 2.30583e-20)
(0.00681481 0.0192352 2.17184e-19)
(0.017246 0.0185521 3.1335e-19)
(0.0295695 0.017204 2.58467e-19)
(0.0433864 0.0154201 2.12866e-20)
(0.0583658 0.0133465 1.88817e-19)
(0.0742318 0.0110636 2.9323e-19)
(0.0907565 0.00859771 -7.65948e-20)
(0.107757 0.00593081 1.28366e-19)
(0.125093 0.00301008 1.04755e-19)
(0.142674 -0.00023778 1.05601e-19)
(0.160457 -0.00388472 6.10944e-19)
(0.178436 -0.00797176 -2.29552e-19)
(0.196638 -0.0124519 -1.37226e-20)
(0.215206 -0.0170237 2.56526e-19)
(0.234313 -0.0209666 -1.44413e-19)
(0.252574 -0.0240252 8.49193e-20)
(-0.00401177 0.00537095 -2.38086e-19)
(-0.00609374 0.0111433 1.86289e-20)
(-0.00280282 0.0143323 -2.06115e-19)
(0.00455827 0.0156959 -2.54024e-20)
(0.0151319 0.015844 1.53802e-19)
(0.0282701 0.0152443 -4.57315e-19)
(0.0434347 0.014217 3.05398e-21)
(0.0601796 0.0129776 2.13981e-19)
(0.078133 0.0116639 2.01666e-19)
(0.0969808 0.0103496 -8.92927e-20)
(0.116456 0.00905303 2.874e-20)
(0.136334 0.00774107 6.8515e-20)
(0.156429 0.00633083 -3.28226e-20)
(0.176604 0.00469329 -3.57522e-19)
(0.196774 0.00266197 9.15443e-20)
(0.216907 4.62511e-05 2.43197e-19)
(0.237033 -0.00332279 -3.44459e-19)
(0.257397 -0.00736164 1.68386e-19)
(0.278468 -0.0113356 4.29332e-20)
(0.298757 -0.0147908 2.57608e-19)
(-0.00340051 0.00445707 -3.6986e-20)
(-0.00375693 0.0087844 -1.81049e-19)
(0.00179848 0.0110633 8.20678e-20)
(0.0117732 0.0119092 -2.3465e-21)
(0.0252087 0.0118662 -3.71331e-19)
(0.0413943 0.011368 5.87033e-20)
(0.0597431 0.0107107 -1.01186e-20)
(0.0797709 0.0100965 7.53328e-20)
(0.101075 0.00965946 -3.46559e-19)
(0.123313 0.00947859 -2.2108e-20)
(0.14619 0.00958387 -7.94002e-20)
(0.169445 0.00995722 7.44732e-20)
(0.192852 0.0105283 2.43563e-19)
(0.216213 0.0111668 -3.81852e-20)
(0.239372 0.0116711 1.35546e-20)
(0.262205 0.0117412 9.58271e-20)
(0.284641 0.0109694 -2.29255e-20)
(0.306924 0.00912187 1.76214e-19)
(0.329953 0.00686238 -1.13208e-19)
(0.352513 0.00449841 -1.89451e-19)
(-0.00252003 0.00339339 3.34094e-20)
(-0.000688613 0.0060796 7.5274e-21)
(0.00753725 0.00733766 7.47526e-20)
(0.0204953 0.00760839 1.83054e-19)
(0.0371391 0.00735222 1.02365e-19)
(0.0567061 0.00695776 1.0264e-20)
(0.0785712 0.00668971 -1.23923e-19)
(0.102224 0.00673256 3.26363e-20)
(0.127247 0.00721704 1.66861e-19)
(0.153286 0.00823277 -2.8499e-19)
(0.180043 0.00983604 2.15735e-19)
(0.207257 0.0120532 -1.62244e-19)
(0.234697 0.0148797 1.37479e-19)
(0.262154 0.0182748 -2.95486e-19)
(0.28944 0.0221461 3.21592e-19)
(0.316361 0.0263007 -3.45162e-19)
(0.342707 0.0304074 -8.67693e-20)
(0.368545 0.0343032 2.62928e-19)
(0.394868 0.0386052 -9.56755e-20)
(0.420781 0.0416225 4.03154e-20)
(-0.00134752 0.00220155 -2.64113e-20)
(0.00316309 0.00308288 2.61254e-19)
(0.0144772 0.00322939 -3.31164e-21)
(0.0307877 0.00287752 -1.64079e-19)
(0.0509747 0.00238607 -1.10045e-19)
(0.0742345 0.00208526 2.04034e-19)
(0.0999146 0.00219674 -8.16651e-20)
(0.12749 0.00287693 -1.06416e-20)
(0.15654 0.00424299 1.67831e-19)
(0.186726 0.00638532 -2.12258e-19)
(0.217775 0.00937706 2.25216e-20)
(0.249479 0.0132819 -2.75812e-19)
(0.281693 0.018161 1.44935e-19)
(0.314351 0.024079 -4.16723e-19)
(0.3475 0.0311035 6.6388e-19)
(0.381361 0.039287 -1.20465e-19)
(0.416508 0.0486873 1.26371e-19)
(0.454351 0.0594762 -3.34143e-19)
(0.497756 0.0710843 4.74095e-21)
(0.551259 0.0777479 4.70968e-19)
(0.000133572 0.000910024 -8.19462e-20)
(0.00783482 -0.000135056 7.45863e-20)
(0.0226592 -0.00116276 -2.7192e-19)
(0.0426821 -0.00216653 4.04721e-19)
(0.0667249 -0.00290677 -2.93697e-19)
(0.0939518 -0.00312623 1.45995e-20)
(0.12369 -0.00266073 -3.17162e-19)
(0.155405 -0.00139758 2.28051e-19)
(0.188682 0.000747815 -3.40861e-20)
(0.223197 0.00384123 -2.02809e-19)
(0.258715 0.00793607 -1.17289e-19)
(0.295081 0.0130773 1.24095e-19)
(0.332238 0.0193014 8.26079e-20)
(0.370242 0.0266297 -3.70843e-19)
(0.409309 0.035044 1.35412e-19)
(0.449877 0.0444394 -1.98825e-19)
(0.49276 0.0545918 2.16723e-20)
(0.539344 0.0650363 -1.74897e-19)
(0.591262 0.0739381 8.08865e-20)
(0.649197 0.0759366 -3.23923e-19)
(0.00193331 -0.000447088 2.30742e-19)
(0.0133476 -0.0034888 -1.46816e-19)
(0.0321014 -0.00571667 1.21649e-19)
(0.056181 -0.00737431 -1.53717e-19)
(0.0843625 -0.00835691 2.62143e-19)
(0.115785 -0.00849418 -5.71042e-21)
(0.149757 -0.00769357 -3.19852e-20)
(0.185737 -0.00590173 -2.3789e-20)
(0.223308 -0.00308494 1.46835e-19)
(0.262155 0.000775082 2.49083e-19)
(0.302055 0.0056827 -1.49963e-19)
(0.342877 0.0116263 1.44431e-19)
(0.384586 0.0185709 2.65306e-19)
(0.427254 0.0264402 -1.88875e-19)
(0.471082 0.0350827 -3.86005e-19)
(0.516422 0.044221 7.10214e-19)
(0.563836 0.0534163 -1.28724e-19)
(0.614101 0.0619367 -4.32814e-20)
(0.667698 0.0679546 4.68667e-19)
(0.723908 0.0678876 -1.19954e-19)
(0.00405571 -0.00183179 -3.80369e-19)
(0.0197081 -0.00688172 -2.69394e-19)
(0.042802 -0.0102912 -1.03424e-19)
(0.0712624 -0.0125684 2.00194e-19)
(0.103832 -0.0137559 -4.53392e-19)
(0.13963 -0.0137822 2.34022e-19)
(0.177947 -0.0126379 2.96067e-20)
(0.21823 -0.0103406 2.86304e-20)
(0.260051 -0.00692 -3.11257e-19)
(0.303085 -0.00241799 -1.11085e-19)
(0.347102 0.0031083 -1.95442e-19)
(0.391953 0.00958094 1.88866e-19)
(0.437571 0.0168906 5.36258e-20)
(0.483969 0.0248782 9.21475e-21)
(0.531238 0.0333054 2.51805e-19)
(0.579543 0.0418208 -2.56693e-19)
(0.629125 0.0499489 -1.10349e-20)
(0.680257 0.0570039 5.38071e-21)
(0.7328 0.0615264 3.46832e-20)
(0.78581 0.061177 2.5188e-19)
(0.00649973 -0.00320411 1.22606e-19)
(0.02691 -0.0102102 3.34568e-19)
(0.0547415 -0.014732 2.68613e-19)
(0.0878835 -0.0175512 -9.24152e-20)
(0.125058 -0.0188671 3.20955e-19)
(0.165365 -0.0187155 -2.76388e-20)
(0.208082 -0.017178 -3.86669e-20)
(0.252635 -0.0143505 2.30179e-20)
(0.298578 -0.0103317 3.16307e-19)
(0.345567 -0.00522738 1.85764e-19)
(0.39334 0.000843732 5.4146e-20)
(0.44171 0.0077436 3.35284e-21)
(0.490552 0.0153049 -3.66265e-19)
(0.539797 0.0233169 3.20111e-19)
(0.589412 0.0315056 5.57519e-20)
(0.639392 0.0395186 -9.18507e-20)
(0.689752 0.0469352 -4.039e-19)
(0.740473 0.0532097 -3.53197e-20)
(0.791172 0.0572229 1.63536e-19)
(0.841008 0.0574088 -3.80326e-20)
(0.00926035 -0.00452382 -3.1061e-19)
(0.0349368 -0.0133681 1.3828e-19)
(0.0678853 -0.0188785 -6.75138e-19)
(0.105985 -0.0221151 2.76688e-19)
(0.147946 -0.0234394 -2.22278e-19)
(0.192858 -0.0230003 1.64883e-19)
(0.239979 -0.0209751 -2.56011e-19)
(0.288717 -0.0175408 2.42961e-20)
(0.338602 -0.012866 -1.27124e-20)
(0.389261 -0.00711856 6.89096e-20)
(0.440396 -0.000472295 1.00212e-19)
(0.491774 0.00688657 -1.91857e-19)
(0.543209 0.0147519 1.01685e-19)
(0.594552 0.0228886 9.41263e-20)
(0.645675 0.0310215 4.09998e-19)
(0.696454 0.0388323 -1.79397e-19)
(0.746768 0.0459812 -1.20824e-19)
(0.796457 0.0520574 2.05011e-19)
(0.845066 0.056189 1.12475e-19)
(0.891914 0.0573144 -2.61337e-19)
(0.0123296 -0.00575173 2.73587e-19)
(0.0437626 -0.01625 2.79679e-19)
(0.082186 -0.0225702 8.11092e-20)
(0.125491 -0.0260514 3.41608e-19)
(0.172388 -0.0272208 1.66416e-19)
(0.22196 -0.0263434 -3.04829e-19)
(0.273451 -0.0236938 4.6238e-19)
(0.326249 -0.0195307 -2.29529e-19)
(0.37986 -0.0140907 2.28886e-19)
(0.433882 -0.00759893 2.9666e-19)
(0.487982 -0.00027665 -1.70789e-19)
(0.541884 0.00765318 3.26979e-20)
(0.595353 0.0159606 1.82663e-19)
(0.648182 0.0244031 1.2936e-19)
(0.700175 0.0327208 3.00085e-19)
(0.75114 0.0406393 -1.20861e-19)
(0.800887 0.0478939 -1.48576e-20)
(0.849196 0.0541783 1.94242e-19)
(0.895611 0.0587957 -4.17203e-20)
(0.939593 0.0610383 1.00803e-21)
(0.0156974 -0.00685051 -1.42464e-19)
(0.053354 -0.0187548 -5.51107e-19)
(0.0975836 -0.0256519 1.29906e-19)
(0.146311 -0.0291592 -9.99941e-20)
(0.198261 -0.0299705 -2.29457e-19)
(0.252512 -0.0284678 -1.63077e-19)
(0.308301 -0.0250235 -1.00515e-19)
(0.365001 -0.0199761 2.49389e-19)
(0.422098 -0.0136275 -1.49005e-19)
(0.479163 -0.00625522 -1.53001e-19)
(0.535838 0.00187904 -1.94048e-19)
(0.591813 0.0105241 -3.23115e-20)
(0.646821 0.0194354 -2.24146e-20)
(0.700617 0.0283717 -4.55349e-19)
(0.752972 0.0370928 2.22031e-19)
(0.803662 0.0453653 -2.94387e-19)
(0.85247 0.0529845 9.31218e-20)
(0.899158 0.0597197 -7.14695e-19)
(0.943305 0.0650044 2.16482e-19)
(0.98448 0.0683927 3.30659e-19)
(0.0193516 -0.00778501 -3.48986e-20)
(0.0636706 -0.0207868 2.69056e-19)
(0.114006 -0.0279781 1.77918e-20)
(0.16834 -0.0312516 4.15805e-20)
(0.225421 -0.0314676 -8.48858e-20)
(0.284335 -0.0291247 -1.74545e-21)
(0.344317 -0.0246918 -1.46577e-21)
(0.404731 -0.0185854 -5.072e-20)
(0.46505 -0.0111692 1.85011e-19)
(0.52483 -0.00276867 7.19676e-20)
(0.583694 0.00631936 3.26501e-19)
(0.641316 0.0158212 -9.0189e-20)
(0.697412 0.0254829 6.28452e-20)
(0.751722 0.0350675 -8.1178e-21)
(0.804008 0.0443539 1.76292e-19)
(0.854042 0.0531425 1.08563e-19)
(0.901608 0.061274 2.63339e-19)
(0.946477 0.068572 -4.287e-19)
(0.988276 0.074574 5.43433e-19)
(1.02666 0.0790335 -2.08506e-19)
(0.0232781 -0.00852233 -3.25822e-19)
(0.0746644 -0.0222572 -1.0668e-19)
(0.13137 -0.0294149 8.62661e-20)
(0.191455 -0.0321598 5.45615e-20)
(0.253707 -0.0315168 5.60741e-20)
(0.31723 -0.0281 5.5557e-20)
(0.381265 -0.0224728 -1.42661e-19)
(0.445176 -0.0151271 -5.79195e-20)
(0.508432 -0.00648494 1.91588e-20)
(0.570586 0.00308407 -1.76096e-19)
(0.631256 0.0132521 -7.9606e-20)
(0.690114 0.0237271 4.86789e-19)
(0.746874 0.0342482 -1.26743e-19)
(0.801286 0.044584 -1.75323e-19)
(0.853119 0.0545299 -8.35633e-20)
(0.902161 0.0639138 5.84768e-20)
(0.948219 0.0726103 7.14752e-20)
(0.99109 0.0804837 -3.45161e-19)
(1.03046 0.0871598 5.02451e-19)
(1.06605 0.0925443 -5.25559e-19)
(0.0274603 -0.00903165 -3.6038e-20)
(0.0862796 -0.0230844 1.08376e-20)
(0.149577 -0.0298422 -1.40943e-20)
(0.215517 -0.0317358 2.08906e-19)
(0.282938 -0.0299521 1.16266e-20)
(0.350975 -0.0252186 7.70046e-20)
(0.418886 -0.0181902 -1.63146e-19)
(0.486047 -0.00943123 -5.64192e-21)
(0.551935 0.00058128 2.28511e-19)
(0.61611 0.0114375 3.1744e-20)
(0.678201 0.0227824 -2.01486e-19)
(0.737891 0.0343083 -1.77795e-20)
(0.794915 0.0457505 -1.67276e-19)
(0.84904 0.0568829 1.68331e-19)
(0.900066 0.0675161 2.3486e-19)
(0.947814 0.0775009 -2.60888e-20)
(0.992124 0.0867384 -3.18223e-20)
(1.03283 0.0951254 9.77456e-20)
(1.06969 0.102367 -3.15688e-19)
(1.10248 0.108482 3.35856e-19)
(0.0318789 -0.00928413 3.62906e-20)
(0.0984519 -0.0231942 -2.50813e-19)
(0.168517 -0.0291539 6.87428e-20)
(0.240367 -0.0298537 -2.09223e-19)
(0.312912 -0.0266382 7.34295e-20)
(0.385326 -0.0203449 -2.70248e-19)
(0.456901 -0.0117171 1.09976e-19)
(0.527034 -0.00138745 -3.56971e-20)
(0.595226 0.010116 -1.44959e-21)
(0.661057 0.0223471 3.64103e-20)
(0.72418 0.0349278 -1.33784e-19)
(0.784308 0.0475385 -1.92465e-19)
(0.841207 0.0599126 -3.96485e-20)
(0.894683 0.0718312 -1.79503e-20)
(0.944576 0.0831196 -4.59625e-20)
(0.990753 0.0936494 -1.5059e-20)
(1.0331 0.103344 -4.5357e-20)
(1.0715 0.112129 -3.95396e-20)
(1.10578 0.119781 -1.17952e-19)
(1.13577 0.126404 2.20683e-19)
(0.0365109 -0.00925288 8.71134e-20)
(0.111107 -0.0225202 -1.01975e-19)
(0.188064 -0.0272591 2.19433e-19)
(0.26583 -0.0264102 -9.62909e-20)
(0.343405 -0.0214703 2.5855e-19)
(0.420019 -0.0133827 4.72944e-21)
(0.495007 -0.00297412 1.31151e-19)
(0.567808 0.00905919 -3.61457e-20)
(0.637954 0.0221431 1.49082e-19)
(0.705065 0.0358003 1.05021e-20)
(0.768832 0.049634 3.61054e-19)
(0.829011 0.0633173 -2.51579e-19)
(0.885415 0.0765853 3.42654e-20)
(0.9379 0.0892288 6.59007e-20)
(0.986361 0.101089 3.46801e-19)
(1.03072 0.112058 -1.25588e-19)
(1.07092 0.122081 -2.49758e-20)
(1.1069 0.131111 -1.32441e-19)
(1.13855 0.138992 -1.36801e-20)
(1.16575 0.145884 7.87542e-20)
(0.0413293 -0.00891307 -3.96853e-20)
(0.124162 -0.0210039 1.24809e-19)
(0.208078 -0.0240818 -1.29262e-19)
(0.291715 -0.021325 5.06979e-20)
(0.374177 -0.0143749 -6.24891e-20)
(0.45477 -0.00427407 2.28824e-19)
(0.532889 0.00807304 -3.30512e-20)
(0.608023 0.0219128 7.90922e-20)
(0.679759 0.0366312 -4.79127e-20)
(0.747767 0.051726 -1.67232e-21)
(0.811792 0.0667875 5.51744e-20)
(0.871647 0.0814869 -4.3453e-20)
(0.927204 0.095566 1.13621e-19)
(0.978384 0.108829 -5.72288e-20)
(1.02515 0.121136 -2.53579e-19)
(1.06747 0.132402 2.53858e-19)
(1.10537 0.142593 -1.1476e-19)
(1.13884 0.15169 9.21829e-20)
(1.16784 0.159602 1.59983e-19)
(1.19231 0.166523 7.74701e-20)
(0.0463026 -0.00824227 9.91977e-20)
(0.137521 -0.0185955 -2.18757e-19)
(0.228407 -0.0195622 4.10429e-20)
(0.317813 -0.0145412 -3.0717e-20)
(0.404973 -0.00530819 -1.26187e-19)
(0.489283 0.00700241 -9.90768e-20)
(0.570214 0.0214167 -2.0062e-20)
(0.647328 0.0371315 -1.80728e-19)
(0.720276 0.0535006 -1.15491e-20)
(0.788796 0.0700041 -3.44936e-20)
(0.8527 0.0862271 -9.46275e-20)
(0.911874 0.101846 -2.12116e-20)
(0.96626 0.116614 -7.39868e-20)
(1.01585 0.130354 -1.24752e-19)
(1.06068 0.142952 1.28772e-19)
(1.1008 0.154344 1.765e-20)
(1.13628 0.164522 3.52482e-20)
(1.16719 0.173496 -1.50728e-19)
(1.19356 0.181238 -4.25725e-21)
(1.21537 0.187956 -2.72672e-19)
(0.0513948 -0.00722089 1.05713e-19)
(0.151081 -0.0152549 7.52515e-20)
(0.248882 -0.0136571 -1.23141e-19)
(0.343901 -0.00602545 1.9382e-19)
(0.435522 0.00574324 -2.18793e-20)
(0.523249 0.0204329 7.37548e-20)
(0.606649 0.03701 2.60559e-20)
(0.68537 0.0546316 9.32473e-20)
(0.759146 0.0726288 -7.40803e-20)
(0.827796 0.0904732 2.52504e-20)
(0.891217 0.107753 -2.43564e-20)
(0.949375 0.124158 -1.07662e-20)
(1.00229 0.13946 2.09807e-20)
(1.05005 0.153509 -3.89943e-20)
(1.09275 0.166215 -1.20781e-20)
(1.13053 0.177547 -3.71445e-20)
(1.16352 0.187521 -6.06194e-20)
(1.19186 0.196179 3.95104e-20)
(1.21563 0.203553 -5.36095e-20)
(1.23488 0.209851 2.72046e-19)
(0.0565653 -0.00583271 -5.14755e-20)
(0.164726 -0.0109524 -1.56294e-19)
(0.269325 -0.0063409 -1.99778e-20)
(0.369746 0.00423155 -6.5786e-21)
(0.465545 0.0187634 -7.21213e-20)
(0.556356 0.0359697 -1.2038e-19)
(0.641857 0.0547697 3.99393e-20)
(0.721802 0.0742922 -5.57717e-20)
(0.796021 0.0938569 -6.34713e-20)
(0.864432 0.112938 3.61531e-20)
(0.927026 0.131137 -2.76433e-20)
(0.983861 0.148164 -5.70182e-20)
(1.03506 0.16382 -2.09152e-21)
(1.08077 0.177986 3.96074e-20)
(1.12119 0.190607 -4.07686e-20)
(1.15654 0.201682 5.71109e-20)
(1.187 0.211259 1.56182e-20)
(1.21279 0.219413 3.90993e-20)
(1.23405 0.226232 7.56944e-20)
(1.25087 0.231915 -7.54688e-20)
(0.0617693 -0.00406554 4.81249e-20)
(0.178334 -0.00567025 -3.7623e-21)
(0.289548 0.00239314 2.40587e-20)
(0.395105 0.0162143 -3.20993e-20)
(0.494759 0.0337069 3.37962e-21)
(0.588289 0.0535327 1.15289e-19)
(0.675508 0.0745782 -7.64459e-20)
(0.756286 0.0959583 3.34964e-20)
(0.830572 0.116994 3.03264e-20)
(0.898391 0.137174 -8.54263e-20)
(0.959841 0.156124 8.19198e-20)
(1.01508 0.173586 9.48879e-22)
(1.06433 0.189398 -5.95713e-20)
(1.10784 0.203479 7.26043e-20)
(1.14588 0.215811 -2.90151e-20)
(1.17874 0.226434 2.236e-20)
(1.20669 0.235425 -2.53266e-20)
(1.22999 0.242897 -1.0283e-20)
(1.24885 0.248992 -8.80953e-20)
(1.26339 0.253889 3.12839e-20)
(0.0669581 -0.00191182 -1.53306e-20)
(0.191774 0.000596544 4.56438e-20)
(0.309355 0.012532 7.45323e-21)
(0.419732 0.029882 3.03206e-20)
(0.522878 0.0504993 1.49238e-20)
(0.618741 0.0730105 7.13039e-21)
(0.707281 0.0962869 4.08632e-20)
(0.788507 0.119445 -4.81221e-21)
(0.862496 0.141822 1.89891e-20)
(0.929393 0.162935 3.09758e-20)
(0.989415 0.182446 1.53314e-20)
(1.04283 0.200138 1.12269e-20)
(1.08996 0.215895 4.60315e-20)
(1.13114 0.229681 -4.48725e-20)
(1.16674 0.241524 9.75435e-21)
(1.19711 0.251502 -9.12675e-21)
(1.22259 0.25973 1.43621e-20)
(1.2435 0.266358 1.20816e-20)
(1.26009 0.27158 2.50327e-20)
(1.27253 0.275546 1.18757e-21)
(0.0720799 0.000630793 9.32176e-21)
(0.204909 0.00783896 8.81793e-21)
(0.328544 0.0240422 -1.23692e-20)
(0.443377 0.0451686 7.84346e-21)
(0.549622 0.0690376 4.54886e-21)
(0.647412 0.0942622 -1.4466e-20)
(0.736874 0.119718 4.90256e-21)
(0.81817 0.14454 9.77616e-22)
(0.891516 0.168101 8.85985e-21)
(0.957193 0.189956 -2.44501e-20)
(1.01554 0.209819 -1.43561e-22)
(1.06694 0.227525 7.05459e-21)
(1.11181 0.243012 -5.67072e-21)
(1.1506 0.256295 5.86951e-21)
(1.18374 0.267453 1.54572e-20)
(1.21166 0.276608 -8.82957e-21)
(1.23476 0.283911 2.51633e-21)
(1.2534 0.289552 9.7243e-21)
(1.26788 0.293774 -1.60439e-20)
(1.2784 0.296693 8.99516e-21)
(0.0770808 0.00355898 2.40614e-20)
(0.217602 0.0160333 -1.41963e-20)
(0.346914 0.0368686 1.69507e-20)
(0.465795 0.0619824 -1.28259e-20)
(0.574716 0.0891913 -5.93215e-21)
(0.674017 0.117119 1.86322e-21)
(0.764005 0.144667 -6.14855e-21)
(0.845007 0.17101 2.26261e-20)
(0.917393 0.195569 -1.9441e-20)
(0.981583 0.21796 4.71682e-21)
(1.03804 0.237955 -3.51124e-21)
(1.08728 0.255454 -2.38328e-20)
(1.12981 0.270455 2.34715e-20)
(1.16618 0.283035 9.07248e-21)
(1.19688 0.293324 -9.12403e-21)
(1.22242 0.301491 2.1528e-20)
(1.24326 0.307727 -3.61973e-22)
(1.25979 0.312259 -2.097e-20)
(1.27234 0.315377 1.55249e-20)
(1.28117 0.317162 5.51114e-21)
(0.0819051 0.0068634 -8.65083e-21)
(0.22971 0.0251405 2.51932e-20)
(0.364264 0.0509352 2.97926e-20)
(0.486746 0.0802065 -1.46049e-20)
(0.597902 0.110803 2.55814e-20)
(0.698291 0.141386 4.22197e-20)
(0.788417 0.170906 -2.56569e-21)
(0.868784 0.1986 -8.11089e-21)
(0.939921 0.223955 3.93939e-20)
(1.0024 0.246659 1.98219e-20)
(1.05681 0.266561 -3.83616e-21)
(1.10378 0.283632 3.09995e-20)
(1.14393 0.297941 -3.41478e-20)
(1.17788 0.309627 5.34583e-20)
(1.20622 0.318878 -9.04524e-21)
(1.22949 0.325912 2.59372e-20)
(1.24821 0.330959 4.59706e-21)
(1.2628 0.334284 1.857e-20)
(1.27363 0.33622 -1.78017e-20)
(1.28096 0.33681 4.86046e-21)
(0.086496 0.0105282 -1.26997e-20)
(0.241095 0.0351059 3.05831e-20)
(0.380399 0.0661439 2.28589e-20)
(0.506001 0.0996996 -3.61505e-21)
(0.618934 0.133691 3.87381e-20)
(0.719992 0.166845 -3.15033e-20)
(0.809884 0.198188 -3.16824e-21)
(0.889299 0.227038 2.82747e-20)
(0.958935 0.252971 8.73601e-21)
(1.01951 0.275761 1.36632e-20)
(1.07175 0.295344 -2.09256e-20)