/*--------------------------------*- C++ -*----------------------------------*\
  =========                 |
  \\      /  F ield         | OpenFOAM: The Open Source CFD Toolbox
   \\    /   O peration     | Website:  https://openfoam.org
    \\  /    A nd           | Version:  6.0
     \\/     M anipulation  |
\*---------------------------------------------------------------------------*/
FoamFile
{
    version     2.0;
    format      ascii;
    class       volScalarField;
    location    "4";
    object      p;
}
// * * * * * * * * * * * * * * * * * * * * * * * * * * * * * * * * * * * * * //

dimensions      [0 2 -2 0 0 0 0];

internalField   nonuniform List<scalar> 
62000
(
0.211122
0.213096
0.215233
0.217415
0.219708
0.22207
0.224532
0.227056
0.229671
0.232334
0.235076
0.237852
0.240692
0.243551
0.246457
0.249368
0.252308
0.255237
0.258175
0.261084
0.263977
0.266817
0.269609
0.272313
0.274925
0.2774
0.279722
0.281834
0.283704
0.285267
0.286494
0.287333
0.287751
0.287726
0.287277
0.286482
0.2855
0.284608
0.284221
0.284917
0.287415
0.292505
0.300967
0.313428
0.329952
0.34945
0.369409
0.385845
0.394114
0.389979
0.371492
0.339716
0.298352
0.252752
0.207027
0.164561
0.125038
0.0854683
0.043964
0.109816
0.211421
0.213539
0.215874
0.218242
0.220724
0.223282
0.225947
0.228688
0.231532
0.234446
0.237457
0.240526
0.243678
0.24687
0.250124
0.253396
0.256698
0.259989
0.263275
0.266515
0.269706
0.27281
0.275814
0.27868
0.281386
0.28389
0.286158
0.288142
0.289795
0.291063
0.291902
0.292276
0.292157
0.291536
0.290446
0.288982
0.287326
0.28578
0.28479
0.284968
0.287078
0.291967
0.300499
0.313412
0.330926
0.352188
0.37498
0.395585
0.40947
0.41218
0.401156
0.376554
0.341094
0.299413
0.255125
0.211444
0.167321
0.118575
0.0595216
0.0763044
0.208613
0.210697
0.212962
0.215225
0.217573
0.219976
0.222469
0.225028
0.227685
0.230414
0.233247
0.236154
0.239164
0.242242
0.245413
0.248639
0.251934
0.255258
0.258616
0.261964
0.265296
0.268569
0.271762
0.274834
0.277752
0.280474
0.282956
0.285151
0.287003
0.288456
0.289469
0.290005
0.290041
0.289573
0.288639
0.287334
0.285842
0.284458
0.283618
0.283914
0.286086
0.290955
0.299376
0.312094
0.329369
0.350494
0.373504
0.394999
0.410736
0.416333
0.409003
0.388351
0.356369
0.317073
0.273608
0.228994
0.181894
0.128266
0.0657284
0.0693257
0.204881
0.206995
0.209278
0.21154
0.213861
0.216213
0.218623
0.221072
0.223589
0.226152
0.228792
0.231487
0.23427
0.237113
0.240045
0.243037
0.246109
0.249231
0.252409
0.255611
0.258831
0.26203
0.26519
0.268269
0.271234
0.274042
0.27665
0.279007
0.281056
0.282742
0.284019
0.284855
0.285229
0.285138
0.284619
0.283764
0.282741
0.28183
0.281434
0.2821
0.284515
0.289428
0.297646
0.309873
0.326361
0.3465
0.368553
0.389445
0.405285
0.4119
0.406465
0.388231
0.35863
0.321113
0.278438
0.23347
0.18493
0.129516
0.0682508
0.0601787
0.201899
0.203959
0.206175
0.208356
0.210584
0.212833
0.215127
0.217447
0.219819
0.222222
0.224685
0.227185
0.229754
0.232368
0.235057
0.237797
0.240611
0.243476
0.246403
0.249367
0.252368
0.255374
0.258372
0.261327
0.264209
0.26698
0.269599
0.272019
0.274185
0.276041
0.277546
0.278666
0.279385
0.279699
0.279643
0.279299
0.278822
0.278465
0.278593
0.2797
0.282406
0.287376
0.295348
0.306973
0.32247
0.341298
0.361922
0.381566
0.396703
0.403415
0.398934
0.382288
0.354469
0.318454
0.276659
0.231847
0.182945
0.127607
0.0687867
0.0512299
0.19825
0.200274
0.202456
0.204603
0.206793
0.208998
0.211237
0.213494
0.215788
0.2181
0.220456
0.222834
0.225262
0.227719
0.230232
0.23278
0.235386
0.238031
0.24073
0.243464
0.246236
0.249025
0.251822
0.2546
0.257337
0.26
0.262555
0.264962
0.26717
0.269128
0.270797
0.272148
0.273165
0.273847
0.274223
0.274368
0.274421
0.274606
0.275249
0.276789
0.279776
0.284787
0.292491
0.303477
0.317923
0.335338
0.354362
0.372492
0.386546
0.392875
0.388826
0.373284
0.346903
0.312227
0.271411
0.22712
0.178602
0.124338
0.0679998
0.0422714
0.195154
0.197093
0.199183
0.201232
0.203319
0.205419
0.207551
0.209697
0.211878
0.214074
0.216307
0.218558
0.22085
0.223164
0.225522
0.227906
0.230338
0.2328
0.235306
0.237842
0.240412
0.243001
0.245604
0.248201
0.250776
0.253305
0.255761
0.258111
0.26031
0.262316
0.264091
0.265614
0.26687
0.26786
0.268611
0.269188
0.269715
0.270391
0.271502
0.273435
0.27667
0.281704
0.289132
0.299487
0.312902
0.328926
0.346345
0.362905
0.375739
0.381464
0.377564
0.362837
0.33767
0.304245
0.264472
0.220951
0.173241
0.120574
0.0665859
0.0334912
0.191606
0.193472
0.195495
0.197476
0.199496
0.201527
0.203587
0.205659
0.207759
0.209872
0.212014
0.21417
0.216358
0.218562
0.220802
0.22306
0.225355
0.227672
0.230023
0.232396
0.234799
0.237217
0.239651
0.242084
0.244507
0.246901
0.249247
0.25152
0.253682
0.255697
0.257537
0.25918
0.260619
0.261857
0.262917
0.263859
0.264791
0.265888
0.2674
0.269667
0.273105
0.278133
0.285284
0.295031
0.307469
0.322174
0.338065
0.353096
0.364695
0.369729
0.365827
0.351741
0.327644
0.295385
0.256689
0.214079
0.167446
0.116578
0.0647165
0.0246498
0.188454
0.190228
0.192151
0.194028
0.195941
0.197862
0.199811
0.201772
0.20376
0.20576
0.207789
0.209831
0.211903
0.21399
0.216108
0.218244
0.220412
0.2226
0.224816
0.227052
0.229312
0.231586
0.233875
0.236166
0.238453
0.240724
0.242964
0.245154
0.247266
0.24927
0.25114
0.252865
0.254441
0.255871
0.257181
0.258422
0.25969
0.26114
0.262988
0.26553
0.269127
0.274128
0.281005
0.290185
0.30172
0.315213
0.329687
0.343296
0.353715
0.358052
0.354078
0.340522
0.317385
0.286239
0.248622
0.207004
0.161551
0.112563
0.0628529
0.0159002
0.184981
0.186667
0.188506
0.1903
0.192131
0.193971
0.195836
0.197711
0.199612
0.201523
0.20346
0.205406
0.20738
0.209367
0.211381
0.21341
0.215466
0.21754
0.219639
0.221754
0.223891
0.226041
0.228204
0.230372
0.232541
0.234701
0.236843
0.238954
0.24101
0.242988
0.24487
0.246648
0.248322
0.2499
0.251405
0.252885
0.254425
0.256159
0.258277
0.261035
0.264745
0.269695
0.276301
0.284948
0.295652
0.308036
0.321214
0.333514
0.342827
0.346495
0.342414
0.329312
0.307051
0.276946
0.240392
0.199786
0.155572
0.108445
0.0610112
0.00695636
0.181775
0.18337
0.185109
0.186801
0.188524
0.190255
0.192009
0.193774
0.195563
0.197362
0.199186
0.201021
0.202883
0.204758
0.20666
0.208577
0.210522
0.212484
0.21447
0.216474
0.218498
0.220535
0.222587
0.224646
0.226708
0.228769
0.230822
0.232857
0.234857
0.236803
0.238681
0.240489
0.242232
0.243919
0.245576
0.247244
0.249
0.250962
0.253294
0.256219
0.260005
0.264887
0.271233
0.279387
0.289334
0.300718
0.312723
0.323844
0.332145
0.335191
0.330996
0.318299
0.296843
0.267731
0.232207
0.192616
0.149617
0.104315
0.0596023
-0.00202062
0.17832
0.179818
0.181466
0.183067
0.184701
0.186345
0.18801
0.189686
0.191383
0.193091
0.19482
0.196559
0.198322
0.200097
0.201897
0.203712
0.205552
0.207409
0.209289
0.211187
0.213105
0.215038
0.216986
0.218945
0.22091
0.22288
0.22485
0.226813
0.228757
0.230664
0.23253
0.234352
0.236139
0.237905
0.239675
0.241487
0.243408
0.245546
0.248039
0.251082
0.254908
0.259703
0.265791
0.273484
0.282738
0.293213
0.304157
0.314205
0.321582
0.324054
0.319745
0.307409
0.286696
0.258509
0.223974
0.185365
0.14356
0.0999916
0.0582182
-0.0113417
0.175027
0.176435
0.177986
0.179487
0.181016
0.182553
0.184109
0.185676
0.187264
0.188861
0.19048
0.19211
0.193764
0.19543
0.197121
0.198828
0.20056
0.202311
0.204085
0.205879
0.207695
0.209527
0.211376
0.213239
0.215113
0.216997
0.218887
0.220781
0.222667
0.224536
0.226378
0.2282
0.230013
0.231833
0.233684
0.235603
0.237651
0.239921
0.242535
0.245661
0.249498
0.254197
0.260037
0.267304
0.275927
0.285585
0.295572
0.304666
0.311207
0.313159
0.308747
0.296744
0.276722
0.249415
0.215826
0.178167
0.137482
0.0955362
0.0565418
-0.0208239
0.171531
0.172839
0.174294
0.175701
0.177138
0.178584
0.180049
0.181524
0.183019
0.184523
0.186047
0.18758
0.189135
0.190701
0.192291
0.193896
0.195525
0.197173
0.198844
0.200536
0.202251
0.203984
0.205737
0.207507
0.209292
0.211092
0.212906
0.21473
0.216559
0.21838
0.220196
0.222005
0.223829
0.225681
0.227588
0.229582
0.231718
0.234082
0.236776
0.239947
0.243768
0.248355
0.253952
0.260816
0.268859
0.277771
0.286892
0.29512
0.300898
0.302375
0.297867
0.286167
0.266785
0.240292
0.207598
0.170837
0.131215
0.0907268
0.0540219
-0.0307973
0.168104
0.169326
0.170688
0.171998
0.173334
0.174677
0.176037
0.177406
0.178794
0.180191
0.181607
0.183033
0.18448
0.185941
0.187423
0.188922
0.190446
0.191989
0.193557
0.195147
0.196761
0.198396
0.200054
0.201732
0.203429
0.205146
0.206882
0.208638
0.210405
0.21218
0.213956
0.215746
0.217565
0.219432
0.221372
0.223415
0.225613
0.228039
0.230785
0.233976
0.237763
0.242232
0.247596
0.254086
0.261599
0.269839
0.278179
0.285636
0.290726
0.291778
0.287187
0.275771
0.256987
0.23127
0.199424
0.163515
0.124862
0.0856672
0.0508144
-0.0410537
0.164503
0.165625
0.166889
0.168104
0.169346
0.170597
0.171865
0.173143
0.174438
0.175742
0.177063
0.178393
0.179742
0.181103
0.182485
0.183883
0.185304
0.186745
0.188211
0.1897
0.191214
0.192752
0.194314
0.1959
0.197509
0.199143
0.200801
0.202485
0.20419
0.205908
0.207646
0.209405
0.211209
0.213074
0.215027
0.217096
0.219326
0.221785
0.224551
0.227735
0.231467
0.235807
0.240939
0.247074
0.254093
0.261716
0.269344
0.276099
0.280564
0.281226
0.276559
0.265404
0.247174
0.222173
0.19112
0.156003
0.118243
0.0801494
0.0467042
-0.0519256
0.16091
0.161947
0.163121
0.164241
0.165385
0.166536
0.167701
0.168876
0.170066
0.171266
0.172481
0.173707
0.174951
0.176208
0.177485
0.178779
0.180097
0.181436
0.182798
0.184187
0.185601
0.187041
0.188509
0.190002
0.191522
0.193071
0.19465
0.19626
0.197898
0.199562
0.201246
0.202969
0.204746
0.206596
0.208545
0.21062
0.212861
0.215333
0.218099
0.221258
0.224922
0.229132
0.234041
0.239846
0.246412
0.253478
0.260462
0.266592
0.270493
0.270808
0.266079
0.255174
0.237464
0.213146
0.18284
0.148461
0.111493
0.0743243
0.0419462
-0.0631639
0.15716
0.158095
0.159171
0.160196
0.161246
0.162305
0.163379
0.164463
0.165561
0.166668
0.167789
0.16892
0.170067
0.171226
0.172403
0.173596
0.174812
0.17605
0.177311
0.178599
0.179914
0.181256
0.182628
0.184029
0.185459
0.186922
0.188419
0.189953
0.191522
0.19312
0.194755
0.196429
0.198168
0.199989
0.201918
0.20398
0.206212
0.208671
0.211415
0.214527
0.218107
0.222177
0.226865
0.232352
0.238494
0.245042
0.251437
0.256994
0.260383
0.260378
0.255592
0.244917
0.227688
0.203998
0.174385
0.140679
0.104416
0.0679809
0.0363119
-0.0751008
0.153361
0.154217
0.155207
0.156143
0.157099
0.158063
0.159037
0.160021
0.161017
0.162022
0.16304
0.164068
0.165111
0.166167
0.167241
0.168333
0.169446
0.170582
0.171742
0.17293
0.174145
0.17539
0.176666
0.177973
0.179312
0.180687
0.182101
0.183556
0.185051
0.186585
0.188153
0.189774
0.191464
0.193245
0.195141
0.197175
0.199383
0.201816
0.204522
0.207576
0.211065
0.214995
0.219472
0.224661
0.230413
0.236489
0.242352
0.247395
0.250324
0.250036
0.245208
0.234755
0.217982
0.19489
0.165925
0.132839
0.0971764
0.0613076
0.030076
-0.0874523
0.149515
0.150263
0.151148
0.151979
0.152833
0.153697
0.154571
0.155457
0.156355
0.157264
0.158183
0.159113
0.160057
0.161014
0.161987
0.162978
0.16399
0.165026
0.166084
0.167172
0.168288
0.169435
0.170614
0.171826
0.173073
0.174359
0.175687
0.177059
0.178477
0.179933
0.181439
0.182995
0.184628
0.186358
0.188208
0.190199
0.192365
0.194753
0.197403
0.200382
0.203767
0.207549
0.211814
0.216715
0.222098
0.227734
0.233105
0.237674
0.240185
0.239636
0.23477
0.224522
0.208171
0.185627
0.157258
0.124723
0.0895718
0.0540918
0.0229947
-0.100554
0.145538
0.146198
0.146989
0.147724
0.14848
0.149244
0.150018
0.150803
0.1516
0.152407
0.153226
0.154056
0.1549
0.155758
0.156631
0.157523
0.158434
0.159371
0.160329
0.161318
0.162334
0.163382
0.164464
0.16558
0.166733
0.167926
0.169165
0.170452
0.171785
0.173169
0.174595
0.176084
0.177652
0.179321
0.181115
0.183053
0.185165
0.187497
0.190083
0.192979
0.196255
0.199892
0.203955
0.208585
0.213627
0.218861
0.223787
0.227931
0.230068
0.229292
0.224403
0.214357
0.198408
0.176385
0.148571
0.116532
0.0817897
0.0465521
0.0153626
-0.114092
0.141288
0.141871
0.142585
0.143242
0.143918
0.144603
0.145293
0.145995
0.146704
0.147424
0.148151
0.148888
0.149636
0.150398
0.151173
0.151966
0.152777
0.153614
0.154471
0.15536
0.156275
0.157224
0.158206
0.159225
0.160281
0.161381
0.162527
0.163725
0.164974
0.16627
0.167624
0.169035
0.170531
0.172129
0.173857
0.175728
0.177774
0.180035
0.18254
0.18534
0.188497
0.19198
0.19584
0.200207
0.204924
0.209779
0.214291
0.218041
0.219837
0.218851
0.213943
0.204084
0.188506
0.166959
0.139647
0.108035
0.0736135
0.0384596
0.00692165
-0.128413
0.136979
0.137473
0.138099
0.138668
0.139256
0.139852
0.140454
0.141067
0.141687
0.142317
0.142952
0.143598
0.144252
0.14492
0.145598
0.146294
0.147007
0.147744
0.148502
0.149289
0.150104
0.150952
0.151834
0.152753
0.153711
0.154714
0.155766
0.156872
0.158031
0.159246
0.160509
0.16184
0.163256
0.164778
0.16643
0.168228
0.170199
0.172382
0.174799
0.177499
0.180535
0.18387
0.187535
0.191655
0.196069
0.200578
0.204714
0.208113
0.209604
0.208439
0.203525
0.193852
0.178631
0.157538
0.130689
0.0994508
0.0652518
0.030059
-0.00201716
-0.143179
0.132609
0.133013
0.133547
0.134025
0.13452
0.135025
0.135533
0.136054
0.13658
0.137116
0.137656
0.138207
0.138763
0.139334
0.139913
0.14051
0.141122
0.141759
0.142414
0.1431
0.143812
0.144559
0.145339
0.146158
0.147016
0.147921
0.148876
0.149887
0.150954
0.152072
0.153253
0.154495
0.155825
0.157262
0.158831
0.160544
0.162428
0.164521
0.166839
0.169426
0.172332
0.175511
0.17898
0.182857
0.186981
0.191161
0.194945
0.198015
0.199228
0.197897
0.192982
0.183483
0.168591
0.147909
0.121473
0.090541
0.0564788
0.0211122
-0.011728
-0.158746
0.128173
0.128483
0.128921
0.129302
0.1297
0.130107
0.130517
0.13094
0.131367
0.131806
0.132247
0.132699
0.133156
0.133628
0.134107
0.134604
0.135114
0.135649
0.136202
0.136786
0.137395
0.138039
0.138717
0.139433
0.14019
0.140994
0.141849
0.142762
0.14373
0.14476
0.145841
0.146993
0.148232
0.149578
0.151057
0.15268
0.154472
0.156469
0.158684
0.161156
0.163932
0.16696
0.170242
0.17389
0.177744
0.181624
0.185087
0.187867
0.188833
0.187365
0.182461
0.173138
0.158565
0.138276
0.112218
0.0815394
0.0475237
0.0118866
-0.0218833
-0.174756
0.123627
0.123843
0.124187
0.124473
0.124775
0.125086
0.125398
0.125724
0.126053
0.126392
0.126733
0.127084
0.127439
0.127809
0.128184
0.128577
0.128983
0.129415
0.129862
0.130342
0.130847
0.131387
0.13196
0.132573
0.133226
0.133927
0.134681
0.135492
0.136363
0.137289
0.13828
0.139332
0.140474
0.141723
0.143104
0.144628
0.146317
0.148208
0.150308
0.152656
0.155294
0.158164
0.161257
0.164678
0.168271
0.171863
0.175025
0.177532
0.17827
0.176677
0.171787
0.162629
0.148349
0.128413
0.102685
0.0721954
0.0381441
0.00212358
-0.0327709
-0.191578
0.118943
0.119067
0.119316
0.119507
0.119711
0.119925
0.120139
0.120367
0.120596
0.120836
0.121077
0.121328
0.121582
0.121851
0.122124
0.122415
0.122717
0.123045
0.123388
0.123763
0.124162
0.124597
0.125065
0.125573
0.12612
0.126717
0.127366
0.128073
0.12884
0.129671
0.130553
0.131507
0.132546
0.133692
0.134971
0.13639
0.137974
0.139755
0.141739
0.143961
0.146463
0.149181
0.152092
0.155301
0.158651
0.16198
0.164867
0.167132
0.167672
0.165976
0.161115
0.152125
0.138132
0.118536
0.093104
0.0627551
0.0285867
-0.00788971
-0.0440503
-0.208835
0.114127
0.114159
0.114315
0.114412
0.11452
0.11464
0.114757
0.114888
0.115018
0.11516
0.115299
0.11545
0.115601
0.115766
0.115934
0.11612
0.116317
0.116539
0.116776
0.117045
0.117337
0.117666
0.118027
0.118428
0.118869
0.119358
0.119901
0.120502
0.121164
0.121883
0.122668
0.123512
0.124445
0.125483
0.126653
0.127961
0.129429
0.131092
0.13295
0.135037
0.137394
0.139954
0.142681
0.145678
0.14879
0.151865
0.154493
0.156529
0.156885
0.155096
0.150265
0.141434
0.127705
0.108412
0.0832317
0.0529608
0.0185994
-0.0184238
-0.0560248
-0.22691
0.109151
0.10909
0.109152
0.109153
0.109166
0.109188
0.109207
0.10924
0.109272
0.109316
0.109355
0.109407
0.109457
0.109522
0.109589
0.109673
0.109766
0.109885
0.110016
0.110179
0.110365
0.110587
0.11084
0.111133
0.111465
0.111846
0.112279
0.112771
0.113322
0.113939
0.114607
0.115345
0.116167
0.117093
0.11815
0.119342
0.120693
0.122235
0.123966
0.12592
0.128135
0.130541
0.133093
0.13589
0.13878
0.141623
0.144014
0.145852
0.146049
0.14419
0.139403
0.130737
0.117268
0.0982666
0.0733108
0.0430728
0.00844654
-0.0291723
-0.0683404
-0.245408
0.104017
0.103865
0.103835
0.103744
0.103662
0.103591
0.103515
0.103453
0.103388
0.103334
0.103275
0.103226
0.103175
0.103137
0.1031
0.10308
0.103067
0.10308
0.103105
0.103162
0.10324
0.103353
0.103497
0.103681
0.103903
0.104173
0.104495
0.104876
0.105318
0.105817
0.106382
0.107003
0.10771
0.108519
0.109457
0.110527
0.111752
0.113164
0.11476
0.116571
0.118637
0.120884
0.123256
0.125853
0.128525
0.131142
0.133307
0.134956
0.135005
0.133081
0.12834
0.11983
0.106603
0.0878593
0.0630854
0.0328213
-0.0021399
-0.0404277
-0.0813128
-0.264725
0.0986887
0.0984462
0.0983257
0.0981422
0.0979671
0.0978026
0.0976315
0.097475
0.0973138
0.0971649
0.0970085
0.0968635
0.0967137
0.0965783
0.0964404
0.0963203
0.0962048
0.0961145
0.0960339
0.0959843
0.0959547
0.0959597
0.0959941
0.0960674
0.0961783
0.0963366
0.0965468
0.0968147
0.0971421
0.0975347
0.0979756
0.0984833
0.0990703
0.0997583
0.100574
0.101519
0.102616
0.103898
0.105359
0.107029
0.108949
0.111042
0.113243
0.11565
0.118118
0.120528
0.122489
0.123974
0.123898
0.12193
0.117249
0.108902
0.0959159
0.0774229
0.0528075
0.0224771
-0.0128824
-0.0518672
-0.0945791
-0.284453
0.0932122
0.0928801
0.092669
0.0923944
0.0921273
0.0918708
0.0916064
0.0913564
0.0911
0.090855
0.0906007
0.0903568
0.0901061
0.0898692
0.089628
0.0894042
0.0891834
0.088988
0.0888005
0.088644
0.0885061
0.0884023
0.0883267
0.0882894
0.0882887
0.0883343
0.0884309
0.0885842
0.0887976
0.089066
0.089398
0.0897812
0.0902459
0.0908087
0.0914962
0.09231
0.0932721
0.0944155
0.095732
0.0972524
0.0990187
0.100952
0.102977
0.105194
0.107459
0.109666
0.11143
0.112758
0.112565
0.110557
0.105937
0.0977457
0.0849827
0.0667113
0.0422155
0.0117646
-0.024058
-0.0637956
-0.10847
-0.305
0.0875518
0.0871293
0.0868271
0.08646
0.086099
0.085749
0.0853893
0.0850447
0.0846925
0.0843526
0.0840017
0.0836618
0.0833136
0.0829791
0.0826384
0.0823144
0.0819914
0.0816927
0.0814
0.0811371
0.0808912
0.0806784
0.0804925
0.0803438
0.0802303
0.0801618
0.080143
0.0801793
0.0802728
0.0804294
0.0806314
0.0808948
0.0812331
0.0816669
0.0822237
0.0829039
0.0837296
0.0847344
0.0859075
0.0872805
0.0888967
0.0906751
0.092532
0.0945683
0.0966445
0.0986654
0.100251
0.101445
0.101158
0.09913
0.0945856
0.0865597
0.0740223
0.0559681
0.0315731
0.000966795
-0.0353736
-0.0758738
-0.122612
-0.325943
0.0817374
0.0812257
0.0808333
0.0803754
0.0799229
0.0794815
0.0790291
0.0785916
0.0781447
0.0777093
0.077261
0.0768226
0.0763737
0.0759378
0.0754938
0.075066
0.0746375
0.0742333
0.0738334
0.0734631
0.0731083
0.0727859
0.0724889
0.0722277
0.0720002
0.0718161
0.0716802
0.071598
0.0715731
0.0716015
0.071689
0.071822
0.0720307
0.0723315
0.0727522
0.0732924
0.0739744
0.0748323
0.0758536
0.077071
0.0785294
0.0801465
0.0818301
0.0836829
0.0855695
0.0874066
0.088818
0.0898851
0.0895068
0.0874628
0.0829932
0.0751267
0.0627994
0.0449376
0.0206087
-0.0102022
-0.0471212
-0.0884283
-0.137346
-0.347708
0.0757192
0.0751191
0.0746377
0.0740898
0.0735457
0.0730129
0.0724672
0.0719371
0.0713962
0.0708676
0.0703241
0.0697909
0.0692454
0.0687127
0.0681697
0.067642
0.0671112
0.0666035
0.0660978
0.0656204
0.0651564
0.0647237
0.0643144
0.0639397
0.0635967
0.063296
0.0630414
0.0628387
0.0626901
0.0626017
0.0625527
0.0625596
0.0626342
0.0627986
0.063081
0.0634797
0.0640172
0.0647285
0.0655993
0.0666631
0.0679674
0.0694286
0.0709462
0.072625
0.0743339
0.0760024
0.0772575
0.0782165
0.0777689
0.0757269
0.0713477
0.0636511
0.0515395
0.0338696
0.00959332
-0.0214514
-0.0589968
-0.101107
-0.152295
-0.369856
0.0695732
0.0688847
0.0683138
0.0676758
0.0670406
0.0664168
0.0657788
0.065156
0.0645205
0.0638961
0.0632548
0.0626226
0.0619756
0.0613408
0.0606933
0.0600608
0.0594233
0.0588089
0.0581948
0.0576085
0.0570341
0.0564899
0.0559674
0.055478
0.0550187
0.0545995
0.0542243
0.053899
0.0536272
0.0534036
0.0532348
0.053104
0.0530426
0.0530672
0.0532061
0.0534569
0.0538426
0.0543992
0.0551109
0.0560128
0.0571549
0.0584533
0.059799
0.0612997
0.0628291
0.0643293
0.0654308
0.0662851
0.065771
0.063733
0.0594438
0.0519117
0.0400033
0.0225039
-0.00174869
-0.0330716
-0.0712999
-0.11425
-0.167813
-0.392828
0.0632375
0.06246
0.0617991
0.0610697
0.0603413
0.0596244
0.0588912
0.058174
0.0574427
0.0567236
0.0559857
0.0552575
0.0545128
0.0537801
0.0530328
0.0522992
0.0515584
0.0508392
0.050118
0.049423
0.0487378
0.0480813
0.0474446
0.0468392
0.0462617
0.045722
0.0452242
0.0447734
0.0443724
0.0440272
0.0437163
0.0434537
0.0432526
0.0431339
0.0431272
0.0432289
0.0434623
0.0438646
0.0444184
0.0451606
0.0461443
0.0472848
0.0484655
0.0497968
0.0511573
0.0525034
0.0534667
0.0542364
0.0536763
0.0516613
0.0474781
0.0401226
0.0284257
0.0111002
-0.0131365
-0.0447606
-0.0837126
-0.12749
-0.183515
-0.416172
0.0567598
0.0558936
0.055143
0.0543229
0.0535028
0.0526942
0.0518679
0.051057
0.0502302
0.0494143
0.0485775
0.0477489
0.0469016
0.0460654
0.0452124
0.0443727
0.043524
0.0426968
0.0418658
0.0410604
0.0402631
0.0394932
0.0387412
0.0380185
0.0373213
0.0366596
0.0360373
0.0354602
0.0349318
0.034448
0.0340127
0.0336074
0.0332638
0.0329981
0.0328404
0.0327863
0.0328598
0.0330995
0.0334867
0.0340605
0.0348773
0.0358526
0.0368616
0.0380183
0.0392069
0.0403974
0.0412237
0.0419103
0.0413054
0.0393142
0.0352368
0.0280532
0.0165584
-0.000610435
-0.0248538
-0.0568171
-0.0965469
-0.141188
-0.199766
-0.440341
0.0500565
0.0491028
0.0482636
0.0473535
0.0464415
0.0455409
0.0446204
0.043716
0.0427941
0.0418839
0.0409509
0.0400266
0.0390817
0.0381476
0.0371946
0.0362536
0.0353012
0.0343686
0.0334298
0.0325147
0.0316056
0.0307219
0.0298538
0.029013
0.0281952
0.0274109
0.0266635
0.0259582
0.0252979
0.0246886
0.0241052
0.0235626
0.0230721
0.0226563
0.0223456
0.0221345
0.0220476
0.0221249
0.0223467
0.0227541
0.0234074
0.0242222
0.0250661
0.0260561
0.0270822
0.02813
0.0288342
0.0294552
0.0288259
0.0268759
0.0229202
0.0159225
0.00464083
-0.0123633
-0.036615
-0.068933
-0.109477
-0.154969
-0.21618
-0.464874
0.0432021
0.0421601
0.0412316
0.0402312
0.0392281
0.0382363
0.0372234
0.0362258
0.0352091
0.0342025
0.0331712
0.0321468
0.0310997
0.0300623
0.0290041
0.0279572
0.0268973
0.025857
0.0248087
0.0237835
0.0227622
0.0217649
0.0207808
0.0198219
0.0188835
0.0179758
0.0171019
0.0162675
0.0154761
0.0147221
0.0140096
0.0133172
0.0126778
0.012108
0.0116388
0.0112637
0.0110083
0.0109146
0.0109616
0.0111935
0.0116744
0.0123208
0.0129921
0.0138094
0.0146682
0.0155711
0.0161522
0.0167077
0.0160539
0.0141458
0.0103115
0.0034968
-0.00757916
-0.0244305
-0.0487067
-0.0814092
-0.122819
-0.169205
-0.233133
-0.490237
0.036106
0.0349756
0.0339581
0.0328676
0.0317729
0.0306897
0.0295836
0.0284937
0.0273832
0.0262839
0.0251575
0.0240389
0.0228954
0.0217618
0.0206049
0.0194583
0.0182964
0.0171524
0.0159979
0.0148644
0.0137323
0.012622
0.0115222
0.0104449
0.00938516
0.00835272
0.00735109
0.00638485
0.00545668
0.00457257
0.00370636
0.00287064
0.00207832
0.00135076
0.000720298
0.000179522
-0.000244998
-0.000509784
-0.000636618
-0.000578574
-0.000266989
0.0002154
0.000720086
0.00137176
0.00207155
0.00284132
0.00331361
0.00382225
0.00316382
0.00131658
-0.00237993
-0.00899653
-0.0198532
-0.0365391
-0.0608346
-0.0939281
-0.136235
-0.18351
-0.250239
-0.515961
0.0288138
0.0275971
0.0264934
0.0253169
0.0241359
0.0229669
0.0217732
0.020595
0.0193941
0.0182022
0.0169805
0.0157645
0.0145214
0.0132873
0.012028
0.0107788
0.00951236
0.00826368
0.00700217
0.00576046
0.00451765
0.00329436
0.00207863
0.000882363
-0.000299828
-0.00145821
-0.00258943
-0.00368845
-0.00475189
-0.00578483
-0.00678553
-0.00777746
-0.00872643
-0.00961639
-0.0104144
-0.0111283
-0.0117307
-0.0121759
-0.0124865
-0.0126119
-0.0124794
-0.0121691
-0.0118394
-0.0113599
-0.0108262
-0.010192
-0.00983159
-0.00937027
-0.0100351
-0.011821
-0.0153801
-0.0217998
-0.032442
-0.0489688
-0.0732917
-0.106796
-0.15005
-0.198273
-0.26788
-0.542523
0.0212997
0.0199944
0.0188064
0.0175448
0.0162773
0.0150209
0.0137398
0.0124737
0.0111819
0.00989889
0.00858411
0.00727571
0.00593856
0.00461066
0.00325533
0.001909
0.00054254
-0.000808107
-0.00217478
-0.00352417
-0.00487786
-0.00621475
-0.00754751
-0.00886387
-0.0101698
-0.0114552
-0.0127174
-0.0139519
-0.0151562
-0.0163246
-0.0174871
-0.0186292
-0.0197401
-0.0207964
-0.0217646
-0.0226538
-0.023435
-0.0240612
-0.0245548
-0.0248632
-0.0249063
-0.0247656
-0.0246029
-0.0242921
-0.0239147
-0.0234087
-0.0231403
-0.0227148
-0.0233642
-0.0250706
-0.0284754
-0.0346824
-0.0450934
-0.0614438
-0.0857807
-0.119691
-0.163916
-0.213105
-0.285675
-0.569443
0.0138728
0.0124694
0.0111804
0.00981434
0.00844138
0.00707839
0.00569039
0.0043168
0.00291751
0.00152651
0.000102732
-0.00131455
-0.00276129
-0.00419753
-0.00566179
-0.00711579
-0.00859085
-0.0100493
-0.0115256
-0.0129853
-0.0144518
-0.0159036
-0.0173545
-0.0187921
-0.0202229
-0.0216373
-0.023033
-0.024405
-0.0257505
-0.0270763
-0.0283795
-0.029687
-0.0309627
-0.0321902
-0.0333355
-0.034408
-0.0353777
-0.0361945
-0.0368824
-0.0373834
-0.0376138
-0.03765
-0.0376644
-0.0375275
-0.037319
-0.0369404
-0.0367722
-0.0363809
-0.0370179
-0.0386452
-0.041895
-0.0478899
-0.0580711
-0.0742464
-0.0985959
-0.13292
-0.17816
-0.228406
-0.304016
-0.597205
0.00580219
0.00433446
0.00298183
0.00155279
0.000114575
-0.00131423
-0.00277175
-0.00421655
-0.00569118
-0.00715997
-0.00866501
-0.0101665
-0.0117004
-0.0132271
-0.0147848
-0.016336
-0.0179111
-0.0194731
-0.0210559
-0.0226255
-0.0242048
-0.0257726
-0.027343
-0.0289036
-0.0304615
-0.0320075
-0.0335391
-0.0350526
-0.036546
-0.0380136
-0.0394861
-0.0409513
-0.0423965
-0.0437998
-0.0451256
-0.046384
-0.0475437
-0.0485525
-0.0494344
-0.0501284
-0.0505429
-0.0507549
-0.0509366
-0.0509739
-0.0509219
-0.0506684
-0.0505732
-0.0502097
-0.0508125
-0.0523393
-0.055417
-0.0611831
-0.0711152
-0.0870937
-0.111433
-0.146154
-0.192421
-0.243777
-0.322521
-0.625317
-0.00205068
-0.0036155
-0.00506716
-0.00659718
-0.00813686
-0.00966658
-0.0112251
-0.0127702
-0.0143453
-0.0159146
-0.017522
-0.0191261
-0.0207646
-0.0223958
-0.0240599
-0.0257173
-0.0274006
-0.0290709
-0.0307642
-0.0324457
-0.0341396
-0.0358248
-0.0375158
-0.0392012
-0.0408882
-0.0425678
-0.044238
-0.0458944
-0.0475344
-0.0491646
-0.0507844
-0.0524224
-0.0540417
-0.0556267
-0.0571402
-0.0585941
-0.0599535
-0.0611664
-0.0622525
-0.0631527
-0.0637606
-0.0641612
-0.0645181
-0.0647428
-0.0648499
-0.064731
-0.0647046
-0.0643832
-0.0649491
-0.0663755
-0.0692797
-0.0748164
-0.0844976
-0.100275
-0.124592
-0.1597
-0.207027
-0.259627
-0.34159
-0.654271
-0.0105076
-0.0121386
-0.0136556
-0.01525
-0.0168563
-0.0184525
-0.0200809
-0.0216963
-0.0233455
-0.02499
-0.0266757
-0.0283602
-0.0300821
-0.0318
-0.0335542
-0.0353061
-0.0370874
-0.0388601
-0.0406596
-0.0424514
-0.0442592
-0.0460622
-0.0478751
-0.0496864
-0.0515039
-0.0533185
-0.0551285
-0.0569306
-0.058723
-0.0605008
-0.0622986
-0.0641019
-0.0659014
-0.0676723
-0.0693781
-0.0710293
-0.0725923
-0.0740086
-0.0753025
-0.0764062
-0.0772095
-0.077794
-0.0783277
-0.0787338
-0.0789888
-0.0789959
-0.0790136
-0.0787296
-0.0792396
-0.080544
-0.0832579
-0.0885475
-0.0979565
-0.113505
-0.137769
-0.173228
-0.221608
-0.275556
-0.360848
-0.683565
-0.0186924
-0.020424
-0.022044
-0.0237438
-0.025456
-0.0271574
-0.0288908
-0.0306102
-0.0323628
-0.0341102
-0.0359001
-0.0376885
-0.0395159
-0.0413385
-0.0431991
-0.045057
-0.0469462
-0.048827
-0.0507368
-0.0526408
-0.0545638
-0.0564852
-0.0584206
-0.0603586
-0.0623074
-0.0642584
-0.0662107
-0.0681601
-0.070105
-0.072054
-0.0740054
-0.0759916
-0.0779747
-0.0799379
-0.0818444
-0.0837031
-0.0854809
-0.0871127
-0.0886269
-0.0899463
-0.090958
-0.0917376
-0.0924615
-0.0930579
-0.0934681
-0.0936051
-0.0936698
-0.0934277
-0.0938882
-0.0950713
-0.0975937
-0.102634
-0.111766
-0.127076
-0.151262
-0.187044
-0.236486
-0.291976
-0.380702
-0.713694
-0.027533
-0.0293293
-0.0310126
-0.0327743
-0.0345506
-0.0363159
-0.0381171
-0.0399048
-0.0417302
-0.0435517
-0.0454192
-0.0472874
-0.0491981
-0.0511072
-0.053058
-0.0550106
-0.0569983
-0.0589819
-0.0609986
-0.0630137
-0.0650516
-0.0670921
-0.0691509
-0.071217
-0.0732989
-0.0753889
-0.0774856
-0.0795864
-0.0816906
-0.0837934
-0.0859304
-0.0880913
-0.090263
-0.0924253
-0.0945352
-0.0966072
-0.0986002
-0.100452
-0.102186
-0.103724
-0.104941
-0.105917
-0.106826
-0.107611
-0.108163
-0.108425
-0.108509
-0.108307
-0.108699
-0.109738
-0.112053
-0.116825
-0.125658
-0.140698
-0.164764
-0.20081
-0.251276
-0.308473
-0.400782
-0.744143
-0.0360045
-0.0379038
-0.0396935
-0.0415647
-0.0434513
-0.0453268
-0.047238
-0.0491348
-0.0510685
-0.0529979
-0.0549743
-0.056951
-0.0589715
-0.0609892
-0.0630502
-0.0651119
-0.0672104
-0.0693045
-0.0714339
-0.0735635
-0.0757189
-0.0778803
-0.0800642
-0.0822603
-0.0844778
-0.086709
-0.0889531
-0.091207
-0.0934696
-0.0957491
-0.0980481
-0.1004
-0.102767
-0.105135
-0.107459
-0.109753
-0.111976
-0.114059
-0.116026
-0.117795
-0.119233
-0.120417
-0.121525
-0.122507
-0.123211
-0.123602
-0.123709
-0.123559
-0.123883
-0.124782
-0.126887
-0.131388
-0.139914
-0.154667
-0.178579
-0.214835
-0.266293
-0.325458
-0.421497
-0.775405
-0.0451536
-0.0471177
-0.048971
-0.0509049
-0.052857
-0.0547982
-0.0567794
-0.0587471
-0.0607563
-0.0627626
-0.0648196
-0.0668791
-0.0689858
-0.071093
-0.0732472
-0.0754065
-0.0776064
-0.0798063
-0.0820454
-0.0842891
-0.0865626
-0.0888466
-0.0911578
-0.0934861
-0.0958413
-0.098216
-0.10061
-0.103021
-0.105448
-0.10789
-0.110385
-0.112921
-0.115492
-0.118069
-0.120613
-0.123133
-0.125587
-0.127903
-0.130108
-0.132108
-0.133768
-0.135156
-0.136462
-0.137637
-0.138485
-0.138995
-0.139108
-0.139001
-0.139243
-0.139978
-0.141859
-0.14607
-0.154264
-0.168694
-0.192401
-0.228783
-0.281143
-0.342499
-0.442491
-0.806957
-0.0539225
-0.0559919
-0.0579541
-0.0600004
-0.0620657
-0.0641201
-0.066214
-0.0682936
-0.0704138
-0.0725306
-0.0746991
-0.0768697
-0.0790886
-0.081307
-0.0835735
-0.0858445
-0.0881575