1.45 	0 	0 	-0.00818685 	-0.00256752 	3.77958e-21
2.35 	0 	0 	0.0613206 	-0.00662654 	2.27918e-21
