1.45 	0 	0 	-0.301263
2.35 	0 	0 	-0.133981
