1.45 	0 	0 	-0.306552
2.35 	0 	0 	-0.10546
