/*--------------------------------*- C++ -*----------------------------------*\
  =========                 |
  \\      /  F ield         | OpenFOAM: The Open Source CFD Toolbox
   \\    /   O peration     | Website:  https://openfoam.org
    \\  /    A nd           | Version:  6.0
     \\/     M anipulation  |
\*---------------------------------------------------------------------------*/
FoamFile
{
    version     2.0;
    format      ascii;
    class       volScalarField;
    location    "0.5";
    object      p;
}
// * * * * * * * * * * * * * * * * * * * * * * * * * * * * * * * * * * * * * //

dimensions      [0 2 -2 0 0 0 0];

internalField   nonuniform List<scalar> 
1600
(
8.42049e-06
-0.00117709
-0.00390623
-0.00757962
-0.0115243
-0.0152446
-0.0183824
-0.0206855
-0.0219863
-0.022185
-0.0212362
-0.0191377
-0.0159232
-0.0116554
-0.00642162
-0.000329604
0.00649567
0.0139148
0.0217763
0.0299194
0.038176
0.0463734
0.0543371
0.0618943
0.0688773
0.0751276
0.0805006
0.0848703
0.0881351
0.0902236
0.0911009
0.0907757
0.0893082
0.0868196
0.0835032
0.079638
0.0756046
0.0719113
0.0692266
0.0681106
0.00120309
1.25411e-05
-0.00220461
-0.0050568
-0.00810041
-0.0109702
-0.0133814
-0.015121
-0.0160388
-0.0160387
-0.0150707
-0.0131233
-0.0102174
-0.00640123
-0.0017458
0.00365819
0.00970356
0.0162693
0.0232229
0.030423
0.0377216
0.0449668
0.0520053
0.058686
0.0648627
0.0703988
0.0751707
0.0790729
0.0820225
0.0839642
0.0848762
0.0847754
0.0837238
0.0818343
0.0792776
0.0762877
0.0731666
0.0702901
0.0681072
0.0669965
0.00394757
0.00222124
-2.65443e-05
-0.00258636
-0.0052154
-0.00764402
-0.00964862
-0.0110575
-0.011745
-0.0116274
-0.0106585
-0.00882534
-0.00614309
-0.00265163
0.00158817
0.00649735
0.0119815
0.0179331
0.024234
0.0307571
0.0373697
0.0439349
0.0503151
0.0563744
0.061982
0.0670161
0.0713671
0.0749422
0.0776696
0.0795028
0.0804252
0.0804545
0.0796472
0.0781022
0.0759635
0.0734221
0.0707181
0.068133
0.0659256
0.0643091
0.00771086
0.00510217
0.00245955
-0.000169951
-0.00272525
-0.00500683
-0.00684043
-0.0080943
-0.00867006
-0.00850091
-0.00755011
-0.00580825
-0.00329018
-3.21607e-05
0.0039108
0.00846734
0.013552
0.019067
0.0249045
0.0309487
0.0370777
0.0431657
0.0490863
0.0547142
0.0599291
0.0646187
0.0686819
0.0720331
0.0746058
0.0763565
0.0772681
0.0773541
0.0766609
0.0752702
0.073299
0.0708991
0.0682631
0.0656056
0.0630132
0.0605469
0.0118992
0.00826328
0.00505228
0.00217096
-0.000486988
-0.00277821
-0.00457002
-0.00576778
-0.00630038
-0.00611948
-0.00520008
-0.00353916
-0.0011538
0.0019207
0.00563276
0.00991627
0.0146924
0.0198711
0.025353
0.0310308
0.0367916
0.0425185
0.0480934
0.0533994
0.0583234
0.0627595
0.0666123
0.0697998
0.0722575
0.0739414
0.0748311
0.0749328
0.0742809
0.072939
0.070998
0.0685748
0.0658229
0.0629052
0.0597498
0.0562834
0.0160863
0.0113803
0.00750824
0.00425736
0.00137458
-0.00103987
-0.00288683
-0.00410429
-0.00464651
-0.00448348
-0.0036029
-0.0020097
0.000274928
0.00321473
0.00675953
0.0108465
0.0154015
0.0203401
0.0255694
0.0309887
0.0364918
0.0419687
0.0473072
0.0523961
0.0571272
0.0613981
0.065116
0.0681999
0.0705844
0.0722224
0.0730878
0.0731776
0.0725133
0.0711409
0.0691274
0.0665599
0.0635623
0.0602592
0.0564408
0.051924
0.019963
0.0141918
0.00961221
0.00591583
0.00272355
0.000103984
-0.00186965
-0.00316306
-0.00375316
-0.00362717
-0.00278552
-0.00124195
0.000977021
0.00383264
0.00727454
0.0112415
0.0156622
0.0204562
0.0255348
0.0308024
0.0361574
0.0414942
0.0467048
0.0516812
0.0563173
0.0605124
0.0641731
0.0672171
0.0695755
0.0711959
0.0720445
0.0721082
0.0713951
0.0699346
0.067773
0.064973
0.061637
0.0578638
0.0533271
0.0477556
0.0232961
0.0164841
0.0111791
0.00699361
0.00343926
0.000561899
-0.00158494
-0.00299015
-0.00365049
-0.00356896
-0.00275817
-0.00124089
0.000950263
0.00377297
0.00717543
0.0110966
0.0154667
0.0202075
0.0252331
0.030451
0.0357625
0.0410648
0.046252
0.051217
0.0558542
0.0600617
0.063744
0.0668147
0.0691995
0.0708387
0.0716897
0.0717278
0.0709483
0.069365
0.0670064
0.0639155
0.0601805
0.0558842
0.0506003
0.0439864
0.0259037
0.0180778
0.0120444
0.00734739
0.00340126
0.000235649
-0.00211067
-0.00364606
-0.00438465
-0.00434365
-0.00354719
-0.00202694
0.00017802
0.00302107
0.00644798
0.0103969
0.0147981
0.0195746
0.0246419
0.0299091
0.035279
0.0406497
0.0459157
0.0509694
0.0557035
0.0600132
0.0637986
0.0669675
0.0694383
0.0711424
0.0720265
0.0720545
0.0712082
0.0694872
0.0669046
0.0634879
0.0593162
0.0544638
0.0484166
0.0407719
0.027635
0.0188173
0.0120583
0.00684013
0.00248801
-0.000979999
-0.00353629
-0.0052058
-0.00601799
-0.00600307
-0.00519598
-0.00363706
-0.00137204
0.00154769
0.00506476
0.00911552
0.0136297
0.0185301
0.0237327
0.029147
0.034676
0.0402174
0.0456646
0.050908
0.055837
0.060342
0.0643171
0.0676625
0.0702874
0.0721127
0.0730736
0.073121
0.0722236
0.0703674
0.0675518
0.0637917
0.0591613
0.0537317
0.0469085
0.0382351
0.0283571
0.018561
0.0110803
0.00533872
0.000577073
-0.00319527
-0.00595939
-0.00775478
-0.00862474
-0.00861158
-0.00776057
-0.00612057
-0.00374402
-0.000687433
0.00298819
0.00721674
0.0119265
0.0170394
0.0224711
0.0281303
0.0339194
0.0397347
0.0454671
0.0510038
0.0562293
0.061028
0.065286
0.0688943
0.0717514
0.0737661
0.0748603
0.0749713
0.0740538
0.0720804
0.0690379
0.0649304
0.0598303
0.053809
0.0461954
0.0364822
0.0279446
0.0171736
0.0089735
0.00271055
-0.00245664
-0.00652578
-0.00948519
-0.0113876
-0.0122894
-0.0122444
-0.0113079
-0.00953739
-0.00699217
-0.00373407
0.000171853
0.00465659
0.00964634
0.0150617
0.0208172
0.0268204
0.032972
0.0391661
0.0452905
0.0512278
0.0568566
0.0620537
0.066696
0.0706635
0.0738422
0.076127
0.0774251
0.0776585
0.0767671
0.0747096
0.07146
0.0670128
0.0614402
0.0548161
0.0463934
0.0356142
0.0262718
0.0145202
0.00559988
-0.00117995
-0.00674315
-0.0110938
-0.0142269
-0.016208
-0.017106
-0.0169864
-0.0159147
-0.0139569
-0.0111796
-0.00765033
-0.00343835
0.00138406
0.00674075
0.0125505
0.0187263
0.0251742
0.0317929
0.0384737
0.0451004
0.0515505
0.0576957
0.0634038
0.0685412
0.0729753
0.0765776
0.0792274
0.0808151
0.0812456
0.0804421
0.0783482
0.0749247
0.070156
0.0641149
0.056879
0.0476226
0.0357363
0.0232081
0.0104609
0.000816336
-0.0064745
-0.0124197
-0.0170297
-0.0203063
-0.0223283
-0.0231776
-0.0229314
-0.021666
-0.0194565
-0.0163771
-0.0125012
-0.00790276
-0.00265746
0.00315602
0.00945461
0.0161496
0.0231452
0.0303382
0.0376169
0.0448608
0.0519415
0.0587231
0.0650638
0.0708178
0.0758383
0.0799806
0.0831059
0.0850855
0.0858048
0.085168
0.0831015
0.0795508
0.0744893
0.0679901
0.0601348
0.0500145
0.0369652
0.0186131
0.0048467
-0.00552935
-0.0133241
-0.0196329
-0.0244735
-0.0278549
-0.0298703
-0.0306157
-0.0301812
-0.0286542
-0.02612
-0.0226609
-0.0183566
-0.0132861
-0.00752848
-0.00116497
0.0057196
0.013035
0.0206842
0.0285617
0.0365531
0.0445336
0.0523689
0.059915
0.0670195
0.0735233
0.079264
0.0840783
0.087807
0.0902994
0.0914182
0.0910458
0.0890877
0.0854718
0.080158
0.0732184
0.0647381
0.0537181
0.0394359
0.0123332
-0.00248409
-0.0136022
-0.0218924
-0.0285418
-0.0335764
-0.0370144
-0.038965
-0.03954
-0.038844
-0.0369771
-0.0340357
-0.0301107
-0.0252892
-0.0196551
-0.0132911
-0.00628058
0.00129013
0.0093299
0.0177407
0.0264158
0.0352383
0.0440797
0.0527999
0.0612465
0.0692562
0.0766559
0.0832654
0.0889012
0.0933807
0.0965277
0.0981787
0.0981895
0.0964412
0.0928395
0.0873275
0.0799742
0.0708662
0.0589059
0.0433074
0.00419865
-0.01171
-0.0235837
-0.0323588
-0.0393197
-0.0445031
-0.0479382
-0.0497528
-0.0500777
-0.0490338
-0.0467363
-0.0432937
-0.0388073
-0.0333714
-0.0270756
-0.0200058
-0.0122475
-0.00388755
0.00498278
0.0142655
0.0238536
0.0336287
0.0434596
0.0532008
0.0626922
0.0717593
0.080214
0.0878574
0.0944832
0.0998825
0.10385
0.10619
0.106728
0.105314
0.101828
0.0961883
0.0884591
0.0787257
0.0657808
0.0487695
-0.0059802
-0.0230304
-0.0356762
-0.0449225
-0.0521583
-0.0574335
-0.0607919
-0.0623839
-0.0623623
-0.0608682
-0.0580342
-0.0539833
-0.0488281
-0.0426715
-0.0356083
-0.0277279
-0.0191169
-0.00986187
-5.29246e-05
0.0102135
0.0208315
0.0316829
0.0426352
0.0535389
0.0642269
0.0745137
0.0841963
0.0930557
0.100861
0.107373
0.112352
0.115568
0.116807
0.115881
0.112635
0.106961
0.0989083
0.0885592
0.0745829
0.0560487
-0.0184168
-0.0366703
-0.050108
-0.059807
-0.0672704
-0.0725655
-0.075755
-0.0770173
-0.0765325
-0.0744659
-0.0709713
-0.0661887
-0.0602439
-0.0532488
-0.0453042
-0.0365023
-0.0269296
-0.0166714
-0.00581467
0.00554751
0.0173126
0.0293649
0.0415723
0.0537837
0.0658264
0.0775052
0.088602
0.0988772
0.108073
0.115917
0.122132
0.126443
0.12859
0.12834
0.125492
0.119901
0.111598
0.100653
0.0855974
0.0654168
-0.0333534
-0.0528866
-0.0671395
-0.077266
-0.0848952
-0.0901176
-0.0930219
-0.0938213
-0.09273
-0.0899437
-0.0856414
-0.0799839
-0.0731119
-0.0651479
-0.0561983
-0.0463572
-0.0357103
-0.0243391
-0.0123255
0.000243427
0.0132713
0.0266476
0.040244
0.05391
0.0674701
0.0807211
0.0934311
0.10534
0.11616
0.125585
0.133292
0.138955
0.14226
0.142915
0.140664
0.135308
0.126853
0.115348
0.0991651
0.0771992
-0.0510683
-0.0719766
-0.0870717
-0.09759
-0.105303
-0.110333
-0.112802
-0.112971
-0.111096
-0.107411
-0.102126
-0.095426
-0.0874699
-0.0783912
-0.068302
-0.0572974
-0.0454601
-0.0328655
-0.0195877
-0.0057042
0.00869808
0.0235178
0.0386338
0.0539004
0.0691423
0.0841517
0.0986849
0.112462
0.125166
0.136451
0.145945
0.153263
0.158024
0.159864
0.158456
0.153533
0.145057
0.133048
0.115694
0.0917869
-0.0718854
-0.0942898
-0.110258
-0.121117
-0.128803
-0.133481
-0.135323
-0.134648
-0.131768
-0.126965
-0.120486
-0.112547
-0.103326
-0.0929698
-0.0815947
-0.0692952
-0.0561485
-0.0422212
-0.0275754
-0.0122754
0.00360607
0.0199812
0.036741
0.0537491
0.0708357
0.0877922
0.104367
0.120262
0.135133
0.148591
0.160209
0.169536
0.17611
0.179479
0.179222
0.174986
0.166668
0.154241
0.135676
0.109651
-0.096188
-0.120244
-0.137119
-0.148245
-0.155751
-0.159865
-0.160828
-0.159036
-0.154873
-0.14868
-0.140754
-0.131343
-0.12065
-0.108833
-0.0960131
-0.0822807
-0.0677046
-0.052338
-0.036227
-0.0194174
-0.00196294
0.016068
0.0345845
0.0534657
0.0725532
0.0916437
0.110483
0.128759
0.146102
0.16208
0.176208
0.187957
0.19677
0.202089
0.203372
0.200151
0.19223
0.179512
0.159707
0.131361
-0.124439
-0.150347
-0.168167
-0.179448
-0.186561
-0.189826
-0.189576
-0.186313
-0.180515
-0.172599
-0.162918
-0.151763
-0.139359
-0.125877
-0.11144
-0.0961317
-0.0800068
-0.0631004
-0.0454369
-0.027038
-0.00793197
0.0118388
0.0322083
0.0530787
0.0743108
0.0957144
0.11704
0.137969
0.158109
0.17699
0.194064
0.208716
0.22028
0.228064
0.231378
0.229597
0.222399
0.209573
0.188515
0.157613
-0.15721
-0.185234
-0.204032
-0.215302
-0.221722
-0.223745
-0.221839
-0.216648
-0.20877
-0.198717
-0.186911
-0.173689
-0.159301
-0.14393
-0.127693
-0.110662
-0.0928736
-0.074337
-0.0550485
-0.0349989
-0.0141835
0.00738847
0.0296843
0.0526379
0.0761385
0.100019
0.124045
0.147902
0.171183
0.193382
0.213893
0.232006
0.24693
0.257816
0.263783
0.264001
0.257965
0.245298
0.222998
0.189262
-0.195227
-0.225713
-0.245511
-0.256513
-0.261809
-0.262049
-0.257895
-0.25018
-0.239659
-0.22696
-0.212586
-0.196922
-0.180244
-0.162737
-0.144509
-0.125613
-0.106055
-0.0858141
-0.0648487
-0.0431111
-0.020556
0.00284932
0.0271145
0.052215
0.0780799
0.104578
0.131502
0.158555
0.185329
0.211294
0.235788
0.258008
0.277022
0.291793
0.301204
0.304156
0.299886
0.28777
0.264283
0.227376
-0.239435
-0.272838
-0.293624
-0.303961
-0.307507
-0.305212
-0.298015
-0.287002
-0.273128
-0.257161
-0.239694
-0.221159
-0.201851
-0.181948
-0.161539
-0.140642
-0.119228
-0.0972313
-0.0745653
-0.0511345
-0.026844
-0.0016103
0.0246285
0.0519007
0.0801879
0.109409
0.139401
0.169902
0.200522
0.230726
0.259807
0.286873
0.310846
0.330471
0.344341
0.351005
0.349338
0.338345
0.313798
0.273308
-0.291102
-0.328019
-0.349705
-0.358747
-0.359626
-0.353745
-0.342435
-0.327121
-0.309008
-0.289023
-0.267852
-0.245967
-0.223665
-0.201103
-0.178331
-0.155322
-0.131993
-0.108223
-0.0838702
-0.0587815
-0.0328032
-0.00579151
0.0223778
0.0517977
0.082516
0.114518
0.147708
0.181878
0.216685
0.251612
0.285936
0.318692
0.348655
0.37433
0.393964
0.40565
0.407763
0.39875
0.373397
0.328812
-0.351986
-0.393191
-0.415526
-0.422264
-0.419115
-0.408172
-0.391315
-0.370412
-0.346965
-0.322074
-0.296507
-0.270755
-0.24509
-0.21962
-0.194335
-0.169138
-0.143878
-0.118365
-0.0923882
-0.0657277
-0.0381618
-0.00947716
0.0205227
0.0520069
0.0851043
0.119886
0.156342
0.194354
0.233656
0.273789
0.314052
0.353443
0.39061
0.423813
0.450893
0.469373
0.476936
0.471207
0.445533
0.396223
-0.424613
-0.471071
-0.493469
-0.496267
-0.48706
-0.468978
-0.444661
-0.416534
-0.386429
-0.355613
-0.324898
-0.294751
-0.265375
-0.236793
-0.208897
-0.181498
-0.154354
-0.12719
-0.099715
-0.0716307
-0.0426398
-0.0124514
0.019212
0.0526069
0.0879571
0.125438
0.165155
0.207107
0.251152
0.296942
0.343858
0.39092
0.436704
0.479243
0.515942
0.543623
0.559047
0.558618
0.533535
0.47875
-0.512747
-0.565574
-0.586771
-0.582944
-0.564633
-0.536503
-0.502204
-0.464814
-0.4265
-0.388636
-0.352005
-0.316973
-0.28361
-0.251794
-0.221281
-0.191755
-0.162859
-0.134217
-0.105444
-0.0761577
-0.0459767
-0.014527
0.0185568
0.0536272
0.0910159
0.131021
0.173889
0.219779
0.268719
0.320544
0.374799
0.430629
0.486632
0.540697
0.589802
0.629968
0.656758
0.66481
0.64204
0.580996
-0.622264
-0.682473
-0.699837
-0.684948
-0.652962
-0.610745
-0.563197
-0.514086
-0.465826
-0.41976
-0.37651
-0.336218
-0.298726
-0.263695
-0.230691
-0.199234
-0.168829
-0.138981
-0.109203
-0.0790208
-0.0479661
-0.015579
0.0185969
0.0550153
0.0941254
0.136365
0.182145
0.231825
0.285667
0.343767
0.405954
0.471638
0.539612
0.607786
0.672834
0.729948
0.773233
0.794851
0.777684
0.709876
-0.76278
-0.830446
-0.838603
-0.805309
-0.752839
-0.691018
-0.62612
-0.562463
-0.502453
-0.447143
-0.396764
-0.351063
-0.309523
-0.271502
-0.236316
-0.203284
-0.171749
-0.141085
-0.110698
-0.0800183
-0.0484943
-0.0155813
0.0192665
0.0566041
0.0970019
0.141047
0.189339
0.242473
0.301007
0.365399
0.435899
0.512388
0.594116
0.679326
0.76469
0.844752
0.912031
0.955417
0.950187
0.876381
-0.950985
-1.02277
-1.0108
-0.946999
-0.864072
-0.775349
-0.688216
-0.607032
-0.533658
-0.468406
-0.410779
-0.359893
-0.31472
-0.274218
-0.237394
-0.203334
-0.171205
-0.140246
-0.109755
-0.0790762
-0.0475778
-0.01464
0.0203639
0.0580834
0.0992058
0.14447
0.194674
0.25068
0.313397
0.383743
0.462561
0.550453
0.647504
0.752806
0.863645
0.974505
1.07662
1.15503
1.1741
1.09914
-1.21738
-1.27976
-1.22557
-1.11157
-0.984076
-0.859369
-0.744748
-0.643421
-0.555732
-0.480561
-0.416231
-0.360951
-0.31302
-0.270906
-0.233271
-0.198952
-0.166938
-0.136342
-0.106366
-0.07628
-0.0453907
-0.0130177
0.0215307
0.0589823
0.100127
0.145842
0.197123
0.255106
0.321089
0.396536
0.483042
0.582228
0.6955
0.823552
0.965368
1.11672
1.26888
1.40355
1.47122
1.41147
-1.61792
-1.63106
-1.49159
-1.29672
-1.10589
-0.934996
-0.788302
-0.665536
-0.563974
-0.480131
-0.410633
-0.352509
-0.30326
-0.260826
-0.223513
-0.189927
-0.158903
-0.129453
-0.10071
-0.071894
-0.0422728
-0.0111303
0.0222653
0.0586943
0.0990208
0.144234
0.195495
0.254194
0.322018
0.401012
0.493647
0.602837
0.731848
0.883964
1.06154
1.26422
1.48651
1.71015
1.87254
1.87302
-2.25456
-2.11601
-1.81355
-1.49436
-1.2174
-0.990505
-0.809407
-0.666446
-0.553618
-0.464007
-0.392062
-0.333466
-0.284898
-0.2438
-0.208185
-0.176482
-0.147426
-0.119971
-0.0932221
-0.0663826
-0.0387137
-0.00949444
0.0220151
0.0566118
0.0951935
0.138812
0.188741
0.246562
0.314285
0.394495
0.490558
0.606847
0.748978
0.92393
1.13976
1.40418
1.72086
2.07931
2.418
2.5893
-3.35472
-2.78424
-2.17258
-1.67557
-1.29248
-1.00569
-0.794108
-0.637242
-0.519305
-0.429154
-0.358958
-0.30317
-0.257828
-0.220051
-0.187696
-0.159131
-0.133076
-0.108491
-0.0845051
-0.0603492
-0.0353155
-0.00871423
0.0201639
0.0520891
0.0879396
0.128762
0.175852
0.230866
0.295986
0.374155
0.469434
0.587522
0.736495
0.92785
1.17792
1.50824
1.94069
2.49093
3.15908
3.79321
-5.51245
-3.66717
-2.4315
-1.71354
-1.24144
-0.921582
-0.704672
-0.553814
-0.445373
-0.365117
-0.304115
-0.256514
-0.218358
-0.186885
-0.1601
-0.136514
-0.114972
-0.0945472
-0.0744659
-0.0540497
-0.032674
-0.00973108
0.0154051
0.0434159
0.0750823
0.111341
0.153366
0.202676
0.261317
0.332128
0.419189
0.528563
0.669531
0.856883
1.11519
1.48358
2.01539
2.80602
4.13003
6.08273
-9.19495
-4.52333
-2.30673
-1.42098
-0.959047
-0.683083
-0.512389
-0.400683
-0.322992
-0.266475
-0.223939
-0.19095
-0.164601
-0.14288
-0.124331
-0.107855
-0.0925932
-0.0778465
-0.0630248
-0.0476068
-0.0311094
-0.0130614
0.00702202
0.0296668
0.0554717
0.0851498
0.119585
0.159917
0.207664
0.26494
0.334805
0.421926
0.533851
0.683871
0.897611
1.22422
1.75375
2.7338
5.06517
9.85708
)
;

boundaryField
{
    movingWall
    {
        type            zeroGradient;
    }
    fixedWalls
    {
        type            zeroGradient;
    }
    frontAndBack
    {
        type            empty;
    }
}


// ************************************************************************* //
