/*--------------------------------*- C++ -*----------------------------------*\
  =========                 |
  \\      /  F ield         | OpenFOAM: The Open Source CFD Toolbox
   \\    /   O peration     | Website:  https://openfoam.org
    \\  /    A nd           | Version:  6.0
     \\/     M anipulation  |
\*---------------------------------------------------------------------------*/
FoamFile
{
    version     2.0;
    format      ascii;
    class       surfaceScalarField;
    location    "0.5";
    object      phi;
}
// * * * * * * * * * * * * * * * * * * * * * * * * * * * * * * * * * * * * * //

dimensions      [0 3 -1 0 0 0 0];

internalField   nonuniform List<scalar> 
3120
(
2.53271e-09
-2.55116e-09
4.09578e-09
-1.56308e-09
2.25363e-09
1.84217e-09
-3.5543e-09
5.80798e-09
-1.31377e-08
9.58345e-09
-2.59878e-08
1.285e-08
-4.14649e-08
1.54771e-08
-5.88927e-08
1.74277e-08
-7.76033e-08
1.87106e-08
-9.69597e-08
1.93566e-08
-1.16368e-07
1.94081e-08
-1.35281e-07
1.89134e-08
-1.53205e-07
1.79239e-08
-1.69697e-07
1.64923e-08
-1.84369e-07
1.46718e-08
-1.96886e-07
1.25162e-08
-2.06965e-07
1.00798e-08
-2.14383e-07
7.4174e-09
-2.18968e-07
4.58547e-09
-2.2061e-07
1.64187e-09
-2.19257e-07
-1.35353e-09
-2.14918e-07
-4.33865e-09
-2.07669e-07
-7.24907e-09
-1.9765e-07
-1.00182e-08
-1.85073e-07
-1.25776e-08
-1.70215e-07
-1.48578e-08
-1.53426e-07
-1.67892e-08
-1.35122e-07
-1.83034e-08
-1.15788e-07
-1.93346e-08
-9.59659e-08
-1.9822e-08
-7.62545e-08
-1.97113e-08
-5.72967e-08
-1.89578e-08
-3.9767e-08
-1.75297e-08
-2.43532e-08
-1.54138e-08
-1.17276e-08
-1.26258e-08
-2.49589e-09
-9.23179e-09
2.89782e-09
-5.39375e-09
4.35801e-09
-1.46012e-09
2.56109e-09
1.79706e-09
2.56119e-09
1.61426e-09
-4.16541e-09
-1.17188e-09
1.22298e-09
-1.17168e-08
1.23871e-08
-3.10778e-08
2.51689e-08
-5.90539e-08
3.75596e-08
-9.47013e-08
4.84976e-08
-1.36671e-07
5.74465e-08
-1.83422e-07
6.41791e-08
-2.33355e-07
6.86438e-08
-2.84889e-07
7.08903e-08
-3.36509e-07
7.10279e-08
-3.86797e-07
6.9202e-08
-4.34453e-07
6.55798e-08
-4.78302e-07
6.03415e-08
-5.17307e-07
5.3676e-08
-5.50568e-07
4.57775e-08
-5.77333e-07
3.68454e-08
-5.97e-07
2.70836e-08
-6.09116e-07
1.67017e-08
-6.13389e-07
5.91551e-09
-6.09691e-07
-5.05196e-09
-5.98059e-07
-1.59704e-08
-5.78706e-07
-2.66022e-08
-5.52021e-07
-3.67031e-08
-5.18575e-07
-4.60244e-08
-4.79117e-07
-5.43156e-08
-4.34578e-07
-6.13283e-08
-3.8606e-07
-6.68212e-08
-3.34828e-07
-7.0567e-08
-2.8229e-07
-7.23595e-08
-2.29978e-07
-7.20235e-08
-1.7951e-07
-6.94261e-08
-1.32546e-07
-6.44933e-08
-9.07275e-08
-5.72327e-08
-5.55808e-08
-4.77724e-08
-2.83837e-08
-3.6429e-08
-9.94663e-09
-2.38309e-08
-2.87457e-10
-1.11195e-08
1.8546e-09
-3.45085e-10
4.41592e-09
-1.66835e-09
-2.49703e-09
-1.212e-08
1.16746e-08
-3.40967e-08
3.43638e-08
-6.84626e-08
5.95347e-08
-1.14804e-07
8.3901e-08
-1.71835e-07
1.05529e-07
-2.37722e-07
1.23334e-07
-3.10328e-07
1.36785e-07
-3.87383e-07
1.45699e-07
-4.66603e-07
1.5011e-07
-5.45766e-07
1.50191e-07
-6.22772e-07
1.46208e-07
-6.95672e-07
1.3848e-07
-7.627e-07
1.2737e-07
-8.22285e-07
1.13261e-07
-8.73067e-07
9.65587e-08
-9.13901e-07
7.76799e-08
-9.43874e-07
5.70561e-08
-9.62303e-07
3.51312e-08
-9.68751e-07
1.23632e-08
-9.63028e-07
-1.07752e-08
-9.45201e-07
-3.37969e-08
-9.15603e-07
-5.62006e-08
-8.74832e-07
-7.74738e-08
-8.2376e-07
-9.70968e-08
-7.63527e-07
-1.14549e-07
-6.95537e-07
-1.29318e-07
-6.21448e-07
-1.4091e-07
-5.43148e-07
-1.48867e-07
-4.6273e-07
-1.52778e-07
-3.82447e-07
-1.52306e-07
-3.0466e-07
-1.47213e-07
-2.31761e-07
-1.37393e-07
-1.66075e-07
-1.22919e-07
-1.09726e-07
-1.04121e-07
-6.44571e-08
-8.16974e-08
-3.13866e-08
-5.69014e-08
-1.06929e-08
-3.18134e-08
-1.23806e-09
-9.80005e-09
3.17791e-09
-5.57071e-09
3.07371e-09
-2.49842e-08
3.1088e-08
-5.96989e-08
6.90784e-08
-1.09891e-07
1.09727e-07
-1.7467e-07
1.4868e-07
-2.52329e-07
1.83187e-07
-3.40595e-07
2.116e-07
-4.36849e-07
2.3304e-07
-5.38303e-07
2.47153e-07
-6.42126e-07
2.53933e-07
-7.45547e-07
2.53613e-07
-8.45926e-07
2.46586e-07
-9.40802e-07
2.33356e-07
-1.02793e-06
2.14498e-07
-1.10531e-06
1.90643e-07
-1.17121e-06
1.62455e-07
-1.22416e-06
1.30632e-07
-1.263e-06
9.58946e-08
-1.28686e-06
5.89875e-08
-1.29517e-06
2.068e-08
-1.28771e-06
-1.82347e-08
-1.26457e-06
-5.69398e-08
-1.22617e-06
-9.45974e-08
-1.17329e-06
-1.30353e-07
-1.10705e-06
-1.63343e-07
-1.02889e-06
-1.92706e-07
-9.40609e-07
-2.17599e-07
-8.44305e-07
-2.37215e-07
-7.42363e-07
-2.50808e-07
-6.37417e-07
-2.57724e-07
-5.32289e-07
-2.57435e-07
-4.29916e-07
-2.49585e-07
-3.33263e-07
-2.34046e-07
-2.45192e-07
-2.10991e-07
-1.68317e-07
-1.80996e-07
-1.04816e-07
-1.45198e-07
-5.62072e-08
-1.0551e-07
-2.31047e-08
-6.49158e-08
-4.98738e-09
-2.79175e-08
-1.8095e-09
-9.47132e-09
1.2545e-08
-3.8184e-08
5.98007e-08
-8.60971e-08
1.16992e-07
-1.52425e-07
1.76054e-07
-2.35598e-07
2.31853e-07
-3.33377e-07
2.80967e-07
-4.43024e-07
3.21247e-07
-5.61472e-07
3.51488e-07
-6.85483e-07
3.71163e-07
-8.11778e-07
3.80228e-07
-9.37141e-07
3.78976e-07
-1.0585e-06
3.67944e-07
-1.17298e-06
3.47835e-07
-1.27795e-06
3.19474e-07
-1.37108e-06
2.83769e-07
-1.45032e-06
2.41693e-07
-1.51395e-06
1.94266e-07
-1.5606e-06
1.42549e-07
-1.58926e-06
8.76433e-08
-1.59926e-06
3.06828e-08
-1.59034e-06
-2.71615e-08
-1.56259e-06
-8.46856e-08
-1.51653e-06
-1.40656e-07
-1.45307e-06
-1.93818e-07
-1.37351e-06
-2.42905e-07
-1.27955e-06
-2.86659e-07
-1.1733e-06
-3.23852e-07
-1.0572e-06
-3.53313e-07
-9.34043e-07
-3.73967e-07
-8.06889e-07
-3.84878e-07
-6.79021e-07
-3.85303e-07
-5.53853e-07
-3.74753e-07
-4.34826e-07
-3.53074e-07
-3.25276e-07
-3.20541e-07
-2.28284e-07
-2.77989e-07
-1.465e-07
-2.26982e-07
-8.19602e-08
-1.70049e-07
-3.59226e-08
-1.10953e-07
-8.75779e-09
-5.50823e-08
-1.05674e-08
-1.31662e-08
2.57111e-08
-5.10408e-08
9.76753e-08
-1.12121e-07
1.78072e-07
-1.94548e-07
2.58481e-07
-2.95947e-07
3.33251e-07
-4.13451e-07
3.98471e-07
-5.43801e-07
4.51597e-07
-6.83472e-07
4.91159e-07
-8.28805e-07
5.16496e-07
-9.76121e-07
5.27544e-07
-1.12182e-06
5.24679e-07
-1.26248e-06
5.08599e-07
-1.39488e-06
4.80234e-07
-1.51609e-06
4.40683e-07
-1.62349e-06
3.91167e-07
-1.71479e-06
3.32997e-07
-1.78808e-06
2.67556e-07
-1.84182e-06
1.96286e-07
-1.87486e-06
1.20684e-07
-1.88647e-06
4.22918e-08
-1.87633e-06
-3.72964e-08
-1.84457e-06
-1.16445e-07
-1.79175e-06
-1.93479e-07
-1.71887e-06
-2.66696e-07
-1.62739e-06
-3.34382e-07
-1.51922e-06
-3.94835e-07
-1.39667e-06
-4.46396e-07
-1.2625e-06
-4.87488e-07
-1.1198e-06
-5.16667e-07
-9.71999e-07
-5.32679e-07
-8.22768e-07
-5.34534e-07
-6.75936e-07
-5.21585e-07
-5.3538e-07
-4.9363e-07
-4.04893e-07
-4.51027e-07
-2.88045e-07
-3.94837e-07
-1.88021e-07
-3.27006e-07
-1.07483e-07
-2.50587e-07
-4.84634e-08
-1.69973e-07
-1.2339e-08
-9.12067e-08
-2.29064e-08
-1.66153e-08
4.23263e-08
-6.33282e-08
1.44388e-07
-1.37308e-07
2.52052e-07
-2.35609e-07
3.56783e-07
-3.54989e-07
4.52631e-07
-4.91882e-07
5.35364e-07
-6.42456e-07
6.0217e-07
-8.027e-07
6.51403e-07
-9.6853e-07
6.82326e-07
-1.13589e-06
6.94904e-07
-1.30084e-06
6.89629e-07
-1.45963e-06
6.67393e-07
-1.60878e-06
6.29382e-07
-1.7451e-06
5.76998e-07
-1.86573e-06
5.11803e-07
-1.96821e-06
4.35477e-07
-2.05046e-06
3.49798e-07
-2.11079e-06
2.56619e-07
-2.14797e-06
1.57862e-07
-2.16119e-06
5.5514e-08
-2.15011e-06
-4.8379e-08
-2.11484e-06
-1.51714e-07
-2.05598e-06
-2.52341e-07
-1.9746e-06
-3.48073e-07
-1.87227e-06
-4.3671e-07
-1.75104e-06
-5.16069e-07
-1.61341e-06
-5.8402e-07
-1.46236e-06
-6.38539e-07
-1.30126e-06
-6.77771e-07
-1.13383e-06
-7.00106e-07
-9.64099e-07
-7.04266e-07
-7.96276e-07
-6.89407e-07
-6.34667e-07
-6.55239e-07
-4.83539e-07
-6.02155e-07
-3.46987e-07
-5.31389e-07
-2.28803e-07
-4.45191e-07
-1.32353e-07
-3.47037e-07
-6.05149e-08
-2.41811e-07
-1.56926e-08
-1.36029e-07
-3.85989e-08
-1.98474e-08
6.21738e-08
-7.50499e-08
1.9959e-07
-1.61593e-07
3.38594e-07
-2.75479e-07
4.70669e-07
-4.12574e-07
5.89726e-07
-5.6857e-07
6.9136e-07
-7.39017e-07
7.72617e-07
-9.19388e-07
8.31774e-07
-1.10516e-06
8.68101e-07
-1.29191e-06
8.8165e-07
-1.47537e-06
8.73085e-07
-1.6515e-06
8.43533e-07
-1.81659e-06
7.9447e-07
-1.96723e-06
7.27635e-07
-2.10039e-06
6.44961e-07
-2.21344e-06
5.48526e-07
-2.30416e-06
4.40525e-07
-2.37079e-06
3.23247e-07
-2.41199e-06
1.99065e-07
-2.42691e-06
7.04279e-08
-2.41515e-06
-6.01384e-08
-2.37682e-06
-1.90042e-07
-2.31253e-06
-3.1663e-07
-2.2234e-06
-4.37207e-07
-2.11105e-06
-5.49057e-07
-1.97764e-06
-6.49478e-07
-1.82583e-06
-7.35835e-07
-1.65875e-06
-8.05616e-07
-1.48001e-06
-8.56512e-07
-1.2936e-06
-8.86509e-07
-1.10388e-06
-8.93989e-07
-9.1543e-07
-8.77859e-07
-7.3299e-07
-8.37679e-07
-5.61332e-07
-7.73814e-07
-4.05127e-07
-6.87594e-07
-2.68828e-07
-5.8149e-07
-1.5657e-07
-4.59295e-07
-7.21115e-08
-3.26269e-07
-1.88552e-08
-1.89285e-07
-5.74541e-08
-2.2915e-08
8.50889e-08
-8.63116e-08
2.62987e-07
-1.8511e-07
4.37392e-07
-3.14308e-07
5.99868e-07
-4.68879e-07
7.44297e-07
-6.43746e-07
8.66227e-07
-8.33809e-07
9.6268e-07
-1.034e-06
1.03196e-06
-1.23934e-06
1.07344e-06
-1.44502e-06
1.08733e-06
-1.64646e-06
1.07453e-06
-1.83939e-06
1.03646e-06
-2.01985e-06
9.74926e-07
-2.18425e-06
8.92041e-07
-2.32943e-06
7.90141e-07
-2.45263e-06
6.71728e-07
-2.55154e-06
5.39434e-07
-2.6243e-06
3.96002e-07
-2.6695e-06
2.44272e-07
-2.68625e-06
8.7171e-08
-2.6741e-06
-7.22845e-08
-2.63315e-06
-2.30998e-07
-2.56398e-06
-3.85798e-07
-2.46773e-06
-5.3346e-07
-2.34606e-06
-6.70725e-07
-2.20119e-06
-7.94348e-07
-2.03587e-06
-9.01151e-07
-1.85339e-06
-9.88092e-07
-1.65755e-06
-1.05236e-06
-1.45258e-06
-1.09147e-06
-1.24315e-06
-1.10342e-06
-1.03422e-06
-1.08679e-06
-8.30991e-07
-1.04091e-06
-6.38766e-07
-9.66039e-07
-4.62842e-07
-8.63517e-07
-3.08392e-07
-7.35941e-07
-1.80358e-07
-5.87328e-07
-8.34014e-08
-4.23226e-07
-2.18913e-08
-2.50795e-07
-7.93453e-08
-2.58739e-08
1.10963e-07
-9.72545e-08
3.34367e-07
-2.08079e-07
5.48217e-07
-3.52381e-07
7.4417e-07
-5.24245e-07
9.16161e-07
-7.17811e-07
1.05979e-06
-9.27302e-07
1.17217e-06
-1.14708e-06
1.25174e-06
-1.37171e-06
1.29807e-06
-1.59599e-06
1.31161e-06
-1.81504e-06
1.29358e-06
-2.02433e-06
1.24575e-06
-2.21972e-06
1.17031e-06
-2.39747e-06
1.06979e-06
-2.55429e-06
9.46966e-07
-2.68734e-06
8.04777e-07
-2.79423e-06
6.46318e-07
-2.87302e-06
4.74798e-07
-2.92228e-06
2.9353e-07
-2.94104e-06
1.05926e-07
-2.92882e-06
-8.45013e-08
-2.88567e-06
-2.74146e-07
-2.81216e-06
-4.5931e-07
-2.70939e-06
-6.36225e-07
-2.57904e-06
-8.01076e-07
-2.42335e-06
-9.50044e-07
-2.24513e-06
-1.07937e-06
-2.04777e-06
-1.18545e-06
-1.83523e-06
-1.2649e-06
-1.61199e-06
-1.31472e-06
-1.38299e-06
-1.33242e-06
-1.1536e-06
-1.31618e-06
-9.2949e-07
-1.26502e-06
-7.16537e-07
-1.17899e-06
-5.2071e-07
-1.05934e-06
-3.47946e-07
-9.08705e-07
-2.04043e-07
-7.31231e-07
-9.45786e-08
-5.32691e-07
-2.48716e-08
-3.20502e-07
-1.04217e-07
-2.87762e-08
1.39739e-07
-1.08025e-07
4.13616e-07
-2.30748e-07
6.70939e-07
-3.90033e-07
9.03455e-07
-5.79081e-07
1.10521e-06
-7.9123e-07
1.27194e-06
-1.02001e-06
1.40096e-06
-1.25921e-06
1.49094e-06
-1.50289e-06
1.54174e-06
-1.74547e-06
1.5542e-06
-1.98179e-06
1.5299e-06
-2.20706e-06
1.47103e-06
-2.41699e-06
1.38024e-06
-2.60771e-06
1.26052e-06
-2.77584e-06
1.1151e-06
-2.91848e-06
9.47412e-07
-3.03318e-06
7.61014e-07
-3.11796e-06
5.59587e-07
-3.17136e-06
3.46921e-07
-3.19234e-06
1.26911e-07
-3.1804e-06
-9.6442e-08
-3.13552e-06
-3.19022e-07
-3.05823e-06
-5.36608e-07
-2.94957e-06
-7.44882e-07
-2.81119e-06
-9.39457e-07
-2.64531e-06
-1.11592e-06
-2.45477e-06
-1.26991e-06
-2.24304e-06
-1.39718e-06
-2.01419e-06
-1.49374e-06
-1.77291e-06
-1.556e-06
-1.52445e-06
-1.58089e-06
-1.27454e-06
-1.56608e-06
-1.02938e-06
-1.51019e-06
-7.95428e-07
-1.41294e-06
-5.79389e-07
-1.27538e-06
-3.8801e-07
-1.10008e-06
-2.27988e-07
-8.91253e-07
-1.05849e-07
-6.5483e-07
-2.78657e-08
-3.98485e-07
-1.32083e-07
-3.16679e-08
1.71407e-07
-1.18762e-07
5.00711e-07
-2.53357e-07
8.05534e-07
-4.27601e-07
1.0777e-06
-6.33796e-07
1.3114e-06
-8.64468e-07
1.50261e-06
-1.11243e-06
1.64892e-06
-1.37087e-06
1.74937e-06
-1.63336e-06
1.80423e-06
-1.89395e-06
1.81478e-06
-2.14715e-06
1.7831e-06
-2.388e-06
1.71187e-06
-2.61204e-06
1.60427e-06
-2.81532e-06
1.4638e-06
-2.9944e-06
1.29418e-06
-3.14633e-06
1.09935e-06
-3.26866e-06
8.8334e-07
-3.35939e-06
6.50316e-07
-3.417e-06
4.04534e-07
-3.44045e-06
1.5036e-07
-3.42916e-06
-1.07727e-07
-3.38307e-06
-3.65118e-07
-3.3026e-06
-6.17075e-07
-3.18875e-06
-8.58737e-07
-3.04306e-06
-1.08514e-06
-2.86773e-06
-1.29126e-06
-2.66555e-06
-1.47209e-06
-2.44002e-06
-1.62271e-06
-2.19531e-06
-1.73845e-06
-1.93628e-06
-1.81503e-06
-1.66845e-06
-1.84871e-06
-1.39797e-06
-1.83656e-06
-1.13152e-06
-1.77664e-06
-8.76232e-07
-1.66823e-06
-6.39557e-07
-1.51206e-06
-4.29118e-07
-1.31052e-06
-2.52563e-07
-1.06781e-06
-1.17416e-07
-7.89977e-07
-3.09388e-08
-4.84962e-07
-1.63022e-07
-3.45893e-08
2.05996e-07
-1.29591e-07
5.95712e-07
-2.76132e-07
9.52076e-07
-4.654e-07
1.26697e-06
-6.88775e-07
1.53478e-06
-9.37943e-07
1.75178e-06
-1.20499e-06
1.91597e-06
-1.48247e-06
2.02685e-06
-1.76347e-06
2.08524e-06
-2.04166e-06
2.09297e-06
-2.31129e-06
2.05272e-06
-2.56719e-06
1.96778e-06
-2.8048e-06
1.84189e-06
-3.02012e-06
1.67911e-06
-3.20968e-06
1.48374e-06
-3.37053e-06
1.2602e-06
-3.50024e-06
1.01304e-06
-3.5968e-06
7.46881e-07
-3.6587e-06
4.66432e-07
-3.68485e-06
1.76512e-07
-3.67464e-06
-1.17944e-07
-3.62789e-06
-4.1186e-07
-3.54496e-06
-7.00004e-07
-3.42672e-06
-9.76982e-07
-3.2746e-06
-1.23726e-06
-3.09067e-06
-1.47519e-06
-2.87768e-06
-1.68508e-06
-2.63909e-06
-1.86131e-06
-2.3791e-06
-1.99844e-06
-2.10273e-06
-2.0914e-06
-1.81574e-06
-2.1357e-06
-1.52467e-06
-2.12764e-06
-1.23672e-06
-2.06459e-06
-9.59698e-07
-1.94525e-06
-7.01868e-07
-1.76989e-06
-4.71787e-07
-1.5406e-06
-2.78124e-07
-1.26147e-06
-1.29472e-07
-9.38629e-07
-3.41513e-08
-5.80283e-07
-1.97173e-07
-3.75758e-08
2.43572e-07
-1.40624e-07
6.98761e-07
-2.99278e-07
1.11073e-06
-5.03716e-07
1.4714e-06
-7.44356e-07
1.77542e-06
-1.01201e-06
2.01944e-06
-1.298e-06
2.20196e-06
-1.59426e-06
2.32311e-06
-1.89337e-06
2.38435e-06
-2.18863e-06
2.38824e-06
-2.47405e-06
2.33814e-06
-2.7443e-06
2.23803e-06
-2.99476e-06
2.09234e-06
-3.2214e-06
1.90575e-06
-3.42079e-06
1.68313e-06
-3.59004e-06
1.42945e-06
-3.72674e-06
1.14974e-06
-3.82894e-06
8.49081e-07
-3.89513e-06
5.32621e-07
-3.92421e-06
2.05592e-07
-3.9155e-06
-1.26653e-07
-3.86875e-06
-4.58606e-07
-3.78418e-06
-7.84572e-07
-3.66251e-06
-1.09866e-06
-3.50501e-06
-1.39476e-06
-3.31359e-06
-1.66661e-06
-3.09084e-06
-1.90782e-06
-2.84015e-06
-2.112e-06
-2.56571e-06
-2.27288e-06
-2.2726e-06
-2.38451e-06
-1.96682e-06
-2.44148e-06
-1.65526e-06
-2.4392e-06
-1.34565e-06
-2.3742e-06
-1.0465e-06
-2.2444e-06
-7.66929e-07
-2.04946e-06
-5.16507e-07
-1.79103e-06
-3.05011e-07
-1.47296e-06
-1.42202e-07
-1.10144e-06
-3.75595e-08
-6.84925e-07
-2.34732e-07
-4.06593e-08
2.84231e-07
-1.51966e-07
8.10067e-07
-3.22981e-07
1.28174e-06
-5.42805e-07
1.69123e-06
-8.00835e-07
2.03345e-06
-1.08696e-06
2.30556e-06
-1.3917e-06
2.5067e-06
-1.70634e-06
2.63775e-06
-2.02299e-06
2.701e-06
-2.33458e-06
2.69983e-06
-2.63491e-06
2.63846e-06
-2.91855e-06
2.52168e-06
-3.18085e-06
2.35464e-06
-3.41784e-06
2.14275e-06
-3.62618e-06
1.89147e-06
-3.80307e-06
1.60634e-06
-3.94619e-06
1.29286e-06
-4.05368e-06
9.56575e-07
-4.12407e-06
6.03012e-07
-4.15626e-06
2.37782e-07
-4.14952e-06
-1.33395e-07
-4.10349e-06
-5.04631e-07
-4.01825e-06
-8.6982e-07
-3.8943e-06
-1.2226e-06
-3.73272e-06
-1.55634e-06
-3.53517e-06
-1.86415e-06
-3.30405e-06
-2.13894e-06
-3.04255e-06
-2.3735e-06
-2.75479e-06
-2.56064e-06
-2.44586e-06
-2.69344e-06
-2.12191e-06
-2.76543e-06
-1.79014e-06
-2.77096e-06
-1.45884e-06
-2.7055e-06
-1.1372e-06
-2.56603e-06
-8.35284e-07
-2.35138e-06
-5.6373e-07
-2.06258e-06
-3.33543e-07
-1.70315e-06
-1.55777e-07
-1.27921e-06
-4.1217e-08
-7.99486e-07
-2.75949e-07
-4.38704e-08
3.28102e-07
-1.63714e-07
9.2991e-07
-3.47417e-07
1.46545e-06
-5.82905e-07
1.92672e-06
-8.58465e-07
2.30901e-06
-1.16299e-06
2.61009e-06
-1.48619e-06
2.82989e-06
-1.81866e-06
2.97023e-06
-2.15203e-06
3.03437e-06
-2.47893e-06
3.02673e-06
-2.79296e-06
2.95249e-06
-3.08868e-06
2.81739e-06
-3.36147e-06
2.62744e-06
-3.60749e-06
2.38877e-06
-3.82355e-06
2.10753e-06
-4.00702e-06
1.7898e-06
-4.15575e-06
1.44159e-06
-4.26799e-06
1.06882e-06
-4.34236e-06
6.77381e-07
-4.37778e-06
2.73199e-07
-4.37347e-06
-1.37705e-07
-4.32897e-06
-5.49132e-07
-4.24416e-06
-9.5463e-07
-4.11933e-06
-1.34743e-06
-3.95525e-06
-1.72042e-06
-3.75331e-06
-2.0661e-06
-3.51557e-06
-2.37668e-06
-3.24498e-06
-2.64409e-06
-2.94545e-06
-2.86017e-06
-2.62199e-06
-3.0169e-06
-2.28083e-06
-3.10659e-06
-1.92946e-06
-3.12234e-06
-1.57662e-06
-3.05834e-06
-1.23227e-06
-2.91038e-06
-9.07407e-07
-2.67624e-06
-6.13874e-07
-2.35611e-06
-3.64023e-07
-1.953e-06
-1.70368e-07
-1.47286e-06
-4.51759e-08
-9.24677e-07
-3.21125e-07
-4.72409e-08
3.75343e-07
-1.75971e-07
1.05864e-06
-3.72766e-07
1.66224e-06
-6.24244e-07
2.17819e-06
-9.17473e-07
2.60224e-06
-1.24028e-06
2.93289e-06
-1.58146e-06
3.17108e-06
-1.93097e-06
3.31974e-06
-2.27995e-06
3.38335e-06
-2.62075e-06
3.36752e-06
-2.94687e-06
3.27862e-06
-3.25291e-06
3.12343e-06
-3.53439e-06
2.90892e-06
-3.78768e-06
2.64206e-06
-4.00982e-06
2.32967e-06
-4.19845e-06
1.97843e-06
-4.35164e-06
1.59478e-06
-4.46783e-06
1.18502e-06
-4.54578e-06
7.55323e-07
-4.58444e-06
3.11861e-07
-4.58301e-06
-1.3913e-07
-4.54092e-06
-5.91226e-07
-4.45783e-06
-1.03771e-06
-4.33376e-06
-1.4715e-06
-4.16914e-06
-1.88504e-06
-3.96493e-06
-2.27031e-06
-3.72282e-06
-2.61879e-06
-3.44535e-06
-2.92155e-06
-3.13613e-06
-3.1694e-06
-2.79996e-06
-3.35306e-06
-2.44304e-06
-3.46351e-06
-2.07303e-06
-3.49235e-06
-1.69912e-06
-3.43225e-06
-1.332e-06
-3.2775e-06
-9.83693e-07
-3.02454e-06
-6.67318e-07
-2.67249e-06
-3.96743e-07
-2.22358e-06
-1.86139e-07
-1.68346e-06
-4.94891e-08
-1.06133e-06
-3.70614e-07
-5.08064e-08
4.26149e-07
-1.8885e-07
1.19668e-06
-3.99221e-07
1.87261e-06
-6.67061e-07
2.44604e-06
-9.78076e-07
2.91325e-06
-1.31891e-06
3.27372e-06
-1.67743e-06
3.52959e-06
-2.04286e-06
3.68518e-06
-2.40593e-06
3.74641e-06
-2.75876e-06
3.72035e-06
-3.09484e-06
3.6147e-06
-3.4089e-06
3.43749e-06
-3.69671e-06
3.19673e-06
-3.95495e-06
2.9003e-06
-4.18104e-06
2.55576e-06
-4.37294e-06
2.17033e-06
-4.52905e-06
1.75089e-06
-4.64809e-06
1.30405e-06
-4.72896e-06
8.36199e-07
-4.77075e-06
3.53645e-07
-4.77262e-06
-1.37255e-07
-4.73389e-06
-6.29961e-07
-4.65399e-06
-1.11761e-06
-4.53261e-06
-1.59288e-06
-4.36975e-06
-2.0479e-06
-4.1659e-06
-2.47416e-06
-3.92221e-06
-2.86248e-06
-3.64071e-06
-3.20306e-06
-3.32451e-06
-3.48559e-06
-2.97808e-06
-3.69949e-06
-2.60743e-06
-3.83416e-06
-2.22029e-06
-3.87949e-06
-1.82621e-06
-3.82633e-06
-1.43657e-06
-3.66714e-06
-1.06446e-06
-3.39665e-06
-7.24413e-07
-3.01254e-06
-4.31987e-07
-2.516e-06
-2.03261e-07
-1.91219e-06
-5.42118e-08
-1.21038e-06
-4.24826e-07
-5.46104e-08
4.80759e-07
-2.02488e-07
1.34456e-06
-4.27013e-07
2.09714e-06
-7.11632e-07
2.73065e-06
-1.0405e-06
3.24212e-06
-1.39897e-06
3.63219e-06
-1.77386e-06
3.90449e-06
-2.15372e-06
4.06504e-06
-2.52885e-06
4.12154e-06
-2.89126e-06
4.08276e-06
-3.23452e-06
3.95797e-06
-3.55362e-06
3.75659e-06
-3.84473e-06
3.48784e-06
-4.10499e-06
3.16055e-06
-4.33227e-06
2.78304e-06
-4.52502e-06
2.36308e-06
-4.68205e-06
1.90793e-06
-4.80243e-06
1.42443e-06
-4.88532e-06
9.19086e-07
-4.92992e-06
3.98249e-07
-4.93545e-06
-1.31732e-07
-4.90107e-06
-6.64334e-07
-4.82601e-06
-1.19267e-06
-4.70955e-06
-1.70934e-06
-4.5512e-06
-2.20625e-06
-4.35088e-06
-2.67449e-06
-4.10905e-06
-3.1043e-06
-3.82706e-06
-3.48504e-06
-3.50739e-06
-3.80527e-06
-3.15394e-06
-4.05294e-06
-2.77236e-06
-4.21575e-06
-2.37026e-06
-4.28159e-06
-1.95745e-06
-4.23914e-06
-1.54595e-06
-4.07864e-06
-1.14994e-06
-3.79266e-06
-7.85485e-07
-3.377e-06
-4.7005e-07
-2.83144e-06
-2.21915e-07
-2.16033e-06
-5.94049e-08
-1.37289e-06
-4.84231e-07
-5.87094e-08
5.39469e-07
-2.1706e-07
1.50291e-06
-4.5643e-07
2.33651e-06
-7.58292e-07
3.03252e-06
-1.10503e-06
3.58886e-06
-1.4805e-06
4.00766e-06
-1.87045e-06
4.29444e-06
-2.26272e-06
4.45731e-06
-2.64726e-06
4.50609e-06
-3.01607e-06
4.45156e-06
-3.36295e-06
4.30485e-06
-3.68333e-06
4.07697e-06
-3.97392e-06
3.77843e-06
-4.23248e-06
3.41911e-06
-4.45751e-06
3.00807e-06
-4.64805e-06
2.55362e-06
-4.80347e-06
2.06334e-06
-4.92324e-06
1.5442e-06
-5.00687e-06
1.00272e-06
-5.05377e-06
4.45146e-07
-5.06318e-06
-1.22317e-07
-5.0342e-06
-6.93315e-07
-4.96577e-06
-1.26111e-06
-4.85677e-06
-1.81834e-06
-4.70615e-06
-2.35687e-06
-4.5131e-06
-2.86754e-06
-4.2773e-06
-3.3401e-06
-3.99923e-06
-3.76312e-06
-3.68049e-06
-4.12401e-06
-3.32421e-06
-4.40922e-06
-2.93541e-06
-4.60454e-06
-2.52141e-06
-4.69559e-06
-2.09205e-06
-4.6685e-06
-1.65992e-06
-4.51077e-06
-1.24028e-06
-4.2123e-06
-8.50843e-07
-3.76644e-06
-5.11239e-07
-3.17104e-06
-2.42303e-07
-2.42926e-06
-6.51385e-08
-1.55005e-06
-5.49369e-07
-6.31788e-08
6.02647e-07
-2.32796e-07
1.67253e-06
-4.87851e-07
2.59156e-06
-8.07475e-07
3.35214e-06
-1.17197e-06
3.95336e-06
-1.56355e-06
4.39923e-06
-1.96677e-06
4.69766e-06
-2.36877e-06
4.85932e-06
-2.75929e-06
4.8966e-06
-3.13043e-06
4.8227e-06
-3.47646e-06
4.65088e-06
-3.7934e-06
4.39391e-06
-4.07874e-06
4.06377e-06
-4.33102e-06
3.67139e-06
-4.54955e-06
3.22661e-06
-4.73413e-06
2.7382e-06
-4.88475e-06
2.21397e-06
-5.00147e-06
1.66092e-06
-5.08419e-06
1.08543e-06
-5.13257e-06
4.93531e-07
-5.14598e-06
-1.08911e-07
-5.12341e-06
-7.15878e-07
-5.06357e-06
-1.32095e-06
-4.96487e-06
-1.91704e-06
-4.82564e-06
-2.4961e-06
-4.64426e-06
-3.04892e-06
-4.41945e-06
-3.56491e-06
-4.15063e-06
-4.03194e-06
-3.83829e-06
-4.43635e-06
-3.48449e-06
-4.76302e-06
-3.09335e-06
-4.99568e-06
-2.67156e-06
-5.11738e-06
-2.2288e-06
-5.11127e-06
-1.77801e-06
-4.96156e-06
-1.33552e-06
-4.65479e-06
-9.20788e-07
-4.18116e-06
-5.55899e-07
-3.53593e-06
-2.64663e-07
-2.7205e-06
-7.14965e-08
-1.74322e-06
-6.20866e-07
-6.81221e-08
6.70769e-07
-2.50011e-07
1.85442e-06
-5.21781e-07
2.86333e-06
-8.59746e-07
3.69011e-06
-1.24177e-06
4.33537e-06
-1.64815e-06
4.80562e-06
-2.06222e-06
5.11173e-06
-2.47048e-06
5.26757e-06
-2.86255e-06
5.28867e-06
-3.2309e-06
5.19106e-06
-3.57047e-06
4.99045e-06
-3.87817e-06
4.70161e-06
-4.15246e-06
4.33806e-06
-4.39292e-06
3.91184e-06
-4.59983e-06
3.43352e-06
-4.77389e-06
2.91226e-06
-4.9159e-06
2.35598e-06
-5.02654e-06
1.77157e-06
-5.10625e-06
1.16514e-06
-5.155e-06
5.42285e-07
-5.17231e-06
-9.16019e-08
-5.15714e-06
-7.31047e-07
-5.10793e-06
-1.37016e-06
-5.02266e-06
-2.00231e-06
-4.89894e-06
-2.61981e-06
-4.73427e-06
-3.21359e-06
-4.52627e-06
-3.77291e-06
-4.27307e-06
-4.28514e-06
-3.97379e-06
-4.73563e-06
-3.6291e-06
-5.10771e-06
-3.24185e-06
-5.38293e-06
-2.81774e-06
-5.5415e-06
-2.3659e-06
-5.5631e-06
-1.89942e-06
-5.42804e-06
-1.43556e-06
-5.11865e-06
-9.95622e-07
-4.6211e-06
-6.04426e-07
-3.92713e-06
-2.89282e-07
-3.03564e-06
-7.85841e-08
-1.95391e-06
-6.9945e-07
-7.36827e-08
7.44452e-07
-2.6913e-07
2.04987e-06
-5.58898e-07
3.1531e-06
-9.15851e-07
4.04706e-06
-1.31494e-06
4.73446e-06
-1.73433e-06
5.22501e-06
-2.15601e-06
5.53341e-06
-2.56597e-06
5.67753e-06
-2.95397e-06
5.67667e-06
-3.31312e-06
5.55021e-06
-3.63934e-06
5.31666e-06
-3.93073e-06
4.993e-06
-4.18701e-06
4.59434e-06
-4.40902e-06
4.13385e-06
-4.59824e-06
3.62273e-06
-4.75641e-06
3.07043e-06
-4.88526e-06
2.48483e-06
-4.98625e-06
1.87256e-06
-5.06037e-06
1.23926e-06
-5.10802e-06
5.89936e-07
-5.12892e-06
-7.07097e-08
-5.12202e-06
-7.37943e-07
-5.08555e-06
-1.40663e-06
-5.01703e-06
-2.07083e-06
-4.91338e-06
-2.72347e-06
-4.77109e-06
-3.35587e-06
-4.58657e-06
-3.95743e-06
-4.35646e-06
-4.51525e-06
-4.07823e-06
-5.01386e-06
-3.75079e-06
-5.43515e-06
-3.37529e-06
-5.75844e-06
-2.95593e-06
-5.96085e-06
-2.50089e-06
-6.01814e-06
-2.02298e-06
-5.90595e-06
-1.54018e-06
-5.60146e-06
-1.07566e-06
-5.08562e-06
-6.57304e-07
-4.34548e-06
-3.16526e-07
-3.37642e-06
-8.65377e-08
-2.1839e-06
-7.85988e-07
-8.0061e-08
8.24513e-07
-2.90741e-07
2.26055e-06
-6.00111e-07
3.46247e-06
-9.76757e-07
4.4237e-06
-1.39214e-06
5.14984e-06
-1.82198e-06
5.65486e-06
-2.24697e-06
5.9584e-06
-2.65275e-06
6.08332e-06
-3.02956e-06
6.05348e-06
-3.37155e-06
5.8922e-06
-3.67601e-06
5.62112e-06
-3.9426e-06
5.25959e-06
-4.17263e-06
4.82438e-06
-4.36845e-06
4.32967e-06
-4.53292e-06
3.7872e-06
-4.66902e-06
3.20652e-06
-4.77949e-06
2.59531e-06
-4.86665e-06
1.95972e-06
-4.93215e-06
1.30475e-06
-4.97685e-06
6.34639e-07
-5.00074e-06
-4.68225e-08
-5.00284e-06
-7.35846e-07
-4.98119e-06
-1.42827e-06
-4.9329e-06
-2.11913e-06
-4.85417e-06
-2.8022e-06
-4.74052e-06
-3.46953e-06
-4.58698e-06
-4.11097e-06
-4.38856e-06
-4.71366e-06
-4.14079e-06
-5.26163e-06
-3.84042e-06
-5.73552e-06
-3.48638e-06
-6.11247e-06
-3.08084e-06
-6.36638e-06
-2.63036e-06
-6.46863e-06
-2.14694e-06
-6.38936e-06
-1.64891e-06
-6.09949e-06
-1.16123e-06
-5.5733e-06
-7.15133e-07
-4.79158e-06
-3.46872e-07
-3.74468e-06
-9.55398e-08
-2.43523e-06
-8.81528e-07
-8.75383e-08
9.12052e-07
-3.1565e-07
2.48866e-06
-6.46636e-07
3.79346e-06
-1.0437e-06
4.82076e-06
-1.47408e-06
5.58023e-06
-1.91082e-06
6.0916e-06
-2.33336e-06
6.38093e-06
-2.72736e-06
6.47731e-06
-3.08401e-06
6.41013e-06
-3.39903e-06
6.20723e-06
-3.67161e-06
5.89369e-06
-3.90337e-06
5.49135e-06
-4.09757e-06
5.01858e-06
-4.25832e-06
4.49042e-06
-4.39006e-06
3.91894e-06
-4.4971e-06
3.31357e-06
-4.58334e-06
2.68154e-06
-4.65198e-06
2.02835e-06
-4.70538e-06
1.35816e-06
-4.74493e-06
6.74191e-07
-4.77093e-06
-2.08221e-08
-4.78253e-06
-7.24249e-07
-4.77767e-06
-1.43313e-06
-4.75309e-06
-2.1437e-06
-4.70436e-06
-2.85092e-06
-4.626e-06
-3.5479e-06
-4.51168e-06
-4.22529e-06
-4.35462e-06
-4.87072e-06
-4.14815e-06
-5.4681e-06
-3.88648e-06
-5.99719e-06
-3.56578e-06
-6.43317e-06
-3.18546e-06
-6.74671e-06
-2.74966e-06
-6.90442e-06
-2.26882e-06
-6.8702e-06
-1.76099e-06
-6.60732e-06
-1.25266e-06
-6.08163e-06
-7.7868e-07
-5.26556e-06
-3.8096e-07
-4.1424e-06
-1.05842e-07
-2.71035e-06
-9.87369e-07
-9.65144e-08
1.00857e-06
-3.44967e-07
2.73711e-06
-7.00078e-07
4.14857e-06
-1.11819e-06
5.23887e-06
-1.5615e-06
6.02353e-06
-2.00009e-06
6.53019e-06
-2.41246e-06
6.7933e-06
-2.78485e-06
6.84971e-06
-3.11012e-06
6.73541e-06
-3.38624e-06
6.48335e-06
-3.61489e-06
6.12234e-06
-3.80017e-06
5.67664e-06
-3.94762e-06
5.16602e-06
-4.06336e-06
4.60617e-06
-4.15356e-06
4.00914e-06
-4.22396e-06
3.38397e-06
-4.27961e-06
2.73719e-06
-4.32464e-06
2.07338e-06
-4.36213e-06
1.39565e-06
-4.39401e-06
7.06072e-07
-4.42095e-06
6.11091e-09
-4.44227e-06
-7.02928e-07
-4.45592e-06
-1.41948e-06
-4.45839e-06
-2.14123e-06
-4.44471e-06
-2.8646e-06
-4.40852e-06
-3.58409e-06
-4.34216e-06
-4.29165e-06
-4.23704e-06
-4.97584e-06
-4.08409e-06
-5.62105e-06
-3.87464e-06
-6.20664e-06
-3.60149e-06
-6.70632e-06
-3.2605e-06
-7.0877e-06
-2.85241e-06
-7.31251e-06
-2.38501e-06
-7.3376e-06
-1.87514e-06
-7.11719e-06
-1.35027e-06
-6.60651e-06
-8.48936e-07
-5.76689e-06
-4.19669e-07
-4.57167e-06
-1.17797e-07
-3.01223e-06
-1.10517e-06
-1.07564e-07
1.11613e-06
-3.80225e-07
3.00977e-06
-7.62538e-07
4.53088e-06
-1.20202e-06
5.67836e-06
-1.65486e-06
6.47637e-06
-2.08814e-06
6.96348e-06
-2.47997e-06
7.18513e-06
-2.8181e-06
7.18784e-06
-3.09801e-06
7.01532e-06
-3.32083e-06
6.70616e-06
-3.49144e-06
6.29295e-06
-3.61696e-06
5.80215e-06
-3.70553e-06
5.25459e-06
-3.76549e-06
4.66613e-06
-3.80479e-06
4.04843e-06
-3.83059e-06
3.40977e-06
-3.84906e-06
2.75566e-06
-3.86522e-06
2.08954e-06
-3.88281e-06
1.41325e-06
-3.90429e-06
7.2755e-07
-3.9307e-06
3.2523e-08
-3.96164e-06
-6.71991e-07
-3.99515e-06
-1.38597e-06
-4.02763e-06
-2.10875e-06
-4.05377e-06
-2.83845e-06
-4.06651e-06
-3.57136e-06
-4.05703e-06
-4.30113e-06
-4.015e-06
-5.01787e-06
-3.92896e-06
-5.70709e-06
-3.78703e-06
-6.34857e-06
-3.57812e-06
-6.91522e-06
-3.29366e-06
-7.37217e-06
-2.9298e-06
-7.67637e-06
-2.49026e-06
-7.77714e-06
-1.98927e-06
-7.61818e-06
-1.45423e-06
-7.14155e-06
-9.27176e-07
-6.29394e-06
-4.64218e-07
-5.03463e-06
-1.31921e-07
-3.34452e-06
-1.23709e-06
-1.21529e-07
1.23766e-06
-4.23555e-07
3.3118e-06
-8.36713e-07
4.94404e-06
-1.29713e-06
6.13878e-06
-1.75397e-06
6.93321e-06
-2.17167e-06
7.38118e-06
-2.52899e-06
7.54245e-06
-2.81658e-06
7.47543e-06
-3.03389e-06
7.23263e-06
-3.1863e-06
6.85857e-06
-3.28272e-06
6.38937e-06
-3.33375e-06
5.85319e-06
-3.35043e-06
5.27127e-06
-3.34337e-06
4.65907e-06
-3.32225e-06
4.02732e-06
-3.29555e-06
3.38307e-06
-3.27042e-06
2.73053e-06
-3.25258e-06
2.0717e-06
-3.24636e-06
1.40703e-06
-3.25465e-06
7.3584e-07
-3.27888e-06
5.67538e-08
-3.31895e-06
-6.31918e-07
-3.37314e-06
-1.33178e-06
-3.43797e-06
-2.04392e-06
-3.50804e-06
-2.76839e-06
-3.57588e-06
-3.50352e-06
-3.63186e-06
-4.24515e-06
-3.66417e-06
-4.98556e-06
-3.65907e-06
-5.71219e-06
-3.60144e-06
-6.4062e-06
-3.4759e-06
-7.04077e-06
-3.26854e-06
-7.57954e-06
-2.96957e-06
-7.97534e-06
-2.57682e-06
-8.16989e-06
-2.09989e-06
-8.09511e-06
-1.56437e-06
-7.67707e-06
-1.01501e-06
-6.8433e-06
-5.16326e-07
-5.5333e-06
-1.48976e-07
-3.71187e-06
-1.38606e-06
-1.3967e-07
1.37733e-06
-4.77927e-07
3.65006e-06
-9.25974e-07
5.39209e-06
-1.40525e-06
6.61805e-06
-1.85714e-06
7.38511e-06
-2.24441e-06
7.76845e-06
-2.54841e-06
7.84645e-06
-2.76468e-06
7.6917e-06
-2.8984e-06
7.36635e-06
-2.96051e-06
6.92068e-06
-2.96473e-06
6.39359e-06
-2.92556e-06
5.81403e-06
-2.85703e-06
5.20274e-06
-2.7719e-06
4.57393e-06
-2.68137e-06
3.93679e-06
-2.59494e-06
3.29665e-06
-2.52044e-06
2.65603e-06
-2.46409e-06
2.01535e-06
-2.43056e-06
1.3735e-06
-2.42307e-06
7.28348e-07
-2.44337e-06
7.70514e-08
-2.4917e-06
-5.83579e-07
-2.56673e-06
-1.25676e-06
-2.6653e-06
-1.94535e-06
-2.78227e-06
-2.65141e-06
-2.91023e-06
-3.37557e-06
-3.03917e-06
-4.11621e-06
-3.15634e-06
-4.86839e-06
-3.24615e-06
-5.62238e-06
-3.29048e-06
-6.36187e-06
-3.26945e-06
-7.06179e-06
-3.16317e-06
-7.68582e-06
-2.95445e-06
-8.18406e-06
-2.63304e-06
-8.4913e-06
-2.20113e-06
-8.52702e-06
-1.67969e-06
-8.19851e-06
-1.11436e-06
-7.40864e-06
-5.78428e-07
-6.06923e-06
-1.70128e-07
-4.12017e-06
-1.55619e-06
-1.63927e-07
1.54126e-06
-5.47491e-07
4.03362e-06
-1.0343e-06
5.8789e-06
-1.52713e-06
7.11088e-06
-1.95957e-06
7.81755e-06
-2.29501e-06
8.10388e-06
-2.52045e-06
8.07189e-06
-2.63921e-06
7.81046e-06
-2.66435e-06
7.39149e-06
-2.61371e-06
6.87004e-06
-2.50652e-06
6.28639e-06
-2.36132e-06
5.66883e-06
-2.1949e-06
5.03632e-06
-2.02182e-06
4.40085e-06
-1.85431e-06
3.76927e-06