/*--------------------------------*- C++ -*----------------------------------*\
  =========                 |
  \\      /  F ield         | OpenFOAM: The Open Source CFD Toolbox
   \\    /   O peration     | Website:  https://openfoam.org
    \\  /    A nd           | Version:  6.0
     \\/     M anipulation  |
\*---------------------------------------------------------------------------*/
FoamFile
{
    version     2.0;
    format      ascii;
    class       volVectorField;
    location    "0.5";
    object      U;
}
// * * * * * * * * * * * * * * * * * * * * * * * * * * * * * * * * * * * * * //

dimensions      [0 1 -1 0 0 0 0];

internalField   nonuniform List<vector> 
1600
(
(6.04373e-05 -6.06015e-05 0)
(0.00015582 -5.71803e-05 0)
(0.000156858 -6.98816e-06 0)
(6.60909e-06 5.25932e-05 0)
(-0.000303349 0.000108206 0)
(-0.000756616 0.000155141 0)
(-0.00132872 0.000192034 0)
(-0.00199267 0.000218926 0)
(-0.00272124 0.000236389 0)
(-0.00348816 0.00024517 0)
(-0.00426867 0.000246059 0)
(-0.00503991 0.000239842 0)
(-0.00578101 0.000227282 0)
(-0.00647322 0.000209117 0)
(-0.00709989 0.000186055 0)
(-0.00764653 0.00015879 0)
(-0.00810082 0.000128003 0)
(-0.00845261 9.43758e-05 0)
(-0.00869397 5.86005e-05 0)
(-0.00881927 2.13875e-05 0)
(-0.00882521 -1.6527e-05 0)
(-0.00871095 -5.43748e-05 0)
(-0.00847816 -9.13519e-05 0)
(-0.00813115 -0.000126618 0)
(-0.00767693 -0.000159299 0)
(-0.00712528 -0.000188495 0)
(-0.00648877 -0.000213291 0)
(-0.00578275 -0.00023277 0)
(-0.00502526 -0.000246032 0)
(-0.0042369 -0.000252208 0)
(-0.00344059 -0.000250485 0)
(-0.00266128 -0.000240122 0)
(-0.00192549 -0.000220483 0)
(-0.00126071 -0.000191089 0)
(-0.000694527 -0.000151739 0)
(-0.000253188 -0.00010286 0)
(4.08043e-05 -4.63355e-05 0)
(0.000174309 1.25943e-05 0)
(0.000160335 6.01927e-05 0)
(6.02654e-05 6.00306e-05 0)
(5.86169e-05 -0.000157094 0)
(7.2475e-05 -6.9607e-05 0)
(-0.000178462 0.000182353 0)
(-0.000772749 0.000477116 0)
(-0.00172489 0.000761316 0)
(-0.00300831 0.00100981 0)
(-0.00457445 0.00121129 0)
(-0.0063639 0.00136185 0)
(-0.00831287 0.00146139 0)
(-0.0103571 0.00151182 0)
(-0.0124344 0.00151611 0)
(-0.0144857 0.0014778 0)
(-0.0164566 0.0014008 0)
(-0.0182974 0.00128914 0)
(-0.0199639 0.00114696 0)
(-0.0214173 0.000978476 0)
(-0.0226244 0.000787938 0)
(-0.0235581 0.00057968 0)
(-0.0241974 0.000358141 0)
(-0.0245272 0.000127886 0)
(-0.0245392 -0.000106368 0)
(-0.0242313 -0.00033973 0)
(-0.0236087 -0.000567142 0)
(-0.0226833 -0.00078338 0)
(-0.0214742 -0.000983096 0)
(-0.0200079 -0.00116087 0)
(-0.0183181 -0.00131129 0)
(-0.0164455 -0.00142906 0)
(-0.0144376 -0.00150913 0)
(-0.012348 -0.00154682 0)
(-0.0102358 -0.00153806 0)
(-0.00816441 -0.00147956 0)
(-0.00619993 -0.00136916 0)
(-0.00440912 -0.00120631 0)
(-0.00285639 -0.000992901 0)
(-0.00159951 -0.000734993 0)
(-0.000682927 -0.000446143 0)
(-0.000126833 -0.000153521 0)
(9.20026e-05 8.84137e-05 0)
(6.1743e-05 0.000160738 0)
(1.13551e-05 -0.000162865 0)
(-0.000172037 0.000178285 0)
(-0.000804105 0.000813878 0)
(-0.00193122 0.00153645 0)
(-0.00355421 0.00223895 0)
(-0.0056371 0.0028619 0)
(-0.00811507 0.00337369 0)
(-0.0109066 0.00375996 0)
(-0.0139222 0.00401652 0)
(-0.0170699 0.00414533 0)
(-0.0202588 0.00415207 0)
(-0.0234021 0.00404475 0)
(-0.0264184 0.00383278 0)
(-0.0292334 0.00352649 0)
(-0.0317801 0.00313679 0)
(-0.0339998 0.00267499 0)
(-0.0358422 0.00215274 0)
(-0.0372662 0.00158199 0)
(-0.0382397 0.000975025 0)
(-0.0387404 0.000344519 0)
(-0.0387554 -0.000296456 0)
(-0.0382825 -0.000934398 0)
(-0.0373294 -0.0015554 0)
(-0.0359148 -0.0021452 0)
(-0.034068 -0.00268929 0)
(-0.0318294 -0.0031731 0)
(-0.0292499 -0.00358223 0)
(-0.0263909 -0.00390273 0)
(-0.0233235 -0.00412152 0)
(-0.0201278 -0.00422685 0)
(-0.0168911 -0.00420883 0)
(-0.0137064 -0.00406019 0)
(-0.0106695 -0.00377725 0)
(-0.00787589 -0.00336128 0)
(-0.00541606 -0.00282071 0)
(-0.0033695 -0.00217489 0)
(-0.00179587 -0.00146046 0)
(-0.000723144 -0.000741214 0)
(-0.000138947 -0.00012637 0)
(1.76041e-05 0.000180076 0)
(-4.55897e-05 -2.20524e-05 0)
(-0.000464616 0.000767931 0)
(-0.00153559 0.00194152 0)
(-0.00324223 0.00322699 0)
(-0.00555529 0.00446866 0)
(-0.00842376 0.00557164 0)
(-0.0117667 0.00648091 0)
(-0.015484 0.00716836 0)
(-0.019466 0.00762335 0)
(-0.0235993 0.00784659 0)
(-0.027771 0.0078462 0)
(-0.0318723 0.00763521 0)
(-0.0358007 0.00722987 0)
(-0.0394618 0.00664861 0)
(-0.0427704 0.00591128 0)
(-0.0456518 0.00503882 0)
(-0.0480418 0.00405298 0)
(-0.0498877 0.00297623 0)
(-0.0511486 0.00183177 0)
(-0.051796 0.000643507 0)
(-0.0518139 -0.000563878 0)
(-0.0511992 -0.00176496 0)
(-0.0499625 -0.0029336 0)
(-0.0481276 -0.00404314 0)
(-0.0457324 -0.00506656 0)
(-0.0428283 -0.00597685 0)
(-0.0394803 -0.00674749 0)
(-0.0357664 -0.00735305 0)
(-0.0317766 -0.00776988 0)
(-0.0276119 -0.00797713 0)
(-0.0233819 -0.00795774 0)
(-0.0192026 -0.00769995 0)
(-0.0151932 -0.00719903 0)
(-0.0114715 -0.00645978 0)
(-0.00814861 -0.00550007 0)
(-0.00532274 -0.00435641 0)
(-0.00306925 -0.00309232 0)
(-0.00143003 -0.00181002 0)
(-0.000420251 -0.000669506 0)
(-3.68448e-05 5.98178e-05 0)
(-0.000100762 0.000278604 0)
(-0.000761579 0.00172925 0)
(-0.00229017 0.00359236 0)
(-0.00459428 0.00555674 0)
(-0.00760418 0.00742963 0)
(-0.0112478 0.0090859 0)
(-0.0154254 0.0104486 0)
(-0.0200188 0.0114757 0)
(-0.0249005 0.0121492 0)
(-0.0299389 0.012468 0)
(-0.0350034 0.0124427 0)
(-0.0399674 0.0120914 0)
(-0.0447114 0.0114383 0)
(-0.0491252 0.010511 0)
(-0.053109 0.00933996 0)
(-0.0565749 0.00795753 0)
(-0.0594476 0.00639764 0)
(-0.0616653 0.0046955 0)
(-0.0631798 0.00288754 0)
(-0.0639576 0.00101135 0)
(-0.0639799 -0.000894281 0)
(-0.0632434 -0.00278946 0)
(-0.0617603 -0.00463327 0)
(-0.0595588 -0.00638404 0)
(-0.0566833 -0.00799971 0)
(-0.0531942 -0.00943839 0)
(-0.0491675 -0.0106591 0)
(-0.0446945 -0.0116228 0)
(-0.0398803 -0.0122935 0)
(-0.0348425 -0.0126397 0)
(-0.0297088 -0.0126362 0)
(-0.024614 -0.0122665 0)
(-0.0196963 -0.0115249 0)
(-0.0150926 -0.0104205 0)
(-0.0109331 -0.00898171 0)
(-0.00733442 -0.0072629 0)
(-0.00439064 -0.00535364 0)
(-0.00216394 -0.00339035 0)
(-0.000707581 -0.00157344 0)
(-8.98717e-05 -0.000214714 0)
(-0.000151103 0.000732728 0)
(-0.00104645 0.00306298 0)
(-0.00303017 0.00577369 0)
(-0.00593162 0.00853303 0)
(-0.00963536 0.0111228 0)
(-0.0140435 0.0133947 0)
(-0.0190345 0.0152536 0)
(-0.024471 0.0166452 0)
(-0.0302078 0.0175453 0)
(-0.036097 0.0179513 0)
(-0.0419925 0.0178763 0)
(-0.0477527 0.0173447 0)
(-0.0532444 0.0163891 0)
(-0.0583442 0.0150474 0)
(-0.0629408 0.0133621 0)
(-0.0669357 0.0113784 0)
(-0.0702448 0.00914415 0)
(-0.0727986 0.00670901 0)
(-0.0745435 0.00412451 0)
(-0.0754417 0.00144389 0)
(-0.0754721 -0.00127798 0)
(-0.0746308 -0.0039847 0)
(-0.0729314 -0.0066185 0)
(-0.0704051 -0.00912065 0)
(-0.0671013 -0.011432 0)
(-0.0630873 -0.0134937 0)
(-0.0584477 -0.0152484 0)
(-0.0532842 -0.0166417 0)
(-0.0477142 -0.0176235 0)
(-0.0418689 -0.0181504 0)
(-0.0358909 -0.0181882 0)
(-0.0299312 -0.0177144 0)
(-0.0241451 -0.0167222 0)
(-0.0186874 -0.0152246 0)
(-0.0137068 -0.0132601 0)
(-0.00934062 -0.0108994 0)
(-0.00570493 -0.00825517 0)
(-0.00288719 -0.00549205 0)
(-0.000984155 -0.00284067 0)
(-0.000138247 -0.000637844 0)
(-0.000196511 0.00132999 0)
(-0.00131486 0.00475773 0)
(-0.00374177 0.00847786 0)
(-0.00723101 0.0121502 0)
(-0.0116199 0.015541 0)
(-0.0167815 0.0184858 0)
(-0.0225701 0.0208762 0)
(-0.0288271 0.022649 0)
(-0.0353893 0.0237753 0)
(-0.0420931 0.0242528 0)
(-0.0487776 0.0240983 0)
(-0.0552887 0.0233433 0)
(-0.0614808 0.0220297 0)
(-0.0672202 0.0202073 0)
(-0.0723857 0.0179313 0)
(-0.0768707 0.0152615 0)
(-0.0805839 0.0122606 0)
(-0.0834498 0.00899428 0)
(-0.0854102 0.00553068 0)
(-0.086424 0.00194011 0)
(-0.0864679 -0.00170492 0)
(-0.0855373 -0.00532994 0)
(-0.0836463 -0.00885872 0)
(-0.0808284 -0.0122138 0)
(-0.0771363 -0.0153173 0)
(-0.0726424 -0.0180919 0)
(-0.0674379 -0.020462 0)
(-0.0616329 -0.0223562 0)
(-0.0553544 -0.0237089 0)
(-0.0487452 -0.0244631 0)
(-0.0419609 -0.0245741 0)
(-0.0351673 -0.0240125 0)
(-0.0285358 -0.0227689 0)
(-0.0222391 -0.0208589 0)
(-0.016446 -0.0183292 0)
(-0.0113162 -0.0152643 0)
(-0.0069911 -0.0117959 0)
(-0.00358691 -0.00811095 0)
(-0.00124581 -0.00446186 0)
(-0.000181848 -0.00119987 0)
(-0.000237913 0.00206067 0)
(-0.00156801 0.00679892 0)
(-0.00442388 0.0116914 0)
(-0.00848826 0.0163969 0)
(-0.0135515 0.0206732 0)
(-0.0194561 0.0243463 0)
(-0.0260298 0.0272998 0)
(-0.0330916 0.0294652 0)
(-0.0404593 0.0308122 0)
(-0.0479533 0.0313406 0)
(-0.0553988 0.0310728 0)
(-0.0626294 0.0300488 0)
(-0.0694896 0.0283214 0)
(-0.0758362 0.025953 0)
(-0.0815403 0.0230133 0)
(-0.0864886 0.0195772 0)
(-0.090584 0.0157238 0)
(-0.0937465 0.0115359 0)
(-0.095914 0.007099 0)
(-0.0970425 0.0025018 0)
(-0.097107 -0.00216451 0)
(-0.0961017 -0.00680623 0)
(-0.0940407 -0.0113275 0)
(-0.0909585 -0.0156309 0)
(-0.0869101 -0.0196184 0)
(-0.081971 -0.0231926 0)
(-0.0762376 -0.0262586 0)
(-0.0698262 -0.0287261 0)
(-0.0628719 -0.0305122 0)
(-0.0555274 -0.031545 0)
(-0.0479602 -0.0317672 0)
(-0.0403501 -0.0311406 0)
(-0.0328847 -0.0296513 0)
(-0.0257554 -0.0273152 0)
(-0.0191525 -0.0241844 0)
(-0.0132604 -0.0203542 0)
(-0.00824844 -0.0159709 0)
(-0.00426384 -0.0112384 0)
(-0.00149437 -0.00642533 0)
(-0.000221688 -0.00189193 0)
(-0.000276448 0.00291699 0)
(-0.00180924 0.00917318 0)
(-0.00508144 0.0154008 0)
(-0.00970904 0.021261 0)
(-0.0154365 0.0265087 0)
(-0.022075 0.0309657 0)
(-0.0294244 0.0345123 0)
(-0.0372798 0.0370791 0)
(-0.0454394 0.0386378 0)
(-0.0537067 0.0391931 0)
(-0.0618937 0.0387754 0)
(-0.0698223 0.037435 0)
(-0.0773276 0.0352372 0)
(-0.0842585 0.0322587 0)
(-0.0904798 0.0285844 0)
(-0.0958727 0.0243058 0)
(-0.100336 0.0195191 0)
(-0.103785 0.0143248 0)
(-0.106156 0.00882706 0)
(-0.107401 0.00313337 0)
(-0.107495 -0.00264559 0)
(-0.10643 -0.00839615 0)
(-0.104219 -0.014002 0)
(-0.100896 -0.0193447 0)
(-0.0965185 -0.0243052 0)
(-0.091163 -0.0287648 0)
(-0.0849291 -0.0326076 0)
(-0.077938 -0.0357228 0)
(-0.0703314 -0.0380086 0)
(-0.0622708 -0.0393758 0)
(-0.0539348 -0.0397525 0)
(-0.0455167 -0.0390891 0)
(-0.037221 -0.0373645 0)
(-0.0292587 -0.034592 0)
(-0.0218434 -0.0308258 0)
(-0.0151865 -0.0261682 0)
(-0.0094872 -0.0207764 0)
(-0.00492541 -0.0148672 0)
(-0.00173412 -0.00872162 0)
(-0.00025906 -0.00270748 0)
(-0.00031317 0.00389344 0)
(-0.00204244 0.0118702 0)
(-0.00572173 0.019595 0)
(-0.0109035 0.0267326 0)
(-0.0172875 0.0330389 0)
(-0.024653 0.0383359 0)
(-0.0327711 0.0425051 0)
(-0.0414122 0.0454805 0)
(-0.0503535 0.0472397 0)
(-0.0593821 0.0477955 0)
(-0.0682958 0.047189 0)
(-0.076906 0.0454833 0)
(-0.0850388 0.0427582 0)
(-0.0925367 0.0391059 0)
(-0.0992589 0.034628 0)
(-0.105082 0.0294336 0)
(-0.109903 0.0236367 0)
(-0.113633 0.0173565 0)
(-0.116206 0.0107157 0)
(-0.117573 0.00384138 0)
(-0.117706 -0.0031361 0)
(-0.116596 -0.0100826 0)
(-0.114254 -0.0168609 0)
(-0.110715 -0.0233311 0)
(-0.106033 -0.0293519 0)
(-0.100287 -0.0347824 0)
(-0.0935777 -0.0394841 0)
(-0.0860295 -0.0433244 0)
(-0.0777896 -0.0461802 0)
(-0.0690269 -0.0479426 0)
(-0.0599306 -0.0485222 0)
(-0.0507077 -0.0478553 0)
(-0.0415799 -0.04591 0)
(-0.0327792 -0.0426935 0)
(-0.0245442 -0.0382584 0)
(-0.017115 -0.0327103 0)
(-0.010723 -0.0262134 0)
(-0.00558192 -0.0189947 0)
(-0.00197009 -0.0113457 0)
(-0.000295228 -0.0036428 0)
(-0.000348982 0.00498673 0)
(-0.00227139 0.0148834 0)
(-0.00635261 0.0242667 0)
(-0.0120835 0.0328051 0)
(-0.0191195 0.0402579 0)
(-0.0272076 0.0464511 0)
(-0.0360896 0.0512719 0)
(-0.0455101 0.0546618 0)
(-0.0552252 0.0566082 0)
(-0.0650043 0.0571358 0)
(-0.0746321 0.0562998 0)
(-0.0839092 0.0541786 0)
(-0.092654 0.0508684 0)
(-0.100703 0.0464792 0)
(-0.107912 0.0411307 0)
(-0.114154 0.03495 0)
(-0.119322 0.02807 0)
(-0.123329 0.0206287 0)
(-0.126105 0.0127679 0)
(-0.1276 0.00463394 0)
(-0.127784 -0.00362283 0)
(-0.126645 -0.0118479 0)
(-0.124193 -0.0198829 0)
(-0.120461 -0.027566 0)
(-0.115501 -0.0347334 0)
(-0.10939 -0.0412206 0)
(-0.102231 -0.0468654 0)
(-0.0941479 -0.0515114 0)
(-0.0852926 -0.055012 0)
(-0.0758405 -0.0572356 0)
(-0.0659907 -0.0580725 0)
(-0.0559637 -0.0574406 0)
(-0.045999 -0.0552937 0)
(-0.0363506 -0.0516285 0)
(-0.0272838 -0.0464922 0)
(-0.0190696 -0.0399895 0)
(-0.0119735 -0.0322887 0)
(-0.00624465 -0.0236243 0)
(-0.00220742 -0.0142981 0)
(-0.000331334 -0.00469708 0)
(-0.000384633 0.00619554 0)
(-0.00249953 0.0182101 0)
(-0.00698165 0.0294128 0)
(-0.0132606 0.0394756 0)
(-0.0209475 0.0481628 0)
(-0.0297565 0.055308 0)
(-0.0393993 0.0608081 0)
(-0.0495938 0.0646163 0)
(-0.0600743 0.0667343 0)
(-0.070593 0.0672028 0)
(-0.0809209 0.0660943 0)
(-0.0908491 0.0635057 0)
(-0.100189 0.0595525 0)
(-0.108772 0.0543639 0)
(-0.116451 0.0480791 0)
(-0.123098 0.0408446 0)
(-0.128606 0.0328126 0)
(-0.132884 0.0241398 0)
(-0.135864 0.0149872 0)
(-0.137493 0.00552025 0)
(-0.137739 -0.00409126 0)
(-0.13659 -0.0136727 0)
(-0.134052 -0.0230447 0)
(-0.130153 -0.0320236 0)
(-0.124943 -0.0404225 0)
(-0.118498 -0.0480527 0)
(-0.110916 -0.0547271 0)
(-0.102324 -0.0602631 0)
(-0.0928741 -0.0644881 0)
(-0.0827475 -0.0672452 0)
(-0.0721522 -0.0683998 0)
(-0.0613219 -0.0678479 0)
(-0.0505143 -0.0655239 0)
(-0.0400065 -0.0614096 0)
(-0.0300919 -0.0555419 0)
(-0.0210749 -0.0480208 0)
(-0.0132569 -0.0390154 0)
(-0.00692484 -0.028766 0)
(-0.00245099 -0.0175845 0)
(-0.000368396 -0.00587217 0)
(-0.000420749 0.00752029 0)
(-0.00272988 0.0218511 0)
(-0.00761581 0.0350344 0)
(-0.0144459 0.0467448 0)
(-0.0227859 0.0567537 0)
(-0.0323162 0.0649051 0)
(-0.0427172 0.0711095 0)
(-0.0536797 0.075337 0)
(-0.0649158 0.0776077 0)
(-0.0761601 0.0779829 0)
(-0.087171 0.0765563 0)
(-0.0977301 0.0734467 0)
(-0.107643 0.0687917 0)
(-0.116739 0.0627418 0)
(-0.124868 0.0554573 0)
(-0.131903 0.0471049 0)
(-0.137737 0.0378563 0)
(-0.14228 0.0278871 0)
(-0.145462 0.0173771 0)
(-0.147231 0.00650997 0)
(-0.147554 -0.00452552 0)
(-0.146414 -0.0155355 0)
(-0.143814 -0.0263202 0)
(-0.139779 -0.0366744 0)
(-0.134354 -0.0463879 0)
(-0.127609 -0.0552476 0)
(-0.11964 -0.0630397 0)
(-0.11057 -0.069554 0)
(-0.100553 -0.0745889 0)
(-0.0897719 -0.0779583 0)
(-0.0784433 -0.0794988 0)
(-0.0668135 -0.0790794 0)
(-0.055158 -0.07661 0)
(-0.0437782 -0.0720518 0)
(-0.0329972 -0.0654266 0)
(-0.0231546 -0.056825 0)
(-0.0145908 -0.0464134 0)
(-0.00763334 -0.0344365 0)
(-0.00270539 -0.0212166 0)
(-0.000407327 -0.00717247 0)
(-0.000457865 0.00896291 0)
(-0.00296515 0.0258105 0)
(-0.00826139 0.0411364 0)
(-0.0156494 0.0546172 0)
(-0.0246476 0.0660331 0)
(-0.0349009 0.0752418 0)
(-0.0460575 0.082172 0)
(-0.0577801 0.0868151 0)
(-0.0697581 0.089215 0)
(-0.0817092 0.0894583 0)
(-0.0933792 0.0876645 0)
(-0.104542 0.0839781 0)
(-0.115 0.0785615 0)
(-0.124579 0.0715893 0)
(-0.133131 0.0632439 0)
(-0.14053 0.0537133 0)
(-0.146671 0.0431889 0)
(-0.151466 0.031865 0)
(-0.154846 0.0199391 0)
(-0.156761 0.00761255 0)
(-0.157173 -0.00490854 0)
(-0.156064 -0.017412 0)
(-0.153433 -0.029679 0)
(-0.149298 -0.0414832 0)
(-0.143699 -0.052592 0)
(-0.136698 -0.0627668 0)
(-0.128385 -0.0717664 0)
(-0.118878 -0.0793509 0)
(-0.108329 -0.085287 0)
(-0.0969233 -0.0893553 0)
(-0.0848814 -0.091359 0)
(-0.0724615 -0.0911341 0)
(-0.0599568 -0.0885602 0)
(-0.0476934 -0.0835716 0)
(-0.0360256 -0.0761687 0)
(-0.025331 -0.0664278 0)
(-0.0159921 -0.0545089 0)
(-0.00838042 -0.0406587 0)
(-0.00297495 -0.0252107 0)
(-0.000448966 -0.00860472 0)
(-0.000496458 0.0105267 0)
(-0.00320779 0.0300954 0)
(-0.00892417 0.0477271 0)
(-0.0168801 0.0631002 0)
(-0.0265438 0.0760053 0)
(-0.0375227 0.0863178 0)
(-0.0494309 0.0939892 0)
(-0.061902 0.0990378 0)
(-0.0746026 0.101537 0)
(-0.0872337 0.101604 0)
(-0.0995302 0.0993894 0)
(-0.11126 0.0950673 0)
(-0.122222 0.0888283 0)
(-0.132244 0.0808733 0)
(-0.141181 0.0714089 0)
(-0.148911 0.0606448 0)
(-0.155332 0.0487921 0)
(-0.160361 0.0360632 0)
(-0.163931 0.0226722 0)
(-0.165992 0.00883637 0)
(-0.166506 -0.00522222 0)
(-0.165452 -0.0192751 0)
(-0.162823 -0.0330856 0)
(-0.158632 -0.0464082 0)
(-0.152908 -0.058988 0)
(-0.145705 -0.0705614 0)
(-0.137104 -0.0808592 0)
(-0.127215 -0.0896095 0)
(-0.116184 -0.0965443 0)
(-0.104194 -0.101407 0)
(-0.0914701 -0.103962 0)
(-0.0782786 -0.104005 0)
(-0.06493 -0.101379 0)
(-0.0517747 -0.0959844 0)
(-0.0392003 -0.0877926 0)
(-0.0276247 -0.0768594 0)
(-0.0174764 -0.0633337 0)
(-0.00917586 -0.047462 0)
(-0.00326376 -0.0295887 0)
(-0.000494105 -0.0101778 0)
(-0.00053698 0.0122161 0)
(-0.00346019 0.0347155 0)
(-0.00960969 0.0548181 0)
(-0.0181466 0.0722037 0)
(-0.028485 0.0866759 0)
(-0.0401917 0.0981319 0)
(-0.0528445 0.106552 0)
(-0.0660469 0.111987 0)
(-0.0794426 0.114547 0)
(-0.0927167 0.114386 0)
(-0.105594 0.11169 0)
(-0.11784 0.10667 0)
(-0.129252 0.0995458 0)
(-0.139663 0.0905488 0)
(-0.148934 0.0799108 0)
(-0.156948 0.067864 0)
(-0.163611 0.0546387 0)
(-0.168846 0.0404644 0)
(-0.17259 0.0255704 0)
(-0.174795 0.0101877 0)
(-0.175423 -0.00544794 0)
(-0.17445 -0.0210941 0)
(-0.171863 -0.0364988 0)
(-0.167665 -0.0513988 0)
(-0.161876 -0.0655186 0)
(-0.154539 -0.0785705 0)
(-0.14572 -0.0902561 0)
(-0.13552 -0.100271 0)
(-0.124073 -0.108308 0)
(-0.111557 -0.11407 0)
(-0.0981969 -0.117276 0)
(-0.0842654 -0.117675 0)
(-0.0700877 -0.115065 0)
(-0.0560389 -0.109303 0)
(-0.0425406 -0.100323 0)
(-0.0300541 -0.0881529 0)
(-0.0190585 -0.0729247 0)
(-0.010029 -0.0548809 0)
(-0.00357583 -0.0343765 0)
(-0.000543528 -0.0119028 0)
(-0.000579907 0.0140368 0)
(-0.00372477 0.0396835 0)
(-0.0103236 0.062424 0)
(-0.0194575 0.0819399 0)
(-0.0304809 0.0980507 0)
(-0.0429161 0.110681 0)
(-0.0563021 0.119845 0)
(-0.0702109 0.125636 0)
(-0.0842632 0.128207 0)
(-0.0981292 0.127756 0)
(-0.111527 0.124512 0)
(-0.12422 0.118725 0)
(-0.13601 0.110652 0)
(-0.146738 0.100555 0)
(-0.156273 0.0886934 0)
(-0.16451 0.075322 0)
(-0.171363 0.0606901 0)
(-0.176765 0.0450426 0)
(-0.180659 0.0286216 0)
(-0.183 0.0116696 0)
(-0.183751 -0.00556712 0)
(-0.182885 -0.0228352 0)
(-0.180383 -0.0398704 0)
(-0.176238 -0.0563947 0)
(-0.170457 -0.0721139 0)
(-0.163068 -0.0867172 0)
(-0.15412 -0.099878 0)
(-0.143698 -0.111257 0)
(-0.131923 -0.120507 0)
(-0.118961 -0.127284 0)
(-0.10503 -0.131254 0)
(-0.0904074 -0.132115 0)
(-0.07543 -0.129607 0)
(-0.0604959 -0.123533 0)
(-0.0460618 -0.113782 0)
(-0.0326356 -0.100343 0)
(-0.0207525 -0.0833228 0)
(-0.0109492 -0.0629555 0)
(-0.0039152 -0.0396052 0)
(-0.000598041 -0.0137928 0)
(-0.000625775 0.0159959 0)
(-0.00400433 0.0450147 0)
(-0.0110723 0.0705625 0)
(-0.020822 0.0923227 0)
(-0.0325414 0.110135 0)
(-0.0457034 0.123957 0)
(-0.0598048 0.133847 0)
(-0.0743844 0.139948 0)
(-0.0890403 0.142465 0)
(-0.10343 0.14165 0)
(-0.117267 0.137781 0)
(-0.130317 0.131152 0)
(-0.142392 0.122064 0)
(-0.153342 0.110811 0)
(-0.163051 0.097682 0)
(-0.171429 0.0829536 0)
(-0.178403 0.0668935 0)
(-0.183918 0.0497599 0)
(-0.187926 0.0318054 0)
(-0.190388 0.0132804 0)
(-0.191268 -0.00556216 0)
(-0.190537 -0.0244617 0)
(-0.188169 -0.0431456 0)
(-0.184145 -0.0613245 0)
(-0.178458 -0.0786889 0)
(-0.171116 -0.0949072 0)
(-0.162149 -0.109625 0)
(-0.15162 -0.122468 0)
(-0.139629 -0.133046 0)
(-0.126325 -0.140964 0)
(-0.111915 -0.14583 0)
(-0.0966731 -0.147277 0)
(-0.0809443 -0.144978 0)
(-0.0651475 -0.138673 0)
(-0.0497747 -0.128189 0)
(-0.0353838 -0.113464 0)
(-0.0225717 -0.094572 0)
(-0.0119457 -0.0717306 0)
(-0.0042861 -0.0453099 0)
(-0.000658518 -0.0158631 0)
(-0.000675254 0.018102 0)
(-0.00430221 0.050728 0)
(-0.0118632 0.0792547 0)
(-0.0222508 0.103368 0)
(-0.0346776 0.122933 0)
(-0.0485608 0.137948 0)
(-0.0633509 0.148527 0)
(-0.0785522 0.154871 0)
(-0.0937405 0.157252 0)
(-0.108563 0.155982 0)
(-0.122733 0.151399 0)
(-0.136025 0.143849 0)
(-0.148262 0.133676 0)
(-0.159314 0.121214 0)
(-0.169082 0.10678 0)
(-0.177496 0.0906735 0)
(-0.184502 0.0731788 0)
(-0.190059 0.054565 0)
(-0.194132 0.0350912 0)
(-0.19669 0.0150119 0)
(-0.1977 -0.00541747 0)
(-0.197131 -0.0259343 0)
(-0.19495 -0.0462623 0)
(-0.191125 -0.0661053 0)
(-0.185632 -0.0851427 0)
(-0.178457 -0.103025 0)
(-0.169605 -0.119373 0)
(-0.15911 -0.133777 0)
(-0.147046 -0.145803 0)
(-0.133537 -0.154998 0)
(-0.11877 -0.160907 0)
(-0.10301 -0.163087 0)
(-0.0866034 -0.161134 0)
(-0.0699862 -0.154705 0)
(-0.0536853 -0.143552 0)
(-0.0383113 -0.127548 0)
(-0.0245297 -0.106718 0)
(-0.0130283 -0.0812553 0)
(-0.00469315 -0.0515308 0)
(-0.000725943 -0.0181311 0)
(-0.000729217 0.0203657 0)
(-0.00462277 0.0568463 0)
(-0.012706 0.0885257 0)
(-0.0237575 0.115093 0)
(-0.036903 0.136446 0)
(-0.0514963 0.152634 0)
(-0.0669368 0.163839 0)
(-0.0826925 0.170337 0)
(-0.098319 0.172476 0)
(-0.113457 0.170642 0)
(-0.127824 0.165241 0)
(-0.141208 0.15668 0)
(-0.153455 0.145352 0)
(-0.164456 0.131631 0)
(-0.174139 0.115864 0)
(-0.182459 0.0983729 0)
(-0.189383 0.0794558 0)
(-0.194892 0.0593894 0)
(-0.198965 0.0384357 0)
(-0.201582 0.0168482 0)
(-0.202716 -0.00512083 0)
(-0.202334 -0.027212 0)
(-0.200397 -0.0491512 0)
(-0.196859 -0.0706416 0)
(-0.191676 -0.0913565 0)
(-0.184809 -0.110934 0)
(-0.176231 -0.128971 0)
(-0.165944 -0.145027 0)
(-0.153985 -0.15862 0)
(-0.140444 -0.16924 0)
(-0.125482 -0.176357 0)
(-0.109341 -0.179445 0)
(-0.0923625 -0.178004 0)
(-0.0749937 -0.171594 0)
(-0.0577939 -0.15987 0)
(-0.0414288 -0.142622 0)
(-0.0266402 -0.119809 0)
(-0.0142081 -0.0915834 0)
(-0.00514164 -0.0583128 0)
(-0.000801484 -0.0206171 0)
(-0.000788857 0.0227999 0)
(-0.00497182 0.0633977 0)
(-0.0136132 0.0984059 0)
(-0.0253595 0.127518 0)
(-0.0392347 0.150673 0)
(-0.0545192 0.167987 0)
(-0.0705564 0.179723 0)
(-0.0867768 0.186253 0)
(-0.102718 0.188016 0)
(-0.118019 0.185486 0)
(-0.13241 0.179149 0)
(-0.145702 0.169478 0)
(-0.157766 0.156923 0)
(-0.168529 0.141897 0)
(-0.177949 0.124781 0)
(-0.186012 0.105916 0)
(-0.192716 0.0856108 0)
(-0.198062 0.0641459 0)
(-0.202053 0.0417809 0)
(-0.204679 0.0187629 0)
(-0.205923 -0.00466497 0)
(-0.205751 -0.0282534 0)
(-0.204117 -0.0517372 0)
(-0.200963 -0.0748256 0)
(-0.196221 -0.0971927 0)
(-0.189823 -0.11847 0)
(-0.181709 -0.138237 0)
(-0.171837 -0.156023 0)
(-0.160202 -0.171302 0)
(-0.146849 -0.183501 0)
(-0.131898 -0.19201 0)
(-0.115558 -0.196208 0)
(-0.0981552 -0.195483 0)
(-0.0801382 -0.189277 0)
(-0.0620942 -0.177125 0)
(-0.0447458 -0.158705 0)
(-0.0289179 -0.133889 0)
(-0.0154973 -0.102773 0)
(-0.00563793 -0.0657066 0)
(-0.000886577 -0.0233442 0)
(-0.000855827 0.0254214 0)
(-0.00535729 0.0704178 0)
(-0.0146021 0.108932 0)
(-0.0270799 0.140665 0)
(-0.0416945 0.165607 0)
(-0.0576413 0.183961 0)
(-0.0742011 0.196097 0)
(-0.0907669 0.202498 0)
(-0.106862 0.203717 0)
(-0.122133 0.200333 0)
(-0.136332 0.192922 0)
(-0.1493 0.182034 0)
(-0.160949 0.168178 0)
(-0.171244 0.151812 0)
(-0.180186 0.133345 0)
(-0.187798 0.113138 0)
(-0.194111 0.0915045 0)
(-0.199158 0.0687255 0)
(-0.202963 0.045052 0)
(-0.205534 0.020718 0)
(-0.206863 -0.00404922 0)
(-0.206918 -0.0290178 0)
(-0.205649 -0.0539396 0)
(-0.202981 -0.0785377 0)
(-0.198825 -0.102495 0)
(-0.193082 -0.125444 0)
(-0.18565 -0.146956 0)
(-0.176441 -0.166533 0)
(-0.165393 -0.183607 0)
(-0.152497 -0.197544 0)
(-0.137817 -0.207648 0)
(-0.121517 -0.213188 0)
(-0.103888 -0.213426 0)
(-0.0853708 -0.207658 0)
(-0.0665721 -0.195271 0)
(-0.0482695 -0.175803 0)
(-0.0313794 -0.149003 0)
(-0.0169113 -0.114885 0)
(-0.00618991 -0.0737694 0)
(-0.000983063 -0.0263393 0)
(-0.000932454 0.0282517 0)
(-0.00579014 0.0779516 0)
(-0.0156956 0.12015 0)
(-0.0289497 0.154558 0)
(-0.0443113 0.181236 0)
(-0.0608763 0.200499 0)
(-0.0778574 0.212849 0)
(-0.0946114 0.218913 0)
(-0.110656 0.219381 0)
(-0.125653 0.214954 0)
(-0.139389 0.206313 0)
(-0.151752 0.194093 0)
(-0.162702 0.178864 0)
(-0.172255 0.161132 0)
(-0.180463 0.141333 0)
(-0.187393 0.119839 0)
(-0.193118 0.0969698 0)
(-0.197702 0.0729963 0)
(-0.201197 0.0481557 0)
(-0.203631 0.022662 0)
(-0.205008 -0.00328133 0)
(-0.205302 -0.0294678 0)
(-0.204456 -0.0556746 0)
(-0.202384 -0.0816482 0)
(-0.198973 -0.10709 0)
(-0.194089 -0.131643 0)
(-0.187588 -0.154877 0)
(-0.179326 -0.176279 0)
(-0.169178 -0.195244 0)
(-0.157065 -0.211076 0)
(-0.142981 -0.22299 0)
(-0.127024 -0.230137 0)
(-0.109433 -0.231631 0)
(-0.0906213 -0.226596 0)
(-0.0712025 -0.214236 0)
(-0.0520056 -0.193903 0)
(-0.0340441 -0.165188 0)
(-0.0184688 -0.127988 0)
(-0.00680781 -0.0825665 0)
(-0.00109337 -0.0296341 0)
(-0.00102205 0.0313188 0)
(-0.0062856 0.0860575 0)
(-0.0169253 0.132117 0)
(-0.0310096 0.169225 0)
(-0.047121 0.197536 0)
(-0.0642393 0.217514 0)
(-0.0815036 0.229832 0)
(-0.0982391 0.235294 0)
(-0.113968 0.234756 0)
(-0.128386 0.229063 0)
(-0.141329 0.219018 0)
(-0.152744 0.205343 0)
(-0.162658 0.188679 0)
(-0.171149 0.169571 0)
(-0.178325 0.14848 0)
(-0.184307 0.12579 0)
(-0.189213 0.101811 0)
(-0.193146 0.0768029 0)
(-0.196186 0.0509799 0)
(-0.198385 0.0245286 0)
(-0.199762 -0.00237911 0)
(-0.200295 -0.0295706 0)
(-0.199928 -0.0568577 0)
(-0.198563 -0.08402 0)
(-0.196063 -0.110788 0)
(-0.192263 -0.136827 0)
(-0.186969 -0.161718 0)
(-0.179977 -0.184941 0)
(-0.171093 -0.205865 0)
(-0.160153 -0.223739 0)
(-0.147061 -0.237688 0)
(-0.131828 -0.246736 0)
(-0.114618 -0.24983 0)
(-0.0957898 -0.245892 0)
(-0.0759463 -0.233898 0)
(-0.0559565 -0.212968 0)
(-0.0369351 -0.182475 0)
(-0.0201941 -0.142153 0)
(-0.00750524 -0.0921738 0)
(-0.00122083 -0.0332664 0)
(-0.00112939 0.0346604 0)
(-0.006865 0.0948115 0)
(-0.0183339 0.144905 0)
(-0.0333132 0.184694 0)
(-0.0501684 0.214469 0)
(-0.0677436 0.234888 0)
(-0.0851022 0.246849 0)
(-0.101548 0.251375 0)
(-0.116625 0.249524 0)
(-0.130083 0.24231 0)
(-0.14183 0.230667 0)
(-0.151891 0.215417 0)
(-0.160373 0.197264 0)
(-0.167429 0.176795 0)
(-0.173235 0.154488 0)
(-0.177969 0.130724 0)
(-0.181799 0.105806 0)
(-0.184868 0.0799671 0)
(-0.18729 0.0533938 0)
(-0.18914 0.0262366 0)
(-0.190454 -0.00137173 0)
(-0.19122 -0.0293011 0)
(-0.19138 -0.057407 0)
(-0.19083 -0.0855123 0)
(-0.189412 -0.113389 0)
(-0.186929 -0.140736 0)
(-0.183141 -0.16716 0)
(-0.177781 -0.192152 0)
(-0.170573 -0.215066 0)
(-0.16126 -0.235105 0)
(-0.149637 -0.251313 0)
(-0.135601 -0.26258 0)
(-0.119209 -0.26767 0)
(-0.100736 -0.265271 0)
(-0.0807433 -0.254081 0)
(-0.0601202 -0.232922 0)
(-0.0400809 -0.200881 0)
(-0.0221196 -0.157456 0)
(-0.00830087 -0.10268 0)
(-0.00137008 -0.0372825 0)
(-0.00126144 0.0383274 0)
(-0.00755836 0.104314 0)
(-0.0199798 0.158603 0)
(-0.0359299 0.200995 0)
(-0.0535049 0.231971 0)
(-0.0713941 0.252454 0)
(-0.0885875 0.263635 0)
(-0.104386 0.266813 0)
(-0.118383 0.263285 0)
(-0.130411 0.254262 0)
(-0.140476 0.24082 0)
(-0.148706 0.223881 0)
(-0.155302 0.204211 0)
(-0.160504 0.182428 0)
(-0.164563 0.159017 0)
(-0.167721 0.13435 0)
(-0.170196 0.108708 0)
(-0.172174 0.0822919 0)
(-0.173799 0.0552504 0)
(-0.175173 0.0276911 0)
(-0.176349 -0.000300457 0)
(-0.177327 -0.0286441 0)
(-0.178054 -0.0572473 0)
(-0.178418 -0.0859868 0)
(-0.178249 -0.114687 0)
(-0.177321 -0.143096 0)
(-0.175351 -0.170863 0)
(-0.172009 -0.197505 0)
(-0.166937 -0.222382 0)
(-0.15977 -0.244671 0)
(-0.150177 -0.263343 0)
(-0.137914 -0.277161 0)
(-0.122893 -0.284693 0)
(-0.105264 -0.28436 0)
(-0.085502 -0.274527 0)
(-0.0644857 -0.253638 0)
(-0.0435162 -0.2204 0)
(-0.0242886 -0.173979 0)
(-0.00922089 -0.114193 0)
(-0.00154789 -0.0417408 0)
(-0.00142859 0.0423896 0)
(-0.00840848 0.114699 0)
(-0.0219418 0.173324 0)
(-0.0389469 0.21815 0)
(-0.0571853 0.249938 0)
(-0.0751738 0.269977 0)
(-0.0918437 0.279837 0)
(-0.106524 0.281164 0)
(-0.1189 0.275542 0)
(-0.128923 0.264396 0)
(-0.13673 0.248955 0)
(-0.142576 0.230236 0)
(-0.146775 0.209056 0)
(-0.149665 0.186051 0)
(-0.151574 0.161701 0)
(-0.15281 0.136354 0)
(-0.153639 0.110255 0)
(-0.154288 0.0835675 0)
(-0.154932 0.0563917 0)
(-0.155696 0.0287857 0)
(-0.15665 0.000781692 0)
(-0.157808 -0.0275964 0)
(-0.159124 -0.0563158 0)
(-0.160487 -0.0853151 0)
(-0.161721 -0.114483 0)
(-0.162576 -0.143631 0)
(-0.162736 -0.172468 0)
(-0.161814 -0.200561 0)
(-0.159369 -0.227299 0)
(-0.154925 -0.251859 0)
(-0.148009 -0.273162 0)
(-0.138207 -0.289858 0)
(-0.125246 -0.300315 0)
(-0.109094 -0.302663 0)
(-0.0900817 -0.294872 0)
(-0.069025 -0.274917 0)
(-0.047282 -0.240996 0)
(-0.02676 -0.191808 0)
(-0.0103028 -0.126843 0)
(-0.0017643 -0.0467163 0)
(-0.00164675 0.0469447 0)
(-0.0094771 0.126143 0)
(-0.0243265 0.189202 0)
(-0.0424705 0.236163 0)
(-0.061256 0.268202 0)
(-0.0790202 0.287118 0)
(-0.0946685 0.294978 0)
(-0.107613 0.293859 0)
(-0.117684 0.285673 0)
(-0.125005 0.272082 0)
(-0.129884 0.254464 0)
(-0.132724 0.233918 0)
(-0.133971 0.211293 0)
(-0.134062 0.187221 0)
(-0.133408 0.162157 0)
(-0.132374 0.136412 0)
(-0.131274 0.110183 0)
(-0.130364 0.0835824 0)
(-0.129847 0.0566566 0)
(-0.129866 0.0294082 0)
(-0.13051 0.00181166 0)
(-0.131804 -0.0261696 0)
(-0.133715 -0.0545671 0)
(-0.136138 -0.0833882 0)
(-0.138899 -0.112595 0)
(-0.141741 -0.142077 0)
(-0.144323 -0.17162 0)
(-0.146215 -0.200865 0)
(-0.146902 -0.229263 0)
(-0.1458 -0.256022 0)
(-0.142285 -0.280052 0)
(-0.135749 -0.299915 0)
(-0.125688 -0.313799 0)
(-0.111823 -0.319522 0)
(-0.0942628 -0.314608 0)
(-0.0736775 -0.296448 0)
(-0.0514235 -0.262575 0)
(-0.0296139 -0.211031 0)
(-0.0116018 -0.140795 0)
(-0.00203488 -0.052309 0)
(-0.00194106 0.0521311 0)
(-0.0108548 0.138885 0)
(-0.0272771 0.206396 0)
(-0.0466223 0.254994 0)
(-0.0657322 0.286489 0)
(-0.0827804 0.303391 0)
(-0.0967141 0.308418 0)
(-0.107112 0.304165 0)
(-0.114028 0.292919 0)
(-0.11782 0.276582 0)
(-0.119005 0.256662 0)
(-0.118164 0.234313 0)
(-0.115877 0.210386 0)
(-0.112685 0.185482 0)
(-0.109069 0.160008 0)
(-0.105445 0.134216 0)
(-0.102157 0.108242 0)
(-0.0994855 0.082139 0)
(-0.0976485 0.0558931 0)
(-0.0968032 0.0294484 0)
(-0.0970489 0.0027199 0)
(-0.0984265 -0.0243905 0)
(-0.100915 -0.0519801 0)
(-0.104427 -0.0801281 0)
(-0.108799 -0.108876 0)
(-0.113783 -0.138202 0)
(-0.119032 -0.167988 0)
(-0.124093 -0.197973 0)
(-0.128399 -0.227703 0)
(-0.131271 -0.256464 0)
(-0.131936 -0.2832 0)
(-0.129578 -0.306441 0)
(-0.123421 -0.324228 0)
(-0.112867 -0.334079 0)
(-0.0976982 -0.333026 0)
(-0.0783196 -0.317764 0)
(-0.0559816 -0.284958 0)
(-0.032959 -0.231724 0)
(-0.0132 -0.156259 0)
(-0.0023845 -0.0586563 0)
(-0.00235273 0.0581494 0)
(-0.012677 0.153241 0)
(-0.0309829 0.225072 0)
(-0.0515238 0.274518 0)
(-0.070549 0.304356 0)
(-0.0861344 0.318095 0)
(-0.0973907 0.31929 0)