1.45 	0 	0 	-0.297417
2.35 	0 	0 	-0.131776
