/*--------------------------------*- C++ -*----------------------------------*\
  =========                 |
  \\      /  F ield         | OpenFOAM: The Open Source CFD Toolbox
   \\    /   O peration     | Website:  https://openfoam.org
    \\  /    A nd           | Version:  6.0
     \\/     M anipulation  |
\*---------------------------------------------------------------------------*/
FoamFile
{
    version     2.0;
    format      ascii;
    class       volScalarField;
    location    "0.4";
    object      p;
}
// * * * * * * * * * * * * * * * * * * * * * * * * * * * * * * * * * * * * * //

dimensions      [0 2 -2 0 0 0 0];

internalField   nonuniform List<scalar> 
1600
(
4.21009e-06
-0.00118503
-0.00391398
-0.00758669
-0.0115307
-0.0152501
-0.0183871
-0.0206895
-0.0219898
-0.0221882
-0.021239
-0.0191404
-0.0159258
-0.0116581
-0.00642456
-0.000332926
0.00649188
0.0139105
0.0217715
0.0299141
0.0381701
0.0463669
0.05433
0.0618867
0.0688693
0.0751192
0.0804919
0.0848615
0.0881263
0.090215
0.0910925
0.0907677
0.0893008
0.0868129
0.0834974
0.0796333
0.0756006
0.0719079
0.0692236
0.0681062
0.00119668
4.89447e-06
-0.00221165
-0.00506324
-0.00810621
-0.0109752
-0.0133857
-0.0151246
-0.0160418
-0.0160413
-0.015073
-0.0131256
-0.0102197
-0.00640359
-0.00174841
0.00365519
0.00970004
0.0162652
0.0232181
0.0304176
0.0377156
0.0449602
0.0519982
0.0586782
0.0648544
0.0703901
0.0751617
0.0790638
0.0820133
0.0839551
0.0848674
0.0847671
0.0837161
0.0818272
0.0792712
0.0762822
0.0731622
0.0702866
0.0681042
0.0669919
0.00393956
0.00221259
-3.43945e-05
-0.00259365
-0.00522217
-0.00765022
-0.00965422
-0.0110625
-0.0117495
-0.0116315
-0.0106624
-0.00882901
-0.00614672
-0.00265529
0.00158441
0.00649341
0.0119773
0.0179285
0.0242289
0.0307517
0.0373639
0.0439287
0.0503085
0.0563674
0.0619748
0.0670085
0.0713594
0.0749344
0.0776619
0.0794952
0.0804179
0.0804477
0.0796409
0.0780964
0.0759582
0.0734174
0.070714
0.0681299
0.0659235
0.0643059
0.0077019
0.00509268
0.00245104
-0.000177832
-0.0027326
-0.00501363
-0.0068467
-0.00810006
-0.00867535
-0.00850577
-0.00755465
-0.0058126
-0.00329447
-3.64535e-05
0.00390646
0.00846291
0.0135474
0.0190621
0.0248994
0.0309433
0.0370719
0.0431597
0.0490799
0.0547076
0.0599224
0.0646117
0.0686748
0.072026
0.0745988
0.0763496
0.0772616
0.077348
0.0766553
0.0752652
0.0732945
0.0708951
0.0682595
0.0656027
0.0630116
0.0605447
0.0118894
0.00825294
0.00504312
0.00216253
-0.000494821
-0.00278545
-0.00457674
-0.00577405
-0.00630621
-0.0061249
-0.00520515
-0.00354397
-0.00115849
0.00191603
0.00562806
0.00991152
0.0146876
0.0198661
0.0253478
0.0310254
0.0367859
0.0425126
0.0480873
0.0533931
0.058317
0.062753
0.0666057
0.0697932
0.072251
0.073935
0.0748251
0.0749272
0.0742757
0.0729344
0.0709941
0.0685714
0.0658199
0.0629028
0.0597486
0.0562819
0.0160757
0.0113691
0.00749842
0.00424834
0.00136621
-0.00104759
-0.00289398
-0.00411098
-0.00465281
-0.00448942
-0.00360848
-0.00201497
0.000269869
0.00320976
0.00675456
0.0108415
0.0153964
0.020335
0.0255642
0.0309833
0.0364863
0.041963
0.0473014
0.0523901
0.0571211
0.061392
0.0651098
0.0681938
0.0705784
0.0722166
0.0730823
0.0731725
0.0725086
0.0711366
0.0691238
0.0665571
0.06356
0.0602574
0.0564404
0.0519232
0.0199516
0.0141799
0.0096018
0.00590629
0.00271468
9.58061e-05
-0.00187721
-0.00317011
-0.00375981
-0.0036335
-0.00279153
-0.00124763
0.000971626
0.00382743
0.00726941
0.0112364
0.0156571
0.020451
0.0255296
0.0307971
0.036152
0.0414887
0.0466992
0.0516754
0.0563115
0.0605065
0.0641673
0.0672113
0.0695699
0.0711905
0.0720394
0.0721035
0.0713908
0.0699308
0.0677698
0.0649705
0.0616352
0.0578628
0.0533275
0.0477554
0.023284
0.0164714
0.0111682
0.00698368
0.00343
0.000553323
-0.00159286
-0.0029975
-0.0036574
-0.00357553
-0.00276445
-0.00124686
0.000944595
0.00376757
0.0071702
0.0110915
0.0154615
0.0202023
0.0252279
0.0304458
0.0357573
0.0410596
0.0462466
0.0512116
0.0558487
0.0600562
0.0637385
0.0668093
0.0691943
0.0708337
0.0716849
0.0717235
0.0709444
0.0693616
0.0670036
0.0639134
0.0601792
0.0558838
0.0506016
0.0439869
0.025891
0.0180644
0.0120331
0.00733719
0.00339174
0.000226799
-0.00211888
-0.00365368
-0.00439176
-0.00435036
-0.00355359
-0.00203306
0.000172185
0.00301552
0.00644267
0.0103917
0.014793
0.0195695
0.0246369
0.029904
0.035274
0.0406447
0.0459106
0.0509643
0.0556984
0.0600081
0.0637935
0.0669625
0.0694334
0.0711377
0.0720221
0.0720505
0.0712046
0.0694842
0.0669022
0.0634862
0.0593152
0.0544639
0.0484186
0.040773
0.0276219
0.0188035
0.0120468
0.00682978
0.00247838
-0.000988965
-0.00354466
-0.00521361
-0.00602526
-0.00600987
-0.00520241
-0.00364319
-0.0013779
0.0015421
0.00505944
0.00911042
0.0136247
0.0185252
0.0237279
0.0291421
0.0346712
0.0402126
0.0456598
0.0509032
0.0558322
0.0603373
0.0643123
0.0676578
0.0702828
0.0721084
0.0730696
0.0731174
0.0722204
0.0703647
0.0675498
0.0637903
0.0591606
0.0537321
0.0469111
0.0382367
0.028344
0.0185469
0.0110687
0.00532831
0.000567446
-0.00320421
-0.00596776
-0.00776263
-0.00863209
-0.00861843
-0.00776698
-0.00612661
-0.00374978
-0.000692927
0.00298295
0.00721175
0.0119217
0.0170348
0.0224665
0.0281258
0.0339149
0.0397302
0.0454627
0.0509993
0.0562249
0.0610235
0.0652816
0.06889
0.0717472
0.0737621
0.0748566
0.0749679
0.0740508
0.0720779
0.0690361
0.0649293
0.0598299
0.0538097
0.0461985
0.036484
0.0279317
0.0171595
0.00896192
0.00270019
-0.00246618
-0.00653459
-0.0094934
-0.0113954
-0.0122967
-0.0122512
-0.0113142
-0.0095433
-0.00699772
-0.00373934
0.000166824
0.0046518
0.00964177
0.0150574
0.020813
0.0268162
0.0329679
0.039162
0.0452864
0.0512237
0.0568525
0.0620496
0.0666919
0.0706595
0.0738383
0.0761233
0.0774216
0.0776554
0.0767643
0.0747073
0.0714583
0.0670118
0.0614399
0.054817
0.0463967
0.035616
0.0262595
0.0145064
0.00558861
-0.00119005
-0.00675248
-0.0111024
-0.0142348
-0.0162154
-0.017113
-0.016993
-0.0159208
-0.0139626
-0.0111849
-0.00765531
-0.00344306
0.00137959
0.0067365
0.0125465
0.0187225
0.0251704
0.0317892
0.03847
0.0450968
0.0515468
0.0576919
0.0634
0.0685375
0.0729717
0.0765741
0.0792241
0.0808119
0.0812426
0.0804395
0.0783461
0.0749231
0.0701551
0.0641147
0.0568799
0.0476261
0.0357379
0.0231966
0.0104475
0.000805614
-0.00648412
-0.0124286
-0.017038
-0.020314
-0.0223354
-0.0231843
-0.0229377
-0.0216719
-0.019462
-0.0163821
-0.0125058
-0.00790706
-0.00266151
0.00315219
0.00945098
0.0161461
0.0231419
0.030335
0.0376137
0.0448576
0.0519383
0.0587198
0.0650605
0.0708145
0.0758351
0.0799775
0.0831029
0.0850826
0.085802
0.0851656
0.0830994
0.0795492
0.0744884
0.0679898
0.0601356
0.050018
0.0369665
0.0186025
0.00483405
-0.00553932
-0.0133331
-0.0196413
-0.0244813
-0.0278621
-0.0298769
-0.0306219
-0.030187
-0.0286597
-0.0261251
-0.0226655
-0.0183608
-0.0132899
-0.00753205
-0.0011683
0.00571648
0.0130321
0.0206814
0.028559
0.0365504
0.0445309
0.0523662
0.0599122
0.0670166
0.0735204
0.0792611
0.0840754
0.0878042
0.0902967
0.0914157
0.0910435
0.0890857
0.0854702
0.080157
0.073218
0.0647387
0.0537214
0.0394366
0.012324
-0.00249585
-0.0136112
-0.0219005
-0.0285494
-0.0335835
-0.0370211
-0.0389711
-0.0395457
-0.0388492
-0.036982
-0.0340402
-0.0301149
-0.025293
-0.0196585
-0.0132941
-0.00628337
0.00128755
0.00932749
0.0177384
0.0264136
0.0352361
0.0440775
0.0527976
0.0612442
0.0692538
0.0766534
0.0832629
0.0888986
0.0933782
0.0965253
0.0981764
0.0981873
0.0964392
0.0928379
0.0873263
0.0799735
0.0708665
0.0589089
0.0433075
0.00419097
-0.0117207
-0.0235917
-0.0323659
-0.0393264
-0.0445094
-0.0479441
-0.0497583
-0.0500828
-0.0490384
-0.0467406
-0.0432976
-0.0388109
-0.0333747
-0.0270784
-0.0200084
-0.0122497
-0.00388956
0.00498094
0.0142638
0.0238519
0.033627
0.0434578
0.053199
0.0626904
0.0717573
0.0802119
0.0878552
0.0944809
0.0998801
0.103847
0.106188
0.106726
0.105313
0.101826
0.0961869
0.088458
0.0787256
0.0657834
0.0487686
-0.00598608
-0.0230398
-0.0356831
-0.0449286
-0.052164
-0.0574389
-0.060797
-0.0623886
-0.0623667
-0.0608722
-0.0580379
-0.0539867
-0.0488311
-0.0426741
-0.0356106
-0.0277299
-0.0191186
-0.00986331
-5.41868e-05
0.0102123
0.0208303
0.0316818
0.0426339
0.0535375
0.0642254
0.0745122
0.0841946
0.0930539
0.100859
0.107371
0.11235
0.115566
0.116805
0.115879
0.112633
0.106959
0.0989069
0.0885586
0.074585
0.0560468
-0.0184207
-0.0366783
-0.0501136
-0.059812
-0.0672752
-0.07257
-0.0757593
-0.0770213
-0.0765362
-0.0744693
-0.0709744
-0.0661914
-0.0602462
-0.0532508
-0.045306
-0.0365037
-0.0269308
-0.0166723
-0.00581539
0.00554691
0.017312
0.0293643
0.0415716
0.0537829
0.0658254
0.077504
0.0886007
0.0988758
0.108071
0.115915
0.12213
0.126441
0.128587
0.128338
0.12549
0.119899
0.111596
0.100652
0.0855989
0.0654137
-0.0333553
-0.0528931
-0.0671436
-0.0772697
-0.0848989
-0.0901212
-0.0930252
-0.0938244
-0.092733
-0.0899464
-0.0856439
-0.079986
-0.0731137
-0.0651494
-0.0561995
-0.0463581
-0.0357109
-0.0243395
-0.0123257
0.000243314
0.0132712
0.0266475
0.0402437
0.0539096
0.0674695
0.0807203
0.0934301
0.105339
0.116159
0.125584
0.13329
0.138953
0.142258
0.142913
0.140661
0.135306
0.12685
0.115346
0.099166
0.0771948
-0.0510682
-0.0719816
-0.0870744
-0.0975925
-0.105306
-0.110335
-0.112805
-0.112974
-0.111099
-0.107413
-0.102128
-0.0954276
-0.0874711
-0.0783921
-0.0683027
-0.0572978
-0.0454602
-0.0328655
-0.0195875
-0.00570388
0.00869842
0.0235181
0.038634
0.0539004
0.0691421
0.0841513
0.0986842
0.112461
0.125165
0.13645
0.145943
0.153261
0.158021
0.159862
0.158453
0.15353
0.145054
0.133046
0.115694
0.0917812
-0.0718833
-0.0942933
-0.110259
-0.121118
-0.128804
-0.133483
-0.135325
-0.13465
-0.13177
-0.126966
-0.120487
-0.112548
-0.103327
-0.0929703
-0.0815949
-0.0692952
-0.0561483
-0.0422208
-0.0275748
-0.0122747
0.00360676
0.0199818
0.0367415
0.0537494
0.0708358
0.087792
0.104366
0.120261
0.135132
0.148589
0.160208
0.169534
0.176107
0.179476
0.179219
0.174983
0.166664
0.154237
0.135676
0.109644
-0.0961839
-0.120246
-0.137119
-0.148245
-0.155751
-0.159866
-0.160829
-0.159037
-0.154874
-0.148681
-0.140754
-0.131344
-0.120651
-0.108833
-0.096013
-0.0822804
-0.0677041
-0.0523373
-0.0362261
-0.0194165
-0.00196199
0.0160689
0.0345853
0.0534662
0.0725534
0.0916437
0.110482
0.128758
0.1461
0.162078
0.176207
0.187955
0.196768
0.202086
0.203369
0.200147
0.192226
0.179508
0.159706
0.131353
-0.124433
-0.150348
-0.168166
-0.179447
-0.186561
-0.189826
-0.189576
-0.186314
-0.180516
-0.172599
-0.162919
-0.151763
-0.139359
-0.125877
-0.11144
-0.0961312
-0.080006
-0.0630995
-0.0454358
-0.0270369
-0.00793085
0.0118398
0.0322092
0.0530794
0.0743111
0.0957144
0.117039
0.137968
0.158108
0.176989
0.194062
0.208714
0.220277
0.228061
0.231375
0.229594
0.222394
0.209568
0.188513
0.157603
-0.157203
-0.185234
-0.20403
-0.2153
-0.221721
-0.223744
-0.221839
-0.216648
-0.20877
-0.198717
-0.186911
-0.173689
-0.159301
-0.143929
-0.127692
-0.110662
-0.0928728
-0.0743361
-0.0550474
-0.0349977
-0.0141823
0.00738954
0.0296852
0.0526386
0.0761388
0.100019
0.124045
0.147901
0.171181
0.193381
0.21389
0.232003
0.246927
0.257812
0.263779
0.263996
0.257959
0.245293
0.222995
0.189251
-0.195218
-0.225712
-0.245508
-0.256511
-0.261808
-0.262048
-0.257895
-0.25018
-0.239659
-0.22696
-0.212586
-0.196922
-0.180244
-0.162737
-0.144509
-0.125612
-0.106055
-0.0858132
-0.0648476
-0.04311
-0.0205549
0.00285031
0.0271153
0.0522155
0.0780801
0.104578
0.131502
0.158554
0.185327
0.211293
0.235786
0.258005
0.277019
0.291789
0.3012
0.304151
0.299881
0.287764
0.264279
0.227364
-0.239425
-0.272836
-0.293621
-0.303958
-0.307505
-0.305211
-0.298014
-0.287002
-0.273128
-0.257161
-0.239694
-0.22116
-0.201851
-0.181948
-0.161539
-0.140642
-0.119228
-0.0972306
-0.0745644
-0.0511335
-0.0268431
-0.00160949
0.0246291
0.0519011
0.0801879
0.109408
0.139401
0.169901
0.20052
0.230724
0.259804
0.28687
0.310843
0.330467
0.344337
0.351
0.349332
0.338339
0.313794
0.273295
-0.291092
-0.328017
-0.349702
-0.358744
-0.359624
-0.353744
-0.342434
-0.327121
-0.309008
-0.289023
-0.267852
-0.245968
-0.223666
-0.201103
-0.178331
-0.155322
-0.131992
-0.108222
-0.0838696
-0.0587808
-0.0328026
-0.00579097
0.0223782
0.0517979
0.0825158
0.114518
0.147707
0.181876
0.216683
0.251609
0.285933
0.318689
0.348651
0.374326
0.393959
0.405644
0.407756
0.398743
0.373392
0.328798
-0.351976
-0.393189
-0.415522
-0.422261
-0.419113
-0.408171
-0.391314
-0.370413
-0.346965
-0.322075
-0.296508
-0.270756
-0.245091
-0.219621
-0.194335
-0.169138
-0.143878
-0.118365
-0.092388
-0.0657274
-0.0381615
-0.00947694
0.0205227
0.0520067
0.0851037
0.119885
0.156341
0.194352
0.233653
0.273786
0.314048
0.353439
0.390606
0.423808
0.450888
0.469366
0.476929
0.471199
0.445527
0.396208
-0.424603
-0.471068
-0.493465
-0.496264
-0.487058
-0.468977
-0.444662
-0.416534
-0.38643
-0.355614
-0.3249
-0.294752
-0.265377
-0.236794
-0.208898
-0.181499
-0.154355
-0.127191
-0.0997152
-0.0716308
-0.0426398
-0.0124515
0.0192117
0.0526063
0.0879562
0.125437
0.165153
0.207105
0.251149
0.296939
0.343854
0.390916
0.436699
0.479238
0.515936
0.543616
0.559039
0.55861
0.533527
0.478735
-0.512738
-0.565571
-0.586768
-0.582942
-0.564632
-0.536503
-0.502205
-0.464815
-0.426502
-0.388638
-0.352008
-0.316976
-0.283612
-0.251796
-0.221283
-0.191757
-0.16286
-0.134218
-0.105445
-0.0761583
-0.0459772
-0.0145275
0.0185561
0.0536262
0.0910146
0.13102
0.173887
0.219776
0.268716
0.32054
0.374795
0.430624
0.486627
0.540691
0.589796
0.629961
0.65675
0.6648
0.642031
0.580981
-0.622256
-0.682469
-0.699834
-0.684947
-0.652962
-0.610746
-0.563199
-0.514089
-0.465829
-0.419764
-0.376514
-0.336222
-0.298729
-0.263697
-0.230693
-0.199236
-0.168831
-0.138982
-0.109205
-0.0790218
-0.047967
-0.01558
0.0185958
0.055014
0.0941238
0.136363
0.182142
0.231822
0.285663
0.343763
0.405949
0.471632
0.539606
0.60778
0.672827
0.729941
0.773224
0.794841
0.777673
0.709862
-0.762776
-0.830441
-0.838601
-0.805309
-0.75284
-0.69102
-0.626123
-0.562467
-0.502457
-0.447147
-0.396768
-0.351067
-0.309527
-0.271505
-0.236319
-0.203287
-0.171751
-0.141087
-0.110699
-0.0800197
-0.0484957
-0.0155826
0.0192651
0.0566025
0.0969999
0.141045
0.189336
0.24247
0.301003
0.365394
0.435894
0.512383
0.59411
0.67932
0.764683
0.844744
0.912023
0.955407
0.950173
0.87637
-0.950987
-1.02276
-1.0108
-0.947001
-0.864074
-0.775352
-0.68822
-0.607037
-0.533663
-0.468411
-0.410784
-0.359898
-0.314725
-0.274222
-0.237398
-0.203338
-0.171208
-0.140249
-0.109758
-0.0790781
-0.0475795
-0.0146417
0.0203622
0.0580815
0.0992036
0.144467
0.194671
0.250676
0.313393
0.383738
0.462555
0.550447
0.647498
0.7528
0.863638
0.974498
1.07661
1.15502
1.17407
1.09913
-1.21739
-1.27974
-1.22557
-1.11157
-0.98408
-0.859373
-0.744753
-0.643426
-0.555738
-0.480567
-0.416236
-0.360956
-0.313025
-0.270911
-0.233276
-0.198956
-0.166942
-0.136345
-0.106368
-0.0762823
-0.0453928
-0.0130196
0.0215288
0.0589803
0.100125
0.14584
0.19712
0.255102
0.321085
0.396531
0.483036
0.582222
0.695494
0.823546
0.965361
1.11672
1.26887
1.40354
1.47119
1.41148
-1.61796
-1.63103
-1.49159
-1.29673
-1.10589
-0.935002
-0.788308
-0.665542
-0.56398
-0.480138
-0.410639
-0.352515
-0.303266
-0.260831
-0.223518
-0.189931
-0.158907
-0.129456
-0.100713
-0.0718966
-0.0422752
-0.0111325
0.0222632
0.0586922
0.0990185
0.144231
0.195492
0.254191
0.322014
0.401007
0.493642
0.602831
0.731842
0.883958
1.06154
1.26421
1.48651
1.71014
1.87249
1.87305
-2.25465
-2.11596
-1.81356
-1.49437
-1.21741
-0.990511
-0.809413
-0.666452
-0.553625
-0.464013
-0.392068
-0.333472
-0.284904
-0.243806
-0.20819
-0.176487
-0.147431
-0.119975
-0.0932254
-0.0663855
-0.0387163
-0.00949676
0.0220129
0.0566096
0.0951912
0.13881
0.188738
0.246559
0.31428
0.394491
0.490553
0.606841
0.748971
0.923924
1.13976
1.40418
1.72087
2.07931
2.41794
2.58938
-3.35484
-2.78413
-2.17258
-1.67559
-1.29249
-1.00569
-0.794116
-0.63725
-0.519314
-0.429163
-0.358966
-0.303178
-0.257836
-0.220058
-0.187703
-0.159137
-0.133081
-0.108496
-0.084509
-0.0603525
-0.0353182
-0.00871656
0.0201619
0.0520873
0.0879378
0.12876
0.17585
0.230864
0.295983
0.374152
0.46943
0.587518
0.736489
0.927844
1.17792
1.50824
1.9407
2.49092
3.15895
3.79333
-5.51253
-3.66688
-2.43143
-1.71353
-1.24144
-0.921594
-0.704689
-0.553833
-0.445393
-0.365136
-0.304133
-0.25653
-0.218373
-0.186898
-0.160112
-0.136524
-0.11498
-0.0945545
-0.0744718
-0.0540542
-0.0326773
-0.00973328
0.0154039
0.0434157
0.0750829
0.111343
0.153368
0.202679
0.26132
0.332131
0.419193
0.528566
0.669534
0.856883
1.11518
1.48356
2.01536
2.80593
4.1297
6.08279
-9.19564
-4.52338
-2.3068
-1.42102
-0.959055
-0.683079
-0.512383
-0.400678
-0.32299
-0.266475
-0.22394
-0.190953
-0.164604
-0.142884
-0.124334
-0.107859
-0.0925964
-0.0778495
-0.0630275
-0.0476092
-0.0311117
-0.0130637
0.00701974
0.0296643
0.0554688
0.0851462
0.119581
0.159911
0.207657
0.264931
0.334795
0.421914
0.533837
0.683856
0.897599
1.22422
1.75379
2.73387
5.06521
9.85781
)
;

boundaryField
{
    movingWall
    {
        type            zeroGradient;
    }
    fixedWalls
    {
        type            zeroGradient;
    }
    frontAndBack
    {
        type            empty;
    }
}


// ************************************************************************* //
