/*--------------------------------*- C++ -*----------------------------------*\
  =========                 |
  \\      /  F ield         | OpenFOAM: The Open Source CFD Toolbox
   \\    /   O peration     | Website:  https://openfoam.org
    \\  /    A nd           | Version:  6.0
     \\/     M anipulation  |
\*---------------------------------------------------------------------------*/
FoamFile
{
    version     2.0;
    format      ascii;
    class       volVectorField;
    location    "0.4";
    object      U;
}
// * * * * * * * * * * * * * * * * * * * * * * * * * * * * * * * * * * * * * //

dimensions      [0 1 -1 0 0 0 0];

internalField   nonuniform List<vector> 
1600
(
(6.05536e-05 -6.05267e-05 0)
(0.000155959 -5.71599e-05 0)
(0.000156875 -7.01371e-06 0)
(6.60635e-06 5.25404e-05 0)
(-0.000303319 0.000108132 0)
(-0.000756522 0.000155049 0)
(-0.00132853 0.000191928 0)
(-0.00199238 0.000218808 0)
(-0.00272083 0.000236262 0)
(-0.00348762 0.000245038 0)
(-0.004268 0.000245927 0)
(-0.00503911 0.000239715 0)
(-0.00578009 0.000227163 0)
(-0.00647218 0.000209007 0)
(-0.00709875 0.000185957 0)
(-0.0076453 0.000158705 0)
(-0.00809952 0.000127935 0)
(-0.00845125 9.43264e-05 0)
(-0.00869257 5.85715e-05 0)
(-0.00881785 2.13791e-05 0)
(-0.00882379 -1.65154e-05 0)
(-0.00870955 -5.43438e-05 0)
(-0.0084768 -9.13019e-05 0)
(-0.00812985 -0.000126549 0)
(-0.00767571 -0.000159213 0)
(-0.00712415 -0.000188393 0)
(-0.00648775 -0.000213176 0)
(-0.00578185 -0.000232646 0)
(-0.00502449 -0.000245901 0)
(-0.00423626 -0.000252074 0)
(-0.00344008 -0.000250353 0)
(-0.0026609 -0.000239995 0)
(-0.00192523 -0.000220364 0)
(-0.00126056 -0.000190979 0)
(-0.000694469 -0.000151642 0)
(-0.000253193 -0.000102779 0)
(4.07649e-05 -4.62743e-05 0)
(0.000174267 1.26339e-05 0)
(0.000160349 6.02144e-05 0)
(6.02935e-05 6.00437e-05 0)
(5.87109e-05 -0.00015694 0)
(7.26e-05 -6.95168e-05 0)
(-0.000178395 0.000182345 0)
(-0.000772628 0.000477025 0)
(-0.00172463 0.000761155 0)
(-0.00300786 0.00100959 0)
(-0.00457375 0.00121102 0)
(-0.00636289 0.00136154 0)
(-0.00831153 0.00146106 0)
(-0.0103554 0.00151148 0)
(-0.0124323 0.00151576 0)
(-0.0144833 0.00147747 0)
(-0.0164538 0.00140048 0)
(-0.0182944 0.00128885 0)
(-0.0199606 0.0011467 0)
(-0.0214137 0.000978255 0)
(-0.0226206 0.00078776 0)
(-0.0235542 0.000579551 0)
(-0.0241933 0.000358065 0)
(-0.0245231 0.000127864 0)
(-0.0245351 -0.000106336 0)
(-0.0242273 -0.000339646 0)
(-0.0236048 -0.000567007 0)
(-0.0226795 -0.000783197 0)
(-0.0214706 -0.000982867 0)
(-0.0200046 -0.0011606 0)
(-0.0183151 -0.00131099 0)
(-0.0164428 -0.00142873 0)
(-0.0144352 -0.00150878 0)
(-0.012346 -0.00154646 0)
(-0.0102342 -0.00153771 0)
(-0.00816316 -0.00147922 0)
(-0.00619901 -0.00136886 0)
(-0.0044085 -0.00120604 0)
(-0.00285603 -0.00099267 0)
(-0.00159935 -0.000734811 0)
(-0.000682903 -0.00044602 0)
(-0.000126864 -0.000153466 0)
(9.20405e-05 8.84066e-05 0)
(6.17932e-05 0.000160711 0)
(1.14311e-05 -0.000162734 0)
(-0.000171912 0.000178393 0)
(-0.000803948 0.000813855 0)
(-0.0019309 0.00153627 0)
(-0.00355362 0.00223863 0)
(-0.00563617 0.00286145 0)
(-0.00811372 0.00337315 0)
(-0.0109048 0.00375934 0)
(-0.0139199 0.00401585 0)
(-0.017067 0.00414463 0)
(-0.0202553 0.00415137 0)
(-0.0233981 0.00404406 0)
(-0.0264139 0.00383213 0)
(-0.0292284 0.0035259 0)
(-0.0317747 0.00313627 0)
(-0.033994 0.00267455 0)
(-0.0358361 0.00215239 0)
(-0.0372598 0.00158173 0)
(-0.0382332 0.000974872 0)
(-0.0387338 0.000344474 0)
(-0.0387488 -0.000296391 0)
(-0.038276 -0.000934226 0)
(-0.0373231 -0.00155512 0)
(-0.0359087 -0.00214482 0)
(-0.0340623 -0.00268883 0)
(-0.031824 -0.00317256 0)
(-0.029245 -0.00358161 0)
(-0.0263865 -0.00390206 0)
(-0.0233197 -0.00412081 0)
(-0.0201245 -0.00422612 0)
(-0.0168884 -0.00420811 0)
(-0.0137042 -0.00405951 0)
(-0.0106678 -0.00377663 0)
(-0.00787468 -0.00336073 0)
(-0.00541525 -0.00282027 0)
(-0.00336903 -0.00217456 0)
(-0.00179566 -0.00146025 0)
(-0.000723088 -0.000741126 0)
(-0.000138881 -0.000126395 0)
(1.76616e-05 0.000180006 0)
(-4.55097e-05 -2.1978e-05 0)
(-0.000464453 0.000767936 0)
(-0.00153531 0.00194132 0)
(-0.00324166 0.00322655 0)
(-0.00555432 0.00446797 0)
(-0.00842229 0.00557074 0)
(-0.0117646 0.00647983 0)
(-0.0154813 0.00716715 0)
(-0.0194626 0.00762205 0)
(-0.0235952 0.00784525 0)
(-0.0277662 0.00784486 0)
(-0.0318667 0.0076339 0)
(-0.0357944 0.00722864 0)
(-0.0394549 0.00664748 0)
(-0.042763 0.00591029 0)
(-0.0456439 0.00503799 0)
(-0.0480334 0.00405231 0)
(-0.049879 0.00297575 0)
(-0.0511398 0.00183148 0)
(-0.051787 0.000643423 0)
(-0.0518049 -0.000563754 0)
(-0.0511904 -0.00176463 0)
(-0.0499539 -0.00293308 0)
(-0.0481194 -0.00404243 0)
(-0.0457246 -0.00506567 0)
(-0.042821 -0.00597581 0)
(-0.0394735 -0.00674632 0)
(-0.0357603 -0.00735177 0)
(-0.0317713 -0.00776854 0)
(-0.0276073 -0.00797575 0)
(-0.023378 -0.00795638 0)
(-0.0191995 -0.00769864 0)
(-0.0151907 -0.00719782 0)
(-0.0114696 -0.00645871 0)
(-0.00814731 -0.00549919 0)
(-0.00532191 -0.00435573 0)
(-0.0030688 -0.00309186 0)
(-0.00142984 -0.00180978 0)
(-0.000420141 -0.000669458 0)
(-3.67784e-05 5.97722e-05 0)
(-0.000100666 0.000278612 0)
(-0.000761358 0.00172907 0)
(-0.00228975 0.00359187 0)
(-0.00459346 0.00555588 0)
(-0.00760281 0.00742842 0)
(-0.0112457 0.00908437 0)
(-0.0154226 0.0104468 0)
(-0.0200152 0.0114737 0)
(-0.024896 0.0121471 0)
(-0.0299336 0.0124659 0)
(-0.0349972 0.0124405 0)
(-0.0399603 0.0120894 0)
(-0.0447035 0.0114364 0)
(-0.0491165 0.0105092 0)
(-0.0530996 0.00933837 0)
(-0.0565649 0.00795619 0)
(-0.0594372 0.00639658 0)
(-0.0616545 0.00469474 0)
(-0.0631687 0.00288709 0)
(-0.0639464 0.00101122 0)
(-0.0639687 -0.000894082 0)
(-0.0632324 -0.00278893 0)
(-0.0617495 -0.00463243 0)
(-0.0595485 -0.0063829 0)
(-0.0566735 -0.00799829 0)
(-0.053185 -0.00943673 0)
(-0.049159 -0.0106572 0)
(-0.0446868 -0.0116208 0)
(-0.0398735 -0.0122913 0)
(-0.0348366 -0.0126375 0)
(-0.0297037 -0.012634 0)
(-0.0246098 -0.0122644 0)
(-0.019693 -0.0115229 0)
(-0.0150901 -0.0104187 0)
(-0.0109313 -0.00898022 0)
(-0.00733321 -0.00726173 0)
(-0.00438993 -0.00535282 0)
(-0.00216361 -0.00338987 0)
(-0.000707409 -0.00157326 0)
(-8.97893e-05 -0.000214709 0)
(-0.000150986 0.000732649 0)
(-0.00104616 0.00306256 0)
(-0.00302961 0.0057728 0)
(-0.00593052 0.00853164 0)
(-0.00963358 0.0111209 0)
(-0.0140409 0.0133924 0)
(-0.0190311 0.0152509 0)
(-0.0244665 0.0166423 0)
(-0.0302023 0.0175422 0)
(-0.0360905 0.0179481 0)
(-0.0419849 0.0178732 0)
(-0.0477442 0.0173417 0)
(-0.0532349 0.0163862 0)
(-0.0583339 0.0150448 0)
(-0.0629296 0.0133598 0)
(-0.0669239 0.0113765 0)
(-0.0702324 0.00914264 0)
(-0.0727859 0.00670792 0)
(-0.0745305 0.00412388 0)
(-0.0754285 0.00144372 0)
(-0.075459 -0.00127769 0)
(-0.0746179 -0.00398394 0)
(-0.0729188 -0.00661729 0)
(-0.0703929 -0.00911901 0)
(-0.0670898 -0.0114299 0)
(-0.0630764 -0.0134913 0)
(-0.0584376 -0.0152457 0)
(-0.0532751 -0.0166388 0)
(-0.0477061 -0.0176204 0)
(-0.0418617 -0.0181473 0)
(-0.0358848 -0.018185 0)
(-0.0299261 -0.0177113 0)
(-0.024141 -0.0167193 0)
(-0.0186842 -0.015222 0)
(-0.0137045 -0.0132578 0)
(-0.00933906 -0.0108976 0)
(-0.00570398 -0.00825386 0)
(-0.00288671 -0.00549123 0)
(-0.000983912 -0.00284028 0)
(-0.000138142 -0.000637769 0)
(-0.000196372 0.0013298 0)
(-0.0013145 0.00475699 0)
(-0.00374106 0.00847646 0)
(-0.00722967 0.0121482 0)
(-0.0116177 0.0155384 0)
(-0.0167784 0.0184826 0)
(-0.022566 0.0208726 0)
(-0.0288218 0.022645 0)
(-0.0353829 0.0237712 0)
(-0.0420855 0.0242486 0)
(-0.0487689 0.0240942 0)
(-0.0552788 0.0233393 0)
(-0.0614699 0.022026 0)
(-0.0672083 0.0202038 0)
(-0.0723729 0.0179283 0)
(-0.0768572 0.0152589 0)
(-0.0805698 0.0122585 0)
(-0.0834353 0.00899284 0)
(-0.0853954 0.00552984 0)
(-0.086409 0.00193989 0)
(-0.086453 -0.00170452 0)
(-0.0855226 -0.00532892 0)
(-0.083632 -0.0088571 0)
(-0.0808146 -0.0122116 0)
(-0.0771231 -0.0153146 0)
(-0.07263 -0.0180887 0)
(-0.0674264 -0.0204584 0)
(-0.0616224 -0.0223523 0)
(-0.055345 -0.0237047 0)
(-0.0487369 -0.0244589 0)
(-0.0419538 -0.0245699 0)
(-0.0351613 -0.0240084 0)
(-0.0285309 -0.022765 0)
(-0.0222353 -0.0208554 0)
(-0.0164432 -0.0183261 0)
(-0.0113143 -0.0152618 0)
(-0.00698992 -0.011794 0)
(-0.00358631 -0.00810968 0)
(-0.0012455 -0.00446121 0)
(-0.000181718 -0.0011997 0)
(-0.000237752 0.00206034 0)
(-0.00156759 0.0067978 0)
(-0.00442305 0.0116894 0)
(-0.00848669 0.016394 0)
(-0.013549 0.0206696 0)
(-0.0194525 0.0243421 0)
(-0.0260251 0.027295 0)
(-0.0330856 0.02946 0)
(-0.0404521 0.0308068 0)
(-0.0479447 0.0313351 0)
(-0.055389 0.0310674 0)
(-0.0626184 0.0300436 0)
(-0.0694774 0.0283165 0)
(-0.075823 0.0259486 0)
(-0.0815262 0.0230095 0)
(-0.0864737 0.0195739 0)
(-0.0905684 0.0157213 0)
(-0.0937305 0.011534 0)
(-0.0958976 0.00709794 0)
(-0.097026 0.00250153 0)
(-0.0970905 -0.00216399 0)
(-0.0960854 -0.00680491 0)
(-0.0940249 -0.0113254 0)
(-0.0909432 -0.0156281 0)
(-0.0868955 -0.0196149 0)
(-0.0819573 -0.0231886 0)
(-0.0762249 -0.026254 0)
(-0.0698145 -0.0287211 0)
(-0.0628614 -0.0305069 0)
(-0.0555181 -0.0315396 0)
(-0.0479523 -0.0317617 0)
(-0.0403434 -0.0311353 0)
(-0.0328792 -0.0296462 0)
(-0.0257511 -0.0273106 0)
(-0.0191493 -0.0241803 0)
(-0.0132582 -0.0203508 0)
(-0.00824706 -0.0159682 0)
(-0.00426313 -0.0112366 0)
(-0.001494 -0.00642434 0)
(-0.000221533 -0.00189164 0)
(-0.000276265 0.0029165 0)
(-0.00180877 0.00917161 0)
(-0.00508051 0.0153981 0)
(-0.00970727 0.0212572 0)
(-0.0154337 0.026504 0)
(-0.022071 0.0309603 0)
(-0.0294192 0.0345063 0)
(-0.0372733 0.0370726 0)
(-0.0454314 0.0386311 0)
(-0.0536974 0.0391863 0)
(-0.061883 0.0387687 0)
(-0.0698104 0.0374286 0)
(-0.0773144 0.0352313 0)
(-0.0842443 0.0322533 0)
(-0.0904646 0.0285797 0)
(-0.0958566 0.0243018 0)
(-0.100319 0.0195159 0)
(-0.103768 0.0143225 0)
(-0.106138 0.00882577 0)
(-0.107384 0.00313306 0)
(-0.107478 -0.00264493 0)
(-0.106412 -0.00839451 0)
(-0.104202 -0.0139994 0)
(-0.10088 -0.0193413 0)
(-0.0965029 -0.024301 0)
(-0.0911482 -0.0287598 0)
(-0.0849154 -0.0326019 0)
(-0.0779254 -0.0357166 0)
(-0.0703201 -0.0380021 0)
(-0.0622608 -0.0393691 0)
(-0.0539261 -0.0397457 0)
(-0.0455094 -0.0390824 0)
(-0.037215 -0.0373582 0)
(-0.029254 -0.0345861 0)
(-0.0218399 -0.0308206 0)
(-0.015184 -0.0261639 0)
(-0.00948566 -0.020773 0)
(-0.00492461 -0.0148648 0)
(-0.00173369 -0.00872024 0)
(-0.000258883 -0.00270705 0)
(-0.000312966 0.00389276 0)
(-0.00204193 0.0118681 0)
(-0.00572072 0.0195915 0)
(-0.0109016 0.0267279 0)
(-0.0172845 0.0330331 0)
(-0.0246487 0.0383291 0)
(-0.0327655 0.0424977 0)
(-0.0414052 0.0454727 0)
(-0.0503451 0.0472315 0)
(-0.0593722 0.0477873 0)
(-0.0682845 0.047181 0)
(-0.0768934 0.0454757 0)
(-0.085025 0.042751 0)
(-0.0925217 0.0390994 0)
(-0.0992429 0.0346224 0)
(-0.105066 0.0294288 0)
(-0.109885 0.023633 0)
(-0.113615 0.0173538 0)
(-0.116188 0.0107142 0)
(-0.117555 0.00384102 0)
(-0.117688 -0.0031353 0)
(-0.116578 -0.0100807 0)
(-0.114237 -0.0168578 0)
(-0.110698 -0.023327 0)
(-0.106017 -0.0293468 0)
(-0.100272 -0.0347764 0)
(-0.0935634 -0.0394773 0)
(-0.0860164 -0.043317 0)
(-0.0777777 -0.0461724 0)
(-0.0690163 -0.0479345 0)
(-0.0599214 -0.0485141 0)
(-0.0507 -0.0478473 0)
(-0.0415735 -0.0459024 0)
(-0.0327742 -0.0426864 0)
(-0.0245404 -0.0382521 0)
(-0.0171123 -0.0327049 0)
(-0.0107213 -0.0262091 0)
(-0.00558105 -0.0189916 0)
(-0.00196963 -0.0113439 0)
(-0.00029503 -0.00364222 0)
(-0.000348757 0.00498585 0)
(-0.00227084 0.0148808 0)
(-0.00635154 0.0242624 0)
(-0.0120815 0.0327994 0)
(-0.0191163 0.0402509 0)
(-0.0272031 0.0464431 0)
(-0.0360838 0.0512631 0)
(-0.0455029 0.0546525 0)
(-0.0552164 0.0565986 0)
(-0.0649941 0.0571262 0)
(-0.0746205 0.0562904 0)
(-0.0838962 0.0541696 0)
(-0.0926398 0.0508601 0)
(-0.100688 0.0464717 0)
(-0.107895 0.0411241 0)
(-0.114136 0.0349445 0)
(-0.119304 0.0280657 0)
(-0.123311 0.0206256 0)
(-0.126086 0.0127661 0)
(-0.127581 0.00463354 0)
(-0.127765 -0.00362187 0)
(-0.126626 -0.0118456 0)
(-0.124175 -0.0198793 0)
(-0.120443 -0.0275612 0)
(-0.115484 -0.0347274 0)
(-0.109375 -0.0412136 0)
(-0.102216 -0.0468576 0)
(-0.0941344 -0.0515028 0)
(-0.0852804 -0.0550028 0)
(-0.0758297 -0.0572262 0)
(-0.0659813 -0.0580629 0)
(-0.0559557 -0.0574312 0)
(-0.0459924 -0.0552846 0)
(-0.0363454 -0.0516201 0)
(-0.0272798 -0.0464846 0)
(-0.0190668 -0.039983 0)
(-0.0119717 -0.0322835 0)
(-0.00624373 -0.0236205 0)
(-0.00220692 -0.0142958 0)
(-0.000331116 -0.00469632 0)
(-0.00038439 0.00619444 0)
(-0.00249895 0.018207 0)
(-0.00698057 0.0294077 0)
(-0.0132586 0.0394688 0)
(-0.0209444 0.0481546 0)
(-0.029752 0.0552987 0)
(-0.0393934 0.0607978 0)
(-0.0495865 0.0646055 0)
(-0.0600655 0.0667232 0)
(-0.0705828 0.0671917 0)
(-0.0809093 0.0660835 0)
(-0.0908361 0.0634954 0)
(-0.100175 0.0595429 0)
(-0.108757 0.0543553 0)
(-0.116435 0.0480716 0)
(-0.123081 0.0408384 0)
(-0.128588 0.0328077 0)
(-0.132866 0.0241363 0)
(-0.135845 0.0149852 0)
(-0.137474 0.00551982 0)
(-0.137721 -0.00409014 0)
(-0.136572 -0.01367 0)
(-0.134034 -0.0230406 0)
(-0.130135 -0.0320181 0)
(-0.124927 -0.0404156 0)
(-0.118482 -0.0480447 0)
(-0.110902 -0.054718 0)
(-0.10231 -0.0602532 0)
(-0.0928619 -0.0644777 0)
(-0.0827367 -0.0672343 0)
(-0.0721427 -0.0683888 0)
(-0.0613139 -0.067837 0)
(-0.0505076 -0.0655135 0)
(-0.0400012 -0.0613998 0)
(-0.0300879 -0.0555331 0)
(-0.0210721 -0.0480132 0)
(-0.0132551 -0.0390093 0)
(-0.00692391 -0.0287615 0)
(-0.00245046 -0.0175818 0)
(-0.00036816 -0.00587124 0)
(-0.000420492 0.00751899 0)
(-0.00272929 0.0218474 0)
(-0.00761474 0.0350285 0)
(-0.0144439 0.046737 0)
(-0.0227828 0.0567443 0)
(-0.0323118 0.0648944 0)
(-0.0427114 0.0710979 0)
(-0.0536726 0.0753248 0)
(-0.0649072 0.0775952 0)
(-0.0761502 0.0779704 0)
(-0.0871597 0.0765441 0)
(-0.0977175 0.0734352 0)
(-0.107629 0.068781 0)
(-0.116724 0.0627322 0)
(-0.124853 0.0554489 0)
(-0.131887 0.0470979 0)
(-0.13772 0.0378508 0)
(-0.142262 0.0278832 0)
(-0.145444 0.0173749 0)
(-0.147213 0.00650951 0)
(-0.147536 -0.00452426 0)
(-0.146396 -0.0155325 0)
(-0.143797 -0.0263155 0)
(-0.139762 -0.0366682 0)
(-0.134338 -0.0463803 0)
(-0.127594 -0.0552387 0)
(-0.119626 -0.0630296 0)
(-0.110557 -0.069543 0)
(-0.100541 -0.0745772 0)
(-0.0897614 -0.077946 0)
(-0.0784341 -0.0794865 0)
(-0.0668057 -0.0790671 0)
(-0.0551515 -0.0765982 0)
(-0.043773 -0.0720407 0)
(-0.0329933 -0.0654165 0)
(-0.0231518 -0.0568163 0)
(-0.0145891 -0.0464064 0)
(-0.00763242 -0.0344312 0)
(-0.00270485 -0.0212133 0)
(-0.000407074 -0.00717137 0)
(-0.000457597 0.00896141 0)
(-0.00296456 0.0258063 0)
(-0.00826037 0.0411297 0)
(-0.0156475 0.0546084 0)
(-0.0246446 0.0660225 0)
(-0.0348967 0.0752298 0)
(-0.0460521 0.082159 0)
(-0.0577733 0.0868014 0)
(-0.06975 0.0892011 0)
(-0.0816998 0.0894444 0)
(-0.0933685 0.087651 0)
(-0.10453 0.0839654 0)
(-0.114987 0.0785497 0)
(-0.124565 0.0715786 0)
(-0.133116 0.0632347 0)
(-0.140515 0.0537057 0)
(-0.146654 0.0431829 0)
(-0.151449 0.0318608 0)
(-0.15483 0.0199368 0)
(-0.156744 0.00761207 0)
(-0.157156 -0.00490712 0)
(-0.156047 -0.0174087 0)
(-0.153416 -0.0296738 0)
(-0.149282 -0.0414764 0)
(-0.143683 -0.0525835 0)
(-0.136683 -0.0627569 0)
(-0.128371 -0.0717553 0)
(-0.118866 -0.0793388 0)
(-0.108318 -0.085274 0)
(-0.0969134 -0.0893418 0)
(-0.0848727 -0.0913453 0)
(-0.0724541 -0.0911206 0)
(-0.0599507 -0.088547 0)
(-0.0476885 -0.0835592 0)
(-0.0360219 -0.0761575 0)
(-0.0253284 -0.0664181 0)
(-0.0159904 -0.0545009 0)
(-0.00837955 -0.0406528 0)
(-0.0029744 -0.0252071 0)
(-0.000448697 -0.00860345 0)
(-0.000496181 0.010525 0)
(-0.00320722 0.0300907 0)
(-0.00892324 0.0477197 0)
(-0.0168783 0.0630905 0)
(-0.0265411 0.0759937 0)
(-0.0375189 0.0863046 0)
(-0.0494259 0.0939749 0)
(-0.0618958 0.0990229 0)
(-0.0745952 0.101522 0)
(-0.0872252 0.101589 0)
(-0.0995204 0.0993748 0)
(-0.111249 0.0950534 0)
(-0.12221 0.0888155 0)
(-0.132231 0.0808618 0)
(-0.141168 0.0713989 0)
(-0.148897 0.0606365 0)
(-0.155317 0.0487856 0)
(-0.160345 0.0360586 0)
(-0.163916 0.0226696 0)
(-0.165976 0.00883587 0)
(-0.16649 -0.00522067 0)
(-0.165437 -0.0192715 0)
(-0.162809 -0.0330801 0)
(-0.158617 -0.0464008 0)
(-0.152894 -0.0589788 0)
(-0.145692 -0.0705507 0)
(-0.137092 -0.0808471 0)
(-0.127204 -0.0895963 0)
(-0.116174 -0.0965302 0)
(-0.104185 -0.101392 0)
(-0.0914622 -0.103947 0)
(-0.0782719 -0.10399 0)
(-0.0649243 -0.101365 0)
(-0.0517702 -0.0959709 0)
(-0.0391969 -0.0877803 0)
(-0.0276223 -0.0768487 0)
(-0.0174749 -0.0633249 0)
(-0.00917506 -0.0474554 0)
(-0.00326322 -0.0295846 0)
(-0.000493821 -0.0101764 0)
(-0.000536696 0.0122142 0)
(-0.00345965 0.0347104 0)
(-0.00960888 0.05481 0)
(-0.0181451 0.0721931 0)
(-0.0284826 0.0866633 0)
(-0.0401883 0.0981177 0)
(-0.0528401 0.106536 0)
(-0.0660415 0.111971 0)
(-0.0794362 0.114531 0)
(-0.0927092 0.11437 0)
(-0.105586 0.111675 0)
(-0.11783 0.106655 0)
(-0.129242 0.0995321 0)
(-0.139652 0.0905365 0)
(-0.148922 0.0799002 0)
(-0.156936 0.0678551 0)
(-0.163598 0.0546318 0)
(-0.168833 0.0404596 0)
(-0.172577 0.0255677 0)
(-0.174782 0.0101872 0)
(-0.17541 -0.00544626 0)
(-0.174437 -0.0210902 0)
(-0.17185 -0.0364928 0)
(-0.167652 -0.0513909 0)
(-0.161864 -0.0655088 0)
(-0.154527 -0.078559 0)
(-0.14571 -0.0902432 0)
(-0.13551 -0.100257 0)
(-0.124064 -0.108293 0)
(-0.111549 -0.114054 0)
(-0.0981899 -0.11726 0)
(-0.0842594 -0.117659 0)
(-0.0700828 -0.11505 0)
(-0.056035 -0.109288 0)
(-0.0425376 -0.10031 0)
(-0.030052 -0.0881413 0)
(-0.0190572 -0.0729152 0)
(-0.0100283 -0.0548737 0)
(-0.00357531 -0.034372 0)
(-0.00054323 -0.0119013 0)
(-0.000579615 0.0140348 0)
(-0.00372427 0.039678 0)
(-0.010323 0.0624154 0)
(-0.0194563 0.0819285 0)
(-0.0304789 0.0980372 0)
(-0.0429133 0.110665 0)
(-0.0562986 0.119829 0)
(-0.0702065 0.125619 0)
(-0.0842579 0.12819 0)
(-0.0981231 0.127739 0)
(-0.11152 0.124496 0)
(-0.124212 0.118709 0)
(-0.136002 0.110637 0)
(-0.146729 0.100542 0)
(-0.156264 0.0886822 0)
(-0.1645 0.0753127 0)
(-0.171353 0.0606828 0)
(-0.176754 0.0450375 0)
(-0.180648 0.0286187 0)
(-0.182989 0.0116691 0)
(-0.18374 -0.00556534 0)
(-0.182875 -0.0228312 0)
(-0.180373 -0.0398642 0)
(-0.176228 -0.0563863 0)
(-0.170448 -0.0721036 0)
(-0.163058 -0.0867051 0)
(-0.154112 -0.0998644 0)
(-0.14369 -0.111242 0)
(-0.131916 -0.120491 0)
(-0.118954 -0.127267 0)
(-0.105024 -0.131237 0)
(-0.0904025 -0.132098 0)
(-0.0754259 -0.129591 0)
(-0.0604926 -0.123518 0)
(-0.0460593 -0.113768 0)
(-0.0326338 -0.100331 0)
(-0.0207514 -0.0833126 0)
(-0.0109486 -0.0629479 0)
(-0.0039147 -0.0396004 0)
(-0.00059773 -0.0137911 0)
(-0.000625478 0.0159938 0)
(-0.00400388 0.0450089 0)
(-0.0110718 0.0705534 0)
(-0.0208211 0.0923108 0)
(-0.0325399 0.110121 0)
(-0.0457013 0.123941 0)
(-0.0598021 0.13383 0)
(-0.0743811 0.13993 0)
(-0.0890364 0.142447 0)
(-0.103425 0.141632 0)
(-0.117262 0.137763 0)
(-0.130311 0.131136 0)
(-0.142385 0.122049 0)
(-0.153335 0.110798 0)
(-0.163044 0.0976703 0)
(-0.171421 0.0829439 0)
(-0.178396 0.0668859 0)
(-0.18391 0.0497546 0)
(-0.187918 0.0318025 0)
(-0.19038 0.0132798 0)
(-0.19126 -0.0055603 0)
(-0.190529 -0.0244575 0)
(-0.188161 -0.0431391 0)
(-0.184138 -0.0613158 0)
(-0.178451 -0.0786782 0)
(-0.171109 -0.0948946 0)
(-0.162143 -0.109611 0)
(-0.151614 -0.122452 0)
(-0.139623 -0.13303 0)
(-0.12632 -0.140946 0)
(-0.111911 -0.145812 0)
(-0.0966694 -0.147259 0)
(-0.0809411 -0.144961 0)
(-0.0651449 -0.138657 0)
(-0.0497728 -0.128174 0)
(-0.0353824 -0.113451 0)
(-0.0225709 -0.0945613 0)
(-0.0119452 -0.0717225 0)
(-0.00428563 -0.0453048 0)
(-0.000658194 -0.0158613 0)
(-0.000674952 0.0180998 0)
(-0.00430181 0.050722 0)
(-0.0118629 0.0792453 0)
(-0.0222503 0.103356 0)
(-0.0346767 0.122918 0)
(-0.0485595 0.137932 0)
(-0.0633493 0.148509 0)
(-0.0785501 0.154853 0)
(-0.093738 0.157234 0)
(-0.10856 0.155964 0)
(-0.12273 0.151381 0)
(-0.136021 0.143832 0)
(-0.148258 0.133661 0)
(-0.159309 0.1212 0)
(-0.169078 0.106768 0)
(-0.177491 0.0906635 0)
(-0.184497 0.0731711 0)
(-0.190054 0.0545595 0)
(-0.194127 0.0350882 0)
(-0.196685 0.0150114 0)
(-0.197695 -0.00541556 0)
(-0.197126 -0.02593 0)
(-0.194945 -0.0462556 0)
(-0.19112 -0.0660964 0)
(-0.185628 -0.0851318 0)
(-0.178453 -0.103012 0)
(-0.169601 -0.119359 0)
(-0.159107 -0.133761 0)
(-0.147042 -0.145786 0)
(-0.133533 -0.15498 0)
(-0.118767 -0.160889 0)
(-0.103008 -0.163069 0)
(-0.0866013 -0.161116 0)
(-0.0699845 -0.154689 0)
(-0.053684 -0.143537 0)
(-0.0383103 -0.127535 0)
(-0.0245291 -0.106707 0)
(-0.013028 -0.081247 0)
(-0.00469271 -0.0515255 0)
(-0.000725606 -0.0181292 0)
(-0.000728913 0.0203634 0)
(-0.00462244 0.0568401 0)
(-0.0127059 0.0885162 0)
(-0.0237573 0.115081 0)
(-0.0369027 0.136431 0)
(-0.0514958 0.152618 0)
(-0.0669362 0.163821 0)
(-0.0826918 0.170319 0)
(-0.098318 0.172457 0)
(-0.113455 0.170623 0)
(-0.127823 0.165223 0)
(-0.141207 0.156663 0)
(-0.153453 0.145337 0)
(-0.164454 0.131617 0)
(-0.174138 0.115852 0)
(-0.182457 0.0983628 0)
(-0.189381 0.0794479 0)
(-0.19489 0.0593839 0)
(-0.198963 0.0384327 0)
(-0.20158 0.0168476 0)
(-0.202714 -0.0051189 0)
(-0.202332 -0.0272076 0)
(-0.200395 -0.0491445 0)
(-0.196857 -0.0706326 0)
(-0.191674 -0.0913454 0)
(-0.184807 -0.110921 0)
(-0.176229 -0.128956 0)
(-0.165942 -0.145011 0)
(-0.153983 -0.158603 0)
(-0.140443 -0.169222 0)
(-0.125481 -0.176338 0)
(-0.10934 -0.179426 0)
(-0.0923615 -0.177986 0)
(-0.0749929 -0.171577 0)
(-0.0577932 -0.159855 0)
(-0.0414284 -0.142609 0)
(-0.0266399 -0.119797 0)
(-0.0142079 -0.0915749 0)
(-0.00514124 -0.0583074 0)
(-0.000801133 -0.0206152 0)
(-0.000788551 0.0227977 0)
(-0.00497155 0.0633915 0)
(-0.0136134 0.0983963 0)
(-0.0253597 0.127506 0)
(-0.0392349 0.150658 0)
(-0.0545196 0.16797 0)
(-0.0705569 0.179705 0)
(-0.0867774 0.186235 0)
(-0.102719 0.187997 0)
(-0.118019 0.185467 0)
(-0.132411 0.179131 0)
(-0.145702 0.169461 0)
(-0.157767 0.156907 0)
(-0.16853 0.141883 0)
(-0.17795 0.124769 0)
(-0.186013 0.105906 0)
(-0.192717 0.0856029 0)
(-0.198063 0.0641403 0)
(-0.202054 0.0417778 0)
(-0.204681 0.0187623 0)
(-0.205924 -0.00466305 0)
(-0.205752 -0.028249 0)
(-0.204118 -0.0517304 0)
(-0.200964 -0.0748166 0)
(-0.196222 -0.0971816 0)
(-0.189824 -0.118457 0)
(-0.18171 -0.138222 0)
(-0.171838 -0.156007 0)
(-0.160203 -0.171285 0)
(-0.14685 -0.183482 0)
(-0.131898 -0.191992 0)
(-0.115559 -0.19619 0)
(-0.0981553 -0.195465 0)
(-0.0801382 -0.18926 0)
(-0.0620943 -0.177109 0)
(-0.0447458 -0.158692 0)
(-0.0289179 -0.133877 0)
(-0.0154974 -0.102764 0)
(-0.00563756 -0.0657011 0)
(-0.000886214 -0.0233423 0)
(-0.000855518 0.0254192 0)
(-0.00535708 0.0704117 0)
(-0.0146024 0.108923 0)
(-0.0270805 0.140653 0)
(-0.0416954 0.165592 0)
(-0.0576425 0.183945 0)
(-0.0742026 0.196079 0)
(-0.0907688 0.20248 0)
(-0.106865 0.203698 0)
(-0.122136 0.200314 0)
(-0.136335 0.192904 0)
(-0.149303 0.182018 0)
(-0.160953 0.168162 0)
(-0.171248 0.151798 0)
(-0.18019 0.133333 0)
(-0.187802 0.113128 0)
(-0.194115 0.0914967 0)
(-0.199163 0.06872 0)
(-0.202967 0.0450489 0)
(-0.205539 0.0207174 0)
(-0.206867 -0.00404734 0)
(-0.206923 -0.0290135 0)
(-0.205653 -0.0539329 0)
(-0.202985 -0.0785288 0)
(-0.198829 -0.102484 0)
(-0.193086 -0.125431 0)
(-0.185654 -0.146941 0)
(-0.176443 -0.166517 0)
(-0.165395 -0.18359 0)
(-0.152499 -0.197526 0)
(-0.137819 -0.20763 0)
(-0.121518 -0.21317 0)
(-0.103889 -0.213408 0)
(-0.0853718 -0.207641 0)
(-0.0665728 -0.195256 0)
(-0.04827 -0.175789 0)
(-0.0313797 -0.148991 0)
(-0.0169115 -0.114877 0)
(-0.00618957 -0.0737639 0)
(-0.000982686 -0.0263374 0)
(-0.000932142 0.0282496 0)
(-0.00578999 0.0779458 0)
(-0.0156961 0.120141 0)
(-0.0289506 0.154546 0)
(-0.0443127 0.181222 0)
(-0.0608783 0.200483 0)
(-0.07786 0.212832 0)
(-0.0946146 0.218896 0)
(-0.110659 0.219362 0)
(-0.125657 0.214935 0)
(-0.139394 0.206296 0)
(-0.151757 0.194076 0)
(-0.162707 0.178849 0)
(-0.172262 0.161118 0)
(-0.18047 0.141321 0)
(-0.1874 0.119829 0)
(-0.193125 0.0969622 0)
(-0.197709 0.072991 0)
(-0.201204 0.0481527 0)
(-0.203639 0.0226614 0)
(-0.205016 -0.00327953 0)
(-0.205309 -0.0294636 0)
(-0.204463 -0.0556681 0)
(-0.20239 -0.0816396 0)
(-0.198979 -0.10708 0)
(-0.194096 -0.131631 0)
(-0.187594 -0.154863 0)
(-0.179331 -0.176264 0)
(-0.169183 -0.195228 0)
(-0.15707 -0.211058 0)
(-0.142985 -0.222972 0)
(-0.127027 -0.23012 0)
(-0.109435 -0.231614 0)
(-0.0906231 -0.22658 0)
(-0.0712038 -0.214221 0)
(-0.0520065 -0.19389 0)
(-0.0340447 -0.165177 0)
(-0.0184691 -0.12798 0)
(-0.0068075 -0.0825612 0)
(-0.00109298 -0.0296322 0)
(-0.00102173 0.0313168 0)
(-0.0062855 0.0860519 0)
(-0.016926 0.132109 0)
(-0.0310109 0.169213 0)
(-0.047123 0.197523 0)
(-0.064242 0.217499 0)
(-0.0815071 0.229816 0)
(-0.0982434 0.235277 0)
(-0.113973 0.234738 0)
(-0.128392 0.229046 0)
(-0.141336 0.219001 0)
(-0.152752 0.205327 0)
(-0.162666 0.188664 0)
(-0.171157 0.169557 0)
(-0.178334 0.148469 0)
(-0.184317 0.12578 0)
(-0.189223 0.101804 0)
(-0.193156 0.0767977 0)
(-0.196196 0.050977 0)
(-0.198395 0.024528 0)
(-0.199772 -0.00237741 0)
(-0.200305 -0.0295667 0)
(-0.199938 -0.0568515 0)
(-0.198572 -0.0840117 0)
(-0.196072 -0.110778 0)
(-0.192271 -0.136815 0)
(-0.186976 -0.161704 0)
(-0.179985 -0.184926 0)
(-0.171099 -0.205849 0)
(-0.160159 -0.223722 0)
(-0.147066 -0.237671 0)
(-0.131832 -0.246719 0)
(-0.114621 -0.249813 0)
(-0.0957923 -0.245876 0)
(-0.0759482 -0.233883 0)
(-0.0559578 -0.212955 0)
(-0.036936 -0.182465 0)
(-0.0201946 -0.142145 0)
(-0.00750496 -0.0921686 0)
(-0.00122042 -0.0332645 0)
(-0.00112907 0.0346585 0)
(-0.00686494 0.0948063 0)
(-0.0183348 0.144897 0)
(-0.0333148 0.184683 0)
(-0.0501708 0.214456 0)
(-0.067747 0.234874 0)
(-0.0851066 0.246833 0)
(-0.101553 0.251359 0)
(-0.116631 0.249507 0)
(-0.13009 0.242294 0)
(-0.141838 0.230651 0)
(-0.1519 0.215402 0)
(-0.160383 0.19725 0)
(-0.16744 0.176783 0)
(-0.173246 0.154477 0)
(-0.177981 0.130715 0)
(-0.181811 0.105799 0)
(-0.184881 0.0799621 0)
(-0.187303 0.053391 0)
(-0.189153 0.026236 0)
(-0.190467 -0.00137015 0)
(-0.191232 -0.0292974 0)
(-0.191393 -0.0574011 0)
(-0.190841 -0.0855045 0)
(-0.189424 -0.113379 0)
(-0.18694 -0.140725 0)
(-0.183151 -0.167147 0)
(-0.17779 -0.192138 0)
(-0.170581 -0.215051 0)
(-0.161267 -0.235089 0)
(-0.149643 -0.251296 0)
(-0.135606 -0.262564 0)
(-0.119213 -0.267654 0)
(-0.10074 -0.265256 0)
(-0.0807458 -0.254067 0)
(-0.0601219 -0.232909 0)
(-0.040082 -0.200871 0)
(-0.0221202 -0.157448 0)
(-0.00830061 -0.102675 0)
(-0.00136967 -0.0372808 0)
(-0.00126111 0.0383257 0)
(-0.00755833 0.104309 0)
(-0.0199808 0.158596 0)
(-0.0359317 0.200985 0)
(-0.0535077 0.231959 0)
(-0.0713979 0.252441 0)
(-0.0885925 0.26362 0)
(-0.104392 0.266798 0)
(-0.118391 0.26327 0)
(-0.13042 0.254247 0)
(-0.140486 0.240805 0)
(-0.148717 0.223867 0)
(-0.155314 0.204198 0)
(-0.160517 0.182416 0)
(-0.164577 0.159006 0)
(-0.167735 0.134342 0)
(-0.170211 0.108701 0)
(-0.172188 0.0822871 0)
(-0.173814 0.0552477 0)
(-0.175188 0.0276905 0)
(-0.176364 -0.000299019 0)
(-0.177342 -0.0286406 0)
(-0.178068 -0.0572419 0)
(-0.178431 -0.0859795 0)
(-0.178263 -0.114678 0)
(-0.177334 -0.143086 0)
(-0.175362 -0.170851 0)
(-0.17202 -0.197492 0)
(-0.166947 -0.222368 0)
(-0.159778 -0.244656 0)
(-0.150184 -0.263328 0)
(-0.13792 -0.277146 0)
(-0.122898 -0.284678 0)
(-0.105268 -0.284346 0)
(-0.0855049 -0.274514 0)
(-0.0644877 -0.253627 0)
(-0.0435175 -0.220391 0)
(-0.0242893 -0.173972 0)
(-0.00922065 -0.114188 0)
(-0.00154746 -0.0417392 0)
(-0.00142825 0.0423882 0)
(-0.00840847 0.114695 0)
(-0.0219429 0.173317 0)
(-0.0389489 0.218141 0)
(-0.0571883 0.249927 0)
(-0.0751781 0.269965 0)
(-0.0918492 0.279823 0)
(-0.106531 0.28115 0)
(-0.118908 0.275527 0)
(-0.128932 0.264382 0)
(-0.136741 0.248941 0)
(-0.142588 0.230223 0)
(-0.146788 0.209044 0)
(-0.149678 0.18604 0)
(-0.151589 0.161691 0)
(-0.152825 0.136346 0)
(-0.153655 0.110249 0)
(-0.154305 0.083563 0)
(-0.154949 0.0563892 0)
(-0.155713 0.028785 0)
(-0.156667 0.000782973 0)
(-0.157825 -0.0275933 0)
(-0.15914 -0.0563108 0)
(-0.160503 -0.0853084 0)
(-0.161735 -0.114474 0)
(-0.16259 -0.143622 0)
(-0.162749 -0.172457 0)
(-0.161826 -0.200548 0)
(-0.15938 -0.227286 0)
(-0.154935 -0.251845 0)
(-0.148017 -0.273148 0)
(-0.138214 -0.289844 0)
(-0.125252 -0.300302 0)
(-0.109098 -0.30265 0)
(-0.0900849 -0.29486 0)
(-0.0690273 -0.274906 0)
(-0.0472834 -0.240987 0)
(-0.0267607 -0.191802 0)
(-0.0103026 -0.126839 0)
(-0.00176387 -0.0467148 0)
(-0.00164641 0.0469435 0)
(-0.00947709 0.12614 0)
(-0.0243276 0.189196 0)
(-0.0424726 0.236155 0)
(-0.0612592 0.268192 0)
(-0.0790247 0.287107 0)
(-0.0946744 0.294967 0)
(-0.10762 0.293846 0)
(-0.117693 0.28566 0)
(-0.125016 0.27207 0)
(-0.129895 0.254452 0)
(-0.132737 0.233906 0)
(-0.133985 0.211281 0)
(-0.134077 0.187211 0)
(-0.133424 0.162148 0)
(-0.132391 0.136405 0)
(-0.131291 0.110177 0)
(-0.130382 0.0835783 0)
(-0.129865 0.0566543 0)
(-0.129885 0.0294075 0)
(-0.130528 0.00181277 0)
(-0.131822 -0.0261668 0)
(-0.133732 -0.0545626 0)
(-0.136155 -0.0833822 0)
(-0.138915 -0.112587 0)
(-0.141756 -0.142068 0)
(-0.144337 -0.17161 0)
(-0.146228 -0.200854 0)
(-0.146914 -0.229251 0)
(-0.145811 -0.25601 0)
(-0.142294 -0.280039 0)
(-0.135756 -0.299903 0)
(-0.125694 -0.313787 0)
(-0.111828 -0.31951 0)
(-0.0942664 -0.314597 0)
(-0.0736799 -0.296438 0)
(-0.051425 -0.262567 0)
(-0.0296147 -0.211025 0)
(-0.0116016 -0.140791 0)
(-0.00203445 -0.0523076 0)
(-0.00194074 0.05213 0)
(-0.0108548 0.138882 0)
(-0.0272782 0.206391 0)
(-0.0466244 0.254988 0)
(-0.0657354 0.286481 0)
(-0.082785 0.303382 0)
(-0.0967201 0.308407 0)
(-0.107119 0.304154 0)
(-0.114037 0.292908 0)
(-0.11783 0.27657 0)
(-0.119017 0.25665 0)
(-0.118177 0.234302 0)
(-0.115892 0.210376 0)
(-0.112701 0.185473 0)
(-0.109086 0.16 0)
(-0.105462 0.134209 0)
(-0.102174 0.108237 0)
(-0.0995039 0.0821352 0)
(-0.0976672 0.055891 0)
(-0.096822 0.0294478 0)
(-0.0970677 0.00272085 0)
(-0.098445 -0.024388 0)
(-0.100933 -0.0519761 0)
(-0.104444 -0.0801228 0)
(-0.108816 -0.10887 0)
(-0.113798 -0.138195 0)
(-0.119046 -0.167979 0)
(-0.124107 -0.197963 0)
(-0.128412 -0.227693 0)
(-0.131282 -0.256453 0)
(-0.131945 -0.283189 0)
(-0.129586 -0.30643 0)
(-0.123427 -0.324217 0)
(-0.112873 -0.334069 0)
(-0.0977019 -0.333017 0)
(-0.0783222 -0.317755 0)
(-0.0559832 -0.284951 0)
(-0.0329598 -0.231719 0)
(-0.0131998 -0.156255 0)
(-0.0023841 -0.0586551 0)
(-0.00235244 0.0581485 0)
(-0.012677 0.153239 0)
(-0.030984 0.225068 0)
(-0.0515258 0.274512 0)
(-0.0705521 0.304349 0)
(-0.0861389 0.318087 0)
(-0.0973967 0.319281 0)