1.45 	0 	0 	-0.00818544 	-0.00256756 	3.77966e-21
2.35 	0 	0 	0.0613208 	-0.00662661 	2.27933e-21
