/*--------------------------------*- C++ -*----------------------------------*\
  =========                 |
  \\      /  F ield         | OpenFOAM: The Open Source CFD Toolbox
   \\    /   O peration     | Website:  https://openfoam.org
    \\  /    A nd           | Version:  6.0
     \\/     M anipulation  |
\*---------------------------------------------------------------------------*/
FoamFile
{
    version     2.0;
    format      ascii;
    class       volVectorField;
    location    "0.1";
    object      U;
}
// * * * * * * * * * * * * * * * * * * * * * * * * * * * * * * * * * * * * * //

dimensions      [0 1 -1 0 0 0 0];

internalField   nonuniform List<vector> 
800
(
(0.00029417 -0.000296005 0)
(0.00036842 -1.75436e-05 0)
(-0.000621857 0.000399312 0)
(-0.00258753 0.00072681 0)
(-0.00525806 0.000937456 0)
(-0.00835696 0.00104831 0)
(-0.0116595 0.0010862 0)
(-0.0150022 0.00107642 0)
(-0.018277 0.00103872 0)
(-0.0214194 0.000986919 0)
(-0.0243957 0.000929879 0)
(-0.0271932 0.000873086 0)
(-0.0298131 0.000819846 0)
(-0.0322645 0.00077182 0)
(-0.0345605 0.000729542 0)
(-0.0367155 0.000692769 0)
(-0.0387423 0.00066056 0)
(-0.0406501 0.000631284 0)
(-0.0424419 0.000602527 0)
(-0.0441122 0.000570948 0)
(-0.0456447 0.000532224 0)
(-0.0470095 0.000481076 0)
(-0.0481611 0.000411375 0)
(-0.0490369 0.000316361 0)
(-0.0495564 0.00018909 0)
(-0.0496228 2.31897e-05 0)
(-0.0491265 -0.000186007 0)
(-0.0479526 -0.000439965 0)
(-0.0459921 -0.000735118 0)
(-0.0431581 -0.0010609 0)
(-0.0394057 -0.00139802 0)
(-0.034756 -0.00171746 0)
(-0.0293183 -0.00198095 0)
(-0.0233103 -0.00214322 0)
(-0.0170675 -0.0021564 0)
(-0.0110391 -0.00197654 0)
(-0.00576096 -0.00157317 0)
(-0.00180235 -0.000942061 0)
(0.000325183 -0.000149558 0)
(0.000437685 0.000429244 0)
(1.95576e-05 -0.000383487 0)
(-0.00116953 0.00114883 0)
(-0.00473811 0.00303785 0)
(-0.0103402 0.00457894 0)
(-0.0174445 0.00563284 0)
(-0.0255244 0.0062343 0)
(-0.0341057 0.0064759 0)
(-0.0428138 0.0064601 0)
(-0.0513808 0.0062763 0)
(-0.059631 0.00599365 0)
(-0.0674623 0.00566201 0)
(-0.0748258 0.00531537 0)
(-0.0817092 0.00497541 0)
(-0.0881241 0.00465467 0)
(-0.0940953 0.00435866 0)
(-0.0996517 0.00408742 0)
(-0.10482 0.00383621 0)
(-0.109617 0.00359568 0)
(-0.114044 0.00335187 0)
(-0.118085 0.00308606 0)
(-0.121692 0.0027749 0)
(-0.12479 0.00239078 0)
(-0.127266 0.00190276 0)
(-0.12897 0.0012782 0)
(-0.129714 0.00048557 0)
(-0.12928 -0.000501478 0)
(-0.127428 -0.00169848 0)
(-0.123913 -0.00310316 0)
(-0.118516 -0.00468736 0)
(-0.111075 -0.00638904 0)
(-0.101528 -0.00810594 0)
(-0.089961 -0.00969319 0)
(-0.0766517 -0.0109674 0)
(-0.0621037 -0.0117197 0)
(-0.0470607 -0.0117389 0)
(-0.0324844 -0.0108472 0)
(-0.0194765 -0.00894784 0)
(-0.00914052 -0.00608715 0)
(-0.002473 -0.00259364 0)
(-8.6775e-05 0.000353277 0)
(-0.000431816 0.000628742 0)
(-0.00327502 0.00477394 0)
(-0.0096874 0.00920357 0)
(-0.0188306 0.0128218 0)
(-0.0299154 0.0153477 0)
(-0.0422548 0.0168273 0)
(-0.0552246 0.0174413 0)
(-0.0683163 0.0174087 0)
(-0.0811569 0.0169338 0)
(-0.0934952 0.0161841 0)
(-0.105179 0.0152865 0)
(-0.11613 0.0143314 0)
(-0.126327 0.0133787 0)
(-0.135781 0.0124646 0)
(-0.144525 0.0116063 0)
(-0.152598 0.0108053 0)
(-0.160036 0.0100498 0)
(-0.166863 0.00931574 0)
(-0.173082 0.0085668 0)
(-0.178665 0.00775515 0)
(-0.183548 0.00682206 0)
(-0.187625 0.00569939 0)
(-0.190742 0.00431243 0)
(-0.192697 0.00258456 0)
(-0.193239 0.000444457 0)
(-0.19208 -0.00216389 0)
(-0.188905 -0.00526793 0)
(-0.183402 -0.00885062 0)
(-0.175291 -0.0128328 0)
(-0.164369 -0.017056 0)
(-0.150566 -0.0212703 0)
(-0.134 -0.0251302 0)
(-0.115033 -0.0282066 0)
(-0.0943204 -0.0300184 0)
(-0.0728224 -0.0300896 0)
(-0.0517843 -0.0280334 0)
(-0.0326308 -0.0236655 0)
(-0.0167959 -0.0171368 0)
(-0.00572585 -0.00914758 0)
(-0.000785786 -0.00158611 0)
(-0.000859327 0.00280492 0)
(-0.00535096 0.0108679 0)
(-0.0146018 0.018616 0)
(-0.0271493 0.0247909 0)
(-0.0418803 0.0290678 0)
(-0.0579515 0.0315484 0)
(-0.074622 0.0325325 0)
(-0.0912942 0.0323822 0)
(-0.107532 0.0314414 0)
(-0.123041 0.0299991 0)
(-0.137645 0.0282797 0)
(-0.151256 0.0264459 0)
(-0.163851 0.0246083 0)
(-0.175449 0.0228344 0)
(-0.186095 0.0211571 0)
(-0.195841 0.0195807 0)
(-0.204735 0.0180844 0)
(-0.212811 0.0166248 0)
(-0.220078 0.0151374 0)
(-0.226507 0.0135377 0)
(-0.232032 0.011723 0)
(-0.236535 0.00957565 0)
(-0.239845 0.00696835 0)
(-0.241737 0.00377239 0)
(-0.241932 -0.000129945 0)
(-0.240108 -0.00482855 0)
(-0.235915 -0.0103638 0)
(-0.228999 -0.0167007 0)
(-0.219038 -0.0237005 0)
(-0.205789 -0.0310934 0)
(-0.189145 -0.0384581 0)
(-0.169197 -0.0452158 0)
(-0.146308 -0.0506473 0)
(-0.121163 -0.0539447 0)
(-0.0948135 -0.0543044 0)
(-0.0686628 -0.0510672 0)
(-0.0443701 -0.0439003 0)
(-0.0236827 -0.0329995 0)
(-0.00858537 -0.0193376 0)
(-0.00135707 -0.00521747 0)
(-0.00123665 0.00605521 0)
(-0.00726684 0.0193062 0)
(-0.0192138 0.0310532 0)
(-0.0349446 0.0401014 0)
(-0.0529762 0.046218 0)
(-0.0722904 0.0496466 0)
(-0.0920375 0.0508574 0)
(-0.111555 0.0503888 0)
(-0.130374 0.0487468 0)
(-0.148189 0.0463585 0)
(-0.164822 0.0435577 0)
(-0.180198 0.040589 0)
(-0.194307 0.0376194 0)
(-0.207187 0.034752 0)
(-0.218902 0.0320372 0)
(-0.229524 0.0294816 0)
(-0.239119 0.0270539 0)
(-0.247736 0.0246893 0)
(-0.255398 0.0222918 0)
(-0.262089 0.0197367 0)
(-0.267752 0.0168741 0)
(-0.272275 0.0135331 0)
(-0.275493 0.00953039 0)
(-0.277184 0.00468152 0)
(-0.277068 -0.00118162 0)
(-0.274816 -0.00818771 0)
(-0.270065 -0.0163963 0)
(-0.262435 -0.0257622 0)
(-0.251563 -0.036096 0)
(-0.237148 -0.0470253 0)
(-0.219006 -0.0579631 0)
(-0.197141 -0.0680941 0)
(-0.171826 -0.076392 0)
(-0.143681 -0.0816839 0)
(-0.113744 -0.0827746 0)
(-0.0835042 -0.0786408 0)
(-0.0548241 -0.0686855 0)
(-0.0298031 -0.0530111 0)
(-0.0110508 -0.0326952 0)
(-0.00181254 -0.0102387 0)
(-0.00157084 0.010272 0)
(-0.00901292 0.0299268 0)
(-0.0234564 0.0463166 0)
(-0.0420938 0.0584778 0)
(-0.063044 0.0664136 0)
(-0.0850955 0.0706154 0)
(-0.107293 0.0717962 0)
(-0.128928 0.0707156 0)
(-0.149524 0.0680703 0)
(-0.16879 0.0644415 0)
(-0.186577 0.0602819 0)
(-0.202838 0.0559225 0)
(-0.217598 0.0515893 0)
(-0.230926 0.047421 0)
(-0.242915 0.0434845 0)
(-0.253661 0.0397877 0)
(-0.263258 0.0362871 0)
(-0.271777 0.0328947 0)
(-0.279262 0.029482 0)
(-0.28572 0.0258832 0)
(-0.291115 0.0219005 0)
(-0.295359 0.0173096 0)
(-0.298311 0.0118702 0)
(-0.299772 0.00534006 0)
(-0.299483 -0.00250366 0)
(-0.297132 -0.0118365 0)
(-0.292355 -0.02275 0)
(-0.284758 -0.0352073 0)
(-0.273934 -0.0489926 0)
(-0.259506 -0.0636583 0)
(-0.241175 -0.0784781 0)
(-0.218794 -0.0924174 0)
(-0.192466 -0.10414 0)
(-0.16265 -0.112071 0)
(-0.13028 -0.114544 0)
(-0.0968538 -0.110041 0)
(-0.0644177 -0.09753 0)
(-0.0354621 -0.0768275 0)
(-0.0133056 -0.048938 0)
(-0.00221248 -0.0164548 0)
(-0.00187547 0.0153632 0)
(-0.0106208 0.0425541 0)
(-0.0273582 0.0641603 0)
(-0.0485992 0.0795824 0)
(-0.0720452 0.0892053 0)
(-0.0962827 0.0938883 0)
(-0.12026 0.0946749 0)
(-0.143244 0.092603 0)
(-0.16478 0.0885925 0)
(-0.184621 0.0833955 0)
(-0.202672 0.07759 0)
(-0.21894 0.0715945 0)
(-0.233499 0.0656915 0)
(-0.246462 0.060052 0)
(-0.25796 0.0547562 0)
(-0.268125 0.0498095 0)
(-0.277078 0.0451544 0)
(-0.28492 0.0406786 0)
(-0.291723 0.0362208 0)
(-0.297522 0.0315758 0)
(-0.302314 0.0264996 0)
(-0.306046 0.0207166 0)
(-0.308616 0.0139309 0)
(-0.309864 0.00584196 0)
(-0.309573 -0.00383248 0)
(-0.307462 -0.0153249 0)
(-0.303187 -0.0287768 0)
(-0.296349 -0.0441868 0)
(-0.286503 -0.0613492 0)
(-0.273183 -0.0797858 0)
(-0.255947 -0.0986777 0)
(-0.23445 -0.11681 0)
(-0.208547 -0.132552 0)
(-0.178437 -0.143899 0)
(-0.144841 -0.148624 0)
(-0.10917 -0.144551 0)
(-0.0735964 -0.129986 0)
(-0.0410196 -0.104207 0)
(-0.0155589 -0.0679362 0)
(-0.00261766 -0.0238008 0)
(-0.00216829 0.0212667 0)
(-0.0121492 0.057037 0)
(-0.0310081 0.0843318 0)
(-0.0545422 0.103038 0)
(-0.0800159 0.114079 0)
(-0.105817 0.118821 0)
(-0.130822 0.11874 0)
(-0.154305 0.115217 0)
(-0.175872 0.109431 0)
(-0.195356 0.102318 0)
(-0.212744 0.0945857 0)
(-0.22812 0.0867345 0)
(-0.241624 0.0790966 0)
(-0.253424 0.0718675 0)
(-0.263698 0.0651334 0)
(-0.272615 0.0588924 0)
(-0.280329 0.0530693 0)
(-0.28697 0.0475268 0)
(-0.29264 0.0420719 0)
(-0.297409 0.0364623 0)
(-0.301307 0.0304123 0)
(-0.304328 0.0235996 0)
(-0.306415 0.0156765 0)
(-0.307465 0.00628538 0)
(-0.307313 -0.00491817 0)
(-0.30573 -0.0182336 0)
(-0.302413 -0.0338717 0)
(-0.296975 -0.0518985 0)
(-0.288948 -0.072164 0)
(-0.277786 -0.0942177 0)
(-0.262898 -0.117215 0)
(-0.243706 -0.139826 0)
(-0.219753 -0.160169 0)
(-0.19088 -0.175809 0)
(-0.157456 -0.183874 0)
(-0.120662 -0.181348 0)
(-0.0826818 -0.165588 0)
(-0.0467886 -0.134994 0)
(-0.0180028 -0.0897192 0)
(-0.00308292 -0.032332 0)
(-0.00247331 0.0279613 0)
(-0.0136841 0.0732795 0)
(-0.0345466 0.106602 0)
(-0.0600625 0.128442 0)
(-0.0870321 0.140454 0)
(-0.113667 0.144678 0)
(-0.138818 0.143138 0)
(-0.161825 0.13763 0)
(-0.182403 0.129622 0)
(-0.200509 0.120248 0)
(-0.216245 0.110335 0)
(-0.229796 0.100457 0)
(-0.241382 0.0909802 0)
(-0.251235 0.0821117 0)
(-0.259581 0.0739331 0)
(-0.266626 0.0664272 0)
(-0.272556 0.059497 0)
(-0.277525 0.0529783 0)
(-0.281665 0.0466483 0)
(-0.285075 0.040232 0)
(-0.287823 0.0334077 0)
(-0.289945 0.0258136 0)
(-0.29144 0.017057 0)
(-0.292266 0.00672836 0)
(-0.292327 -0.00557844 0)
(-0.291461 -0.020236 0)
(-0.289429 -0.0375413 0)
(-0.285886 -0.0576584 0)
(-0.280373 -0.0805415 0)
(-0.272295 -0.105836 0)
(-0.260931 -0.132757 0)
(-0.245467 -0.159955 0)
(-0.225097 -0.185384 0)
(-0.199203 -0.20622 0)
(-0.167649 -0.218904 0)
(-0.13118 -0.219396 0)
(-0.091783 -0.203762 0)
(-0.0529888 -0.169065 0)
(-0.0208028 -0.114446 0)
(-0.00365928 -0.0422073 0)
(-0.00282732 0.035484 0)
(-0.015354 0.0912669 0)
(-0.0381757 0.130773 0)
(-0.065347 0.155352 0)
(-0.0931738 0.167648 0)
(-0.119747 0.170583 0)
(-0.143974 0.166865 0)
(-0.165346 0.158771 0)
(-0.18376 0.148087 0)
(-0.199348 0.136136 0)
(-0.212365 0.123851 0)
(-0.223115 0.111852 0)
(-0.231912 0.100519 0)
(-0.239051 0.090052 0)
(-0.244804 0.0805115 0)
(-0.249407 0.071855 0)
(-0.253067 0.0639575 0)
(-0.255958 0.0566267 0)
(-0.258228 0.0496118 0)
(-0.259999 0.0426106 0)
(-0.261371 0.0352734 0)
(-0.26242 0.0272086 0)
(-0.263197 0.0179891 0)
(-0.263725 0.00716244 0)
(-0.263984 -0.00573227 0)
(-0.263899 -0.0211401 0)
(-0.263316 -0.0394533 0)
(-0.261973 -0.0609573 0)
(-0.259464 -0.0857542 0)
(-0.2552 -0.113655 0)
(-0.248384 -0.144034 0)
(-0.238009 -0.175647 0)
(-0.222918 -0.206423 0)
(-0.201968 -0.233265 0)
(-0.174354 -0.251951 0)
(-0.140118 -0.257286 0)
(-0.100734 -0.24367 0)
(-0.0597297 -0.206216 0)
(-0.0241109 -0.142354 0)
(-0.00440323 -0.0536783 0)
(-0.00329275 0.0439624 0)
(-0.0173572 0.111097 0)
(-0.0421779 0.156676 0)
(-0.0706156 0.183239 0)
(-0.0984672 0.194803 0)
(-0.123817 0.195442 0)
(-0.145774 0.188693 0)
(-0.164103 0.177375 0)
(-0.178976 0.16359 0)
(-0.190765 0.148825 0)
(-0.199911 0.134079 0)
(-0.206853 0.119985 0)
(-0.211996 0.1069 0)
(-0.215694 0.0949907 0)
(-0.21825 0.0842779 0)
(-0.219916 0.0746809 0)
(-0.220905 0.0660399 0)
(-0.221393 0.0581326 0)
(-0.221531 0.0506834 0)
(-0.221451 0.0433694 0)
(-0.22127 0.0358228 0)
(-0.221096 0.0276346 0)
(-0.221026 0.0183569 0)
(-0.221143 0.00750973 0)
(-0.221507 -0.00540924 0)
(-0.22214 -0.0209071 0)
(-0.222999 -0.0394678 0)
(-0.22394 -0.0615079 0)
(-0.224669 -0.0873069 0)
(-0.224679 -0.116901 0)
(-0.223189 -0.149925 0)
(-0.219088 -0.185391 0)
(-0.210932 -0.221393 0)
(-0.197047 -0.254768 0)
(-0.175826 -0.280789 0)
(-0.146315 -0.293076 0)
(-0.109019 -0.284015 0)
(-0.0669965 -0.246004 0)
(-0.0280929 -0.173698 0)
(-0.00539416 -0.0670951 0)
(-0.00398077 0.0536738 0)
(-0.020008 0.133021 0)
(-0.0469336 0.184135 0)
(-0.0760733 0.211395 0)
(-0.102764 0.220774 0)
(-0.125313 0.217834 0)
(-0.143256 0.20709 0)
(-0.156809 0.191922 0)
(-0.166532 0.174709 0)
(-0.173097 0.15704 0)
(-0.177156 0.139915 0)
(-0.179283 0.123919 0)
(-0.179958 0.109348 0)
(-0.179571 0.0962966 0)
(-0.178432 0.0847267 0)
(-0.176783 0.0745049 0)
(-0.174819 0.0654304 0)
(-0.172696 0.0572503 0)
(-0.17055 0.0496685 0)
(-0.168502 0.0423492 0)
(-0.166671 0.0349185 0)
(-0.165181 0.0269642 0)
(-0.164161 0.0180354 0)
(-0.163747 0.00764368 0)
(-0.164073 -0.00473337 0)
(-0.165262 -0.0196438 0)
(-0.167397 -0.0376452 0)
(-0.170486 -0.0592747 0)
(-0.174403 -0.0849955 0)
(-0.178813 -0.115105 0)
(-0.183068 -0.149583 0)
(-0.186099 -0.187849 0)
(-0.186323 -0.228399 0)
(-0.181626 -0.268313 0)
(-0.169562 -0.30268 0)
(-0.147908 -0.324119 0)
(-0.115644 -0.322798 0)
(-0.0746032 -0.287539 0)
(-0.0329608 -0.208673 0)
(-0.00676194 -0.082945 0)
(-0.00509375 0.0651513 0)
(-0.0238035 0.157476 0)
(-0.0529083 0.21286 0)
(-0.0817624 0.238746 0)
(-0.105476 0.243924 0)
(-0.123003 0.235848 0)
(-0.134653 0.220107 0)
(-0.141311 0.200587 0)
(-0.144045 0.179834 0)
(-0.143867 0.159418 0)
(-0.141633 0.140244 0)
(-0.138022 0.122774 0)
(-0.133549 0.107182 0)
(-0.128597 0.0934618 0)
(-0.123441 0.0814898 0)
(-0.118279 0.0710697 0)
(-0.113255 0.0619559 0)
(-0.10848 0.0538672 0)
(-0.104047 0.0464932 0)
(-0.100049 0.0394957 0)
(-0.0965878 0.0325077 0)
(-0.0937827 0.0251301 0)
(-0.0917791 0.0169284 0)
(-0.0907496 0.00742885 0)
(-0.0908923 -0.00388435 0)
(-0.092422 -0.0175697 0)
(-0.0955519 -0.0342253 0)
(-0.10046 -0.0544762 0)
(-0.107235 -0.0789449 0)
(-0.115792 -0.108188 0)
(-0.125751 -0.142572 0)
(-0.136274 -0.182047 0)
(-0.14587 -0.225754 0)
(-0.152221 -0.271409 0)
(-0.152174 -0.314432 0)
(-0.142107 -0.34694 0)
(-0.11889 -0.357016 0)
(-0.0820546 -0.329151 0)
(-0.0389949 -0.247277 0)
(-0.00872975 -0.101935 0)
(-0.00699981 0.0793688 0)
(-0.0294989 0.185073 0)
(-0.0605192 0.242185 0)
(-0.0871727 0.263492 0)
(-0.105008 0.261816 0)
(-0.114359 0.246877 0)
(-0.11678 0.225287 0)
(-0.114057 0.201237 0)
(-0.107837 0.177218 0)
(-0.099449 0.154601 0)
(-0.0898891 0.134056 0)
(-0.0798609 0.115832 0)
(-0.0698401 0.0999261 0)
(-0.0601324 0.0861958 0)
(-0.0509233 0.0744186 0)
(-0.0423189 0.06433 0)
(-0.0343767 0.0556423 0)
(-0.0271309 0.0480533 0)
(-0.0206115 0.0412485 0)
(-0.0148595 0.0349 0)
(-0.00994011 0.0286621 0)
(-0.00595315 0.0221663 0)
(-0.00304107 0.0150141 0)
(-0.00139476 0.00677051 0)
(-0.00125592 -0.00304412 0)
(-0.002915 -0.0149626 0)
(-0.00670149 -0.029579 0)
(-0.0129616 -0.0475542 0)
(-0.0220165 -0.0696129 0)
(-0.0340887 -0.0965194 0)
(-0.0491807 -0.129006 0)
(-0.0668844 -0.167601 0)
(-0.0861048 -0.212279 0)
(-0.104714 -0.261799 0)
(-0.119238 -0.312601 0)
(-0.124821 -0.357197 0)
(-0.115832 -0.382321 0)
(-0.0881943 -0.367882 0)
(-0.0464915 -0.289021 0)
(-0.0116673 -0.125113 0)
(-0.0103283 0.0980222 0)
(-0.038094 0.216387 0)
(-0.069622 0.270477 0)
(-0.0902702 0.282504 0)
(-0.0975875 0.270795 0)
(-0.094416 0.247429 0)
(-0.0840582 0.219666 0)
(-0.069325 0.191562 0)
(-0.0523675 0.165187 0)
(-0.0346857 0.14146 0)
(-0.0172504 0.120663 0)
(-0.000644608 0.102741 0)
(0.0148168 0.0874747 0)
(0.0289962 0.0745677 0)
(0.0418664 0.063699 0)
(0.053463 0.0545448 0)
(0.0638503 0.0467881 0)
(0.0730962 0.0401201 0)
(0.0812542 0.0342379 0)
(0.0883496 0.0288392 0)
(0.0943672 0.0236155 0)
(0.0992418 0.0182452 0)
(0.102849 0.0123849 0)
(0.104999 0.00566048 0)
(0.105429 -0.00234386 0)
(0.103799 -0.0120986 0)
(0.0996912 -0.0241455 0)
(0.0926185 -0.0391169 0)
(0.0820445 -0.0577572 0)
(0.0674305 -0.0809397 0)
(0.0483291 -0.109659 0)
(0.0245577 -0.144959 0)
(-0.00349956 -0.187693 0)
(-0.0344176 -0.237969 0)
(-0.0650942 -0.293981 0)
(-0.0901089 -0.34991 0)
(-0.101482 -0.392742 0)
(-0.0903693 -0.398726 0)
(-0.0554077 -0.332273 0)
(-0.0160809 -0.153969 0)
(-0.0159412 0.123971 0)
(-0.0502823 0.251219 0)
(-0.0778704 0.293889 0)
(-0.085216 0.290373 0)
(-0.0749876 0.265558 0)
(-0.0538627 0.233146 0)
(-0.0270923 0.200082 0)
(0.00173327 0.169513 0)
(0.0303317 0.142596 0)
(0.0573924 0.119527 0)
(0.0822586 0.100069 0)
(0.104683 0.0838208 0)
(0.124662 0.070339 0)
(0.142325 0.059195 0)
(0.157869 0.0499948 0)
(0.17151 0.0423834 0)
(0.183456 0.0360409 0)
(0.193891 0.0306759 0)
(0.202957 0.0260173 0)
(0.210749 0.0218061 0)
(0.217308 0.0177869 0)
(0.222607 0.0136998 0)
(0.226553 0.00927155 0)
(0.228969 0.00420638 0)
(0.229594 -0.00182547 0)
(0.228071 -0.00920216 0)
(0.223933 -0.0183697 0)
(0.216603 -0.0298683 0)
(0.205384 -0.0443698 0)
(0.189474 -0.062725 0)
(0.168003 -0.0860178 0)
(0.140141 -0.115601 0)
(0.105339 -0.153044 0)
(0.0637984 -0.199828 0)
(0.0173195 -0.256425 0)
(-0.0294159 -0.32011 0)
(-0.0672966 -0.380657 0)
(-0.0825918 -0.413633 0)
(-0.0640939 -0.373031 0)
(-0.0222305 -0.190538 0)
(-0.0241353 0.162201 0)
(-0.0639348 0.28643 0)
(-0.0760891 0.303535 0)
(-0.0574015 0.27774 0)
(-0.0205228 0.23877 0)
(0.023683 0.199233 0)
(0.0689274 0.163944 0)
(0.111844 0.134138 0)
(0.150846 0.109592 0)
(0.185401 0.0896197 0)
(0.215551 0.0734613 0)
(0.241616 0.0604208 0)
(0.264034 0.0499049 0)
(0.28327 0.0414213 0)
(0.299768 0.0345645 0)
(0.313929 0.0289983 0)
(0.326098 0.0244398 0)
(0.336556 0.0206454 0)
(0.345521 0.0173994 0)
(0.353146 0.0145041 0)
(0.359513 0.0117706 0)
(0.364632 0.00901185 0)
(0.368438 0.00603412 0)
(0.370781 0.00262966 0)
(0.37142 -0.00143294 0)
(0.37001 -0.00642109 0)
(0.366086 -0.0126556 0)
(0.359046 -0.0205362 0)
(0.348124 -0.030581 0)
(0.332366 -0.0434854 0)
(0.310607 -0.0602109 0)
(0.281477 -0.0821047 0)
(0.243485 -0.111033 0)
(0.195311 -0.149433 0)
(0.13655 -0.199966 0)
(0.0693313 -0.263975 0)
(0.00111058 -0.337099 0)
(-0.0520235 -0.400112 0)
(-0.0659744 -0.402572 0)
(-0.0284621 -0.237707 0)
(-0.0302332 0.218708 0)
(-0.0653384 0.309323 0)
(-0.0367666 0.280771 0)
(0.0260383 0.23027 0)
(0.0968109 0.182335 0)
(0.16447 0.142523 0)
(0.224977 0.11127 0)
(0.277178 0.0872519 0)
(0.32134 0.0688561 0)
(0.358333 0.0547168 0)
(0.389183 0.0437883 0)
(0.414875 0.0352919 0)
(0.43629 0.0286499 0)
(0.454181 0.0234309 0)
(0.46918 0.0193079 0)
(0.481805 0.0160279 0)
(0.492474 0.0133896 0)
(0.501515 0.0112283 0)
(0.509176 0.00940418 0)
(0.515627 0.00779363 0)
(0.520968 0.00628227 0)
(0.525229 0.00475898 0)
(0.528366 0.0031108 0)
(0.530259 0.00121773 0)
(0.530703 -0.00105339 0)
(0.529397 -0.00385718 0)
(0.525929 -0.00738121 0)
(0.519751 -0.0118634 0)
(0.510143 -0.0176216 0)
(0.496164 -0.025102 0)
(0.476584 -0.0349612 0)
(0.449787 -0.0482029 0)
(0.413672 -0.0664039 0)
(0.365599 -0.0920469 0)
(0.302644 -0.128876 0)
(0.222735 -0.181736 0)
(0.1273 -0.254184 0)
(0.0272701 -0.340327 0)
(-0.0419598 -0.40088 0)
(-0.025347 -0.293891 0)
(0.00182713 0.268556 0)
(0.00544633 0.280357 0)
(0.112461 0.202602 0)
(0.229739 0.141725 0)
(0.326529 0.0999166 0)
(0.403656 0.0712354 0)
(0.464923 0.0516462 0)
(0.513374 0.0381823 0)
(0.551692 0.028755 0)
(0.582136 0.0220086 0)
(0.606469 0.0170836 0)
(0.626043 0.0134276 0)
(0.641895 0.0106762 0)
(0.654822 0.00858259 0)
(0.665441 0.00697375 0)
(0.674229 0.00572442 0)
(0.681552 0.00474034 0)
(0.687686 0.0039477 0)
(0.692832 0.00328616 0)
(0.69713 0.00270411 0)
(0.700657 0.00215498 0)
(0.703437 0.00159426 0)
(0.705438 0.000977162 0)
(0.706572 0.000256478 0)
(0.706689 -0.000619921 0)
(0.705566 -0.00171274 0)
(0.702898 -0.00309622 0)
(0.69828 -0.00486564 0)
(0.691166 -0.00715094 0)
(0.68083 -0.010141 0)
(0.666281 -0.0141279 0)
(0.64613 -0.0195919 0)
(0.618374 -0.0273701 0)
(0.58004 -0.0389935 0)
(0.526751 -0.0573341 0)
(0.452418 -0.0876687 0)
(0.348751 -0.138732 0)
(0.208453 -0.22083 0)
(0.0635588 -0.324733 0)
(0.0289631 -0.31459 0)
(0.293835 0.143438 0)
(0.382851 0.125924 0)
(0.536095 0.0771089 0)
(0.651494 0.0459932 0)
(0.722445 0.0280658 0)
(0.768474 0.0175331 0)
(0.800432 0.0112902 0)
(0.823326 0.00753962 0)
(0.840101 0.00521859 0)
(0.852673 0.00372734 0)
(0.862282 0.00273377 0)
(0.869742 0.00205072 0)
(0.875614 0.00156906 0)
(0.880293 0.00122257 0)
(0.884066 0.00096929 0)
(0.887145 0.000781223 0)
(0.889682 0.000638665 0)
(0.891792 0.000526959 0)
(0.89355 0.00043466 0)
(0.895009 0.000352369 0)
(0.896192 0.000271792 0)
(0.897103 0.000184957 0)
(0.89772 8.38079e-05 0)
(0.898001 -3.99809e-05 0)
(0.897876 -0.000195478 0)
(0.897248 -0.000393481 0)
(0.895985 -0.000647474 0)
(0.893912 -0.000974718 0)
(0.890801 -0.00139911 0)
(0.886342 -0.00195691 0)
(0.880106 -0.00270679 0)
(0.871473 -0.0037521 0)
(0.859487 -0.00529155 0)
(0.842557 -0.00773609 0)
(0.817874 -0.0119856 0)
(0.780184 -0.020059 0)
(0.71781 -0.0363836 0)
(0.60428 -0.0695713 0)
(0.432014 -0.127076 0)
(0.316871 -0.151684 0)
)
;

boundaryField
{
    movingWall
    {
        type            fixedValue;
        value           uniform (1 0 0);
    }
    fixedWalls
    {
        type            noSlip;
    }
    frontAndBack
    {
        type            empty;
    }
}


// ************************************************************************* //
