1.275 	2.15223e-18 	-2.76991e-20 	-0.0330079 	-0.000603159 	-2.06969e-22
1.825 	2.15223e-18 	-1.39322e-20 	0.00127638 	-0.0037984 	1.72585e-21
2.375 	2.15223e-18 	-2.66896e-23 	0.177239 	-0.00524509 	-6.82174e-22
