1.45 	0 	0 	0.0030601 	-0.00371195 	3.95841e-21
2.35 	0 	0 	0.110251 	-0.00835437 	1.99524e-21
