1.45 	0 	0 	-0.292484
2.35 	0 	0 	-0.127755
