1.275 	2.15223e-18 	-2.76991e-20 	-0.0344796 	-0.000439074 	-1.90325e-22
1.825 	2.15223e-18 	-1.39322e-20 	-0.00949709 	-0.00275477 	1.67851e-21
2.375 	2.15223e-18 	-2.66896e-23 	0.115208 	-0.00323019 	-7.00075e-22
