/*--------------------------------*- C++ -*----------------------------------*\
  =========                 |
  \\      /  F ield         | OpenFOAM: The Open Source CFD Toolbox
   \\    /   O peration     | Website:  https://openfoam.org
    \\  /    A nd           | Version:  6.0
     \\/     M anipulation  |
\*---------------------------------------------------------------------------*/
FoamFile
{
    version     2.0;
    format      ascii;
    class       volScalarField;
    location    "1";
    object      p;
}
// * * * * * * * * * * * * * * * * * * * * * * * * * * * * * * * * * * * * * //

dimensions      [0 2 -2 0 0 0 0];

internalField   nonuniform List<scalar> 
62000
(
0.024874
0.0263939
0.0279339
0.0294994
0.0310916
0.0327156
0.0343731
0.0360704
0.0378102
0.0396002
0.0414444
0.0433523
0.0453295
0.0473881
0.0495357
0.0517875
0.0541541
0.0566541
0.0593025
0.0621222
0.0651336
0.0683646
0.0718427
0.0756017
0.0796778
0.0841113
0.0889472
0.0942329
0.100021
0.106361
0.113308
0.120906
0.129192
0.138185
0.147874
0.1582
0.169041
0.18018
0.191284
0.201877
0.211319
0.218815
0.223494
0.224458
0.220838
0.212052
0.198063
0.179552
0.157887
0.134909
0.112482
0.0921389
0.0746545
0.0604691
0.0491722
0.0403201
0.0333234
0.02784
0.0235284
0.0202526
0.0267713
0.028437
0.0301213
0.0318296
0.0335636
0.0353278
0.0371246
0.0389595
0.0408357
0.04276
0.0447369
0.0467747
0.0488797
0.0510624
0.0533311
0.055699
0.0581775
0.060783
0.0635306
0.066441
0.0695342
0.0728359
0.0763724
0.0801752
0.0842779
0.0887188
0.0935389
0.0987828
0.104498
0.110731
0.117531
0.124937
0.132984
0.141686
0.151031
0.160963
0.171368
0.182048
0.1927
0.202889
0.212038
0.219425
0.224266
0.225746
0.223062
0.215644
0.203404
0.186894
0.167294
0.14625
0.125476
0.106436
0.0899183
0.0764619
0.0657309
0.0573504
0.050744
0.0456215
0.041664
0.0388195
0.0281297
0.0299327
0.0317549
0.0336013
0.0354736
0.0373759
0.0393106
0.0412828
0.043296
0.0453563
0.0474683
0.0496397
0.051877
0.0541894
0.0565858
0.0590777
0.0616769
0.064398
0.0672561
0.0702702
0.0734596
0.0768481
0.0804607
0.0843268
0.088478
0.0929498
0.0977805
0.103012
0.108686
0.114849
0.121542
0.128803
0.136662
0.145131
0.154198
0.163809
0.17386
0.184168
0.194455
0.204328
0.213262
0.220602
0.225638
0.227633
0.225843
0.219716
0.20912
0.194496
0.176861
0.157684
0.138536
0.12081
0.105298
0.0926146
0.082491
0.0746164
0.0684369
0.0636985
0.0601056
0.0576811
0.0290946
0.0310259
0.0329766
0.034952
0.036954
0.0389867
0.0410528
0.043157
0.0453028
0.0474959
0.049741
0.0520452
0.0544148
0.0568586
0.0593848
0.0620048
0.0647296
0.067573
0.0705495
0.0736768
0.0769734
0.0804614
0.0841648
0.0881107
0.0923288
0.0968526
0.101717
0.106962
0.112626
0.118751
0.125375
0.132534
0.140253
0.148543
0.157392
0.16675
0.176519
0.186532
0.196536
0.206172
0.21496
0.222308
0.227571
0.230083
0.229154
0.224252
0.215209
0.202372
0.186615
0.169245
0.151701
0.135295
0.120825
0.108951
0.0994768
0.09214
0.086414
0.0820837
0.0788804
0.0768741
0.0295882
0.0316534
0.0337387
0.0358492
0.0379866
0.0401551
0.0423571
0.0445974
0.0468795
0.049209
0.0515907
0.0540314
0.0565374
0.0591169
0.0617782
0.0645317
0.0673884
0.0703611
0.0734639
0.0767133
0.0801272
0.0837262
0.0875332
0.0915735
0.0958753
0.10047
0.10539
0.110672
0.116353
0.122471
0.129061
0.136157
0.14378
0.151941
0.160627
0.169793
0.179347
0.189137
0.19893
0.208398
0.217107
0.224513
0.230033
0.233065
0.232971
0.229236
0.221667
0.210529
0.196568
0.180949
0.164982
0.149903
0.1365
0.125473
0.116682
0.109915
0.104674
0.100776
0.0979749
0.096383
0.0297676
0.0319605
0.0341738
0.0364131
0.0386803
0.0409795
0.0433135
0.0456868
0.0481031
0.0505677
0.0530853
0.0556625
0.0583055
0.0610222
0.0638206
0.0667109
0.0697035
0.0728108
0.076046
0.0794252
0.0829653
0.0866855
0.0906079
0.0947561
0.0991567
0.103839
0.108834
0.114176
0.119899
0.126038
0.132628
0.139696
0.147264
0.155342
0.163917
0.172946
0.182346
0.191977
0.201625
0.210991
0.219678
0.227189
0.232995
0.236552
0.23727
0.234655
0.228491
0.218976
0.20674
0.19282
0.178408
0.164658
0.152348
0.142199
0.134128
0.12796
0.123229
0.119785
0.11741
0.116233
0.0295489
0.0318767
0.0342257
0.0366013
0.0390055
0.0414421
0.0439141
0.0464259
0.0489813
0.0515856
0.0542436
0.0569617
0.0597463
0.0626049
0.0655455
0.0685778
0.0717121
0.0749601
0.0783347
0.0818513
0.085526
0.0893771
0.0934258
0.0976944
0.102208
0.106994
0.112083
0.117505
0.123293
0.129481
0.136098
0.143173
0.150725
0.158761
0.167272
0.176216
0.185518
0.195049
0.204612
0.213934
0.222652
0.23031
0.23643
0.240519
0.242032
0.240496
0.235678
0.227715
0.217139
0.20487
0.191988
0.179568
0.16837
0.159128
0.151807
0.146268
0.142076
0.139109
0.137173
0.136409
0.0290788
0.0315367
0.0340162
0.0365232
0.0390599
0.0416303
0.0442374
0.0468857
0.049579
0.0523225
0.055121
0.0579809
0.0609082
0.0639107
0.0669957
0.0701732
0.073453
0.0768465
0.0803662
0.0840268
0.0878439
0.0918349
0.0960202
0.100421
0.105061
0.109966
0.115165
0.120686
0.126562
0.132821
0.139495
0.146607
0.154178
0.162212
0.170702
0.179609
0.188864
0.198348
0.207882
0.217214
0.226012
0.233857
0.240315
0.244944
0.24724
0.246749
0.243224
0.236753
0.22778
0.217119
0.205745
0.194654
0.184588
0.176279
0.16974
0.164857
0.161227
0.158761
0.157284
0.156938
0.0282724
0.030868
0.0334863
0.0361327
0.0388096
0.0415208
0.0442696
0.0470603
0.049897
0.0527848
0.0557288
0.0587351
0.0618101
0.0649612
0.068196
0.0715238
0.0749548
0.0784998
0.0821708
0.0859825
0.0899497
0.0940893
0.0984208
0.102964
0.107743
0.112781
0.118106
0.123745
0.129728
0.136083
0.142838
0.150018
0.157639
0.165708
0.174217
0.183131
0.192386
0.201873
0.211427
0.220819
0.229741
0.237811
0.244632
0.24981
0.252878
0.253402
0.251125
0.246092
0.23867
0.229575
0.219686
0.209923
0.201001
0.193651
0.18792
0.183721
0.180681
0.178735
0.177732
0.177804
0.0272608
0.0299905
0.0327434
0.0355254
0.0383392
0.0411888
0.0440774
0.0470096
0.0499894
0.0530219
0.0561122
0.0592665
0.0624911
0.0657932
0.0691805
0.0726623
0.0762485
0.0799496
0.0837777
0.0877467
0.0918713
0.0961676
0.100655
0.105352
0.11028
0.115465
0.120931
0.126705
0.132814
0.139286
0.146148
0.153421
0.161123
0.16926
0.177825
0.186786
0.196085
0.205621
0.215242
0.224738
0.233827
0.242155
0.249363
0.255099
0.258932
0.260446
0.25938
0.255738
0.24982
0.242255
0.233832
0.225394
0.217632
0.211263
0.206369
0.202879
0.20045
0.199048
0.198538
0.199035
0.0259624
0.028834
0.0317299
0.0346559
0.0376145
0.0406097
0.043645
0.0467249
0.0498536
0.0530363
0.0562782
0.0595856
0.0629649
0.0664233
0.0699685
0.0736095
0.0773567
0.0812199
0.0852112
0.0893443
0.0936336
0.0980946
0.102746
0.107606
0.112697
0.118041
0.123662
0.129586
0.135839
0.142449
0.149439
0.156832
0.164643
0.17288
0.181535
0.190581
0.199963
0.209589
0.219321
0.228963
0.238257
0.246875
0.254493
0.260796
0.265391
0.267875
0.267984
0.265691
0.261236
0.255166
0.248188
0.241073
0.23448
0.229113
0.225077
0.222322
0.22053
0.219692
0.219688
0.220616
0.0244979
0.0275086
0.0305444
0.0336112
0.0367122
0.0398513
0.0430322
0.0462595
0.0495374
0.0528711
0.0562661
0.0597285
0.0632648
0.0668822
0.0705884
0.0743925
0.0783047
0.0823349
0.0864949
0.0907984
0.0952593
0.0998928
0.104717
0.109751
0.115014
0.120528
0.126318
0.132408
0.138822
0.145588
0.152728
0.160264
0.168211
0.176576
0.185354
0.194519
0.204021
0.213778
0.223659
0.233487
0.243021
0.25196
0.260009
0.266891
0.272243
0.275682
0.276939
0.275958
0.272928
0.268325
0.262774
0.256978
0.251565
0.247219
0.244068
0.242072
0.240938
0.240686
0.241209
0.242576
0.0227902
0.0259479
0.0291317
0.0323477
0.0355988
0.0388891
0.0422223
0.0456031
0.0490361
0.0525265
0.0560799
0.0597024
0.0634011
0.0671828
0.0710554
0.075028
0.079111
0.0833141
0.0876489
0.0921293
0.0967689
0.101583
0.106589
0.111804
0.11725
0.122947
0.128918
0.135188
0.14178
0.148719
0.156029
0.16373
0.171838
0.180359
0.18929
0.198606
0.208264
0.218186
0.228254
0.238302
0.24811
0.257398
0.265899
0.273371
0.27948
0.283859
0.286239
0.286538
0.284901
0.281734
0.277593
0.273113
0.268887
0.265579
0.263333
0.262118
0.261667
0.26202
0.263083
0.264898
0.0209458
0.0242485
0.0275781
0.030941
0.0343407
0.0377811
0.0412665
0.0448013
0.0483903
0.0520388
0.0557525
0.0595378
0.0634015
0.0673506
0.0713932
0.0755383
0.0797966
0.0841775
0.0886928
0.0933561
0.0981813
0.103183
0.108378
0.113785
0.119423
0.125314
0.131479
0.137942
0.144727
0.151857
0.159356
0.167243
0.175535
0.184237
0.193348
0.202846
0.212691
0.222813
0.233101
0.243404
0.253518
0.263181
0.272155
0.280227
0.287095
0.292404
0.295886
0.297438
0.297164
0.295411
0.292663
0.289495
0.286465
0.284213
0.282894
0.282483
0.282734
0.283714
0.285339
0.287613
0.0188933
0.0223488
0.0258324
0.0293504
0.0329064
0.0365043
0.0401484
0.0438436
0.0475946
0.051407
0.0552866
0.0592398
0.063274
0.067396
0.071614
0.0759372
0.0803765
0.0849411
0.089643
0.0944958
0.0995133
0.10471
0.110103
0.11571
0.121551
0.127646
0.134016
0.140686
0.147677
0.155015
0.16272
0.170814
0.179311
0.188219
0.197536
0.207244
0.217306
0.227659
0.2382
0.248788
0.259237
0.269301
0.278766
0.287452
0.29508
0.30131
0.305877
0.308657
0.309721
0.309357
0.307988
0.306128
0.3043
0.303117
0.302742
0.303157
0.304134
0.30576
0.307959
0.310704
0.0167306
0.0203376
0.0239735
0.0276451
0.0313564
0.0351113
0.0389145
0.0427708
0.0466853
0.0506633
0.054711
0.0588351
0.0630426
0.0673409
0.0717381
0.0762436
0.0808685
0.0856219
0.0905159
0.0955643
0.100781
0.106179
0.111779
0.117595
0.123647
0.129956
0.136544
0.143432
0.150645
0.158204
0.166134
0.174452
0.183176
0.192311
0.20186
0.211805
0.222112
0.232725
0.243548
0.254452
0.265262
0.275752
0.285728
0.295038
0.30343
0.310577
0.316215
0.320201
0.322581
0.323587
0.323584
0.323029
0.322409
0.322311
0.322901
0.324162
0.325883
0.328176
0.330971
0.334202
0.0143914
0.0181574
0.0219536
0.0257867
0.0296608
0.0335799
0.0375489
0.0415725
0.0456563
0.0498056
0.0540271
0.0583272
0.0627137
0.0671937
0.0717756
0.0764689
0.0812851
0.0862332
0.0913254
0.0965758
0.101998
0.107606
0.113419
0.119452
0.125725
0.132259
0.139075
0.146195
0.153641
0.161438
0.169607
0.178169
0.187138
0.196523
0.206326
0.216532
0.227111
0.238011
0.249145
0.260392
0.271591
0.282528
0.293033
0.30298
0.312141
0.320199
0.326896
0.332072
0.335747
0.338103
0.339453
0.3402
0.340792
0.34179
0.34336
0.345487
0.347975
0.350954
0.354359
0.35809
0.0119627
0.015887
0.0198424
0.0238362
0.0278727
0.0319562
0.0360916
0.0402839
0.0445388
0.0488618
0.0532596
0.0577389
0.0623076
0.066973
0.0717436
0.0766292
0.0816414
0.0867894
0.0920854
0.0975439
0.103179
0.109003
0.115037
0.121296
0.127799
0.134567
0.141621
0.148985
0.156678
0.164726
0.173151
0.181972
0.191206
0.20086
0.210939
0.22143
0.232306
0.24352
0.254991
0.266607
0.278219
0.289627
0.300678
0.311274
0.321209
0.330177
0.337924
0.344274
0.349227
0.35292
0.355613
0.357657
0.359469
0.361575
0.364144
0.367155
0.370428
0.374113
0.37815
0.382399
0.00938243
0.0134726
0.0175952
0.0217575
0.0259639
0.0302188
0.0345273
0.0388946
0.0433266
0.047829
0.0524087
0.0570728
0.0618293
0.0666856
0.0716505
0.0767339
0.081948
0.0873018
0.0928078
0.0984807
0.104335
0.110383
0.116646
0.123138
0.12988
0.136892
0.144196
0.151813
0.159766
0.16808
0.176774
0.185871
0.195387
0.20533
0.215706
0.226504
0.237701
0.249253
0.261086
0.273096
0.285144
0.297043
0.308659
0.319916
0.330631
0.340509
0.349297
0.35681
0.363025
0.368038
0.372063
0.375403
0.378436
0.381662
0.385242
0.389156
0.393234
0.397644
0.402328
0.407111
0.00673356
0.0109891
0.0152782
0.0196085
0.0239848
0.0284114
0.032894
0.0374377
0.0420488
0.046733
0.0514975
0.0563494
0.0612972
0.0663482
0.0715115
0.0767973
0.0822181
0.087783
0.0935046
0.0993981
0.105478
0.111757
0.118256
0.12499
0.131979
0.139245
0.146808
0.154691
0.162916
0.171507
0.180486
0.189875
0.199689
0.209939
0.220633
0.231759
0.243298
0.255212
0.26743
0.279858
0.292365
0.304776
0.316973
0.328904
0.340406
0.351194
0.361019
0.369684
0.37715
0.383472
0.388821
0.393454
0.397714
0.40207
0.406679
0.411513
0.416414
0.421568
0.426922
0.432259
0.00395938
0.00838726
0.0128499
0.0173553
0.0219083
0.0265134
0.0311764
0.0359027
0.0406987
0.0455703
0.0505251
0.0555704
0.060715
0.0659663
0.0713336
0.0768276
0.0824609
0.0882428
0.0941861
0.100307
0.106618
0.113135
0.119878
0.126862
0.134108
0.141636
0.149468
0.157628
0.166136
0.175018
0.184295
0.19399
0.20412
0.214695
0.225723
0.237198
0.249101
0.261399
0.274026
0.286894
0.299881
0.312823
0.325617
0.338236
0.350532
0.362232
0.373089
0.382898
0.391602
0.399222
0.405887
0.41181
0.417299
0.422794
0.428443
0.434213
0.439957
0.445874
0.451914
0.457823
0.00111012
0.00571274
0.0103515
0.0150345
0.019767
0.0245536
0.0294003
0.0343126
0.0392973
0.0443602
0.0495093
0.0547521
0.0600977
0.0655537
0.0711296
0.0768365
0.0826875
0.0886918
0.0948628
0.101216
0.107767
0.114529
0.121523
0.128765
0.136275
0.144075
0.152186
0.160632
0.169435
0.17862
0.18821
0.198225
0.208685
0.219602
0.230985
0.242827
0.255115
0.267817
0.280874
0.294204
0.307693
0.321184
0.334592
0.34791
0.36101
0.373625
0.385513
0.39646
0.406394
0.415302
0.423277
0.430488
0.437211
0.443854
0.450559
0.457283
0.463885
0.470584
0.477334
0.483838
-0.00181973
0.0029617
0.00778051
0.0126452
0.0175612
0.0225332
0.0275675
0.0326699
0.0378473
0.0431058
0.0484539
0.0538989
0.0594506
0.0651165
0.0709065
0.0768318
0.0829063
0.089139
0.0955436
0.102137
0.108933
0.115947
0.1232
0.130707
0.13849
0.146571
0.154971
0.163714
0.172823
0.182323
0.192237
0.202587
0.213394
0.224668
0.236422
0.248651
0.261342
0.27447
0.287977
0.301789
0.315799
0.329859
0.343897
0.357927
0.371838
0.385373
0.39829
0.410369
0.421524
0.431713
0.44099
0.449488
0.457446
0.465246
0.473016
0.480708
0.488187
0.495687
0.503163
0.510282
-0.00481407
0.000149749
0.00515227
0.0102023
0.0153056
0.0204669
0.0256929
0.0309893
0.0363636
0.0418219
0.047373
0.0530245
0.0587865
0.0646667
0.0706754
0.0768241
0.0831271
0.0895938
0.0962379
0.103077
0.110125
0.117397
0.124917
0.132697
0.140761
0.149132
0.15783
0.166881
0.176306
0.186133
0.196385
0.207084
0.218251
0.229899
0.242041
0.254673
0.267788
0.28136
0.295338
0.309652
0.324202
0.338849
0.353532
0.368287
0.383019
0.397478
0.411425
0.424634
0.437005
0.448468
0.459044
0.468827
0.478025
0.48699
0.495839
0.504514
0.512886
0.521206
0.529431
0.537191
-0.00787545
-0.00272499
0.00246549
0.00770516
0.0129999
0.0183547
0.0237766
0.0292715
0.0348471
0.0405098
0.0462687
0.0521317
0.0581093
0.0642092
0.0704421
0.0768198
0.0833573
0.0900638
0.0969535
0.104044
0.111352
0.11889
0.126682
0.134744
0.143098
0.151767
0.160773
0.170141
0.179894
0.190059
0.20066
0.211721
0.223263
0.2353
0.247846
0.2609
0.274455
0.288491
0.302959
0.317794
0.332903
0.348153
0.363497
0.37899
0.394552
0.409941
0.42492
0.439255
0.452836
0.465567
0.477436
0.488503
0.498943
0.509079
0.519016
0.528687
0.53797
0.547128
0.55612
0.564543
-0.0109897
-0.00564883
-0.000266568
0.0051666
0.0106569
0.0162093
0.0218314
0.027529
0.0333104
0.0391819
0.0451531
0.0512321
0.0574297
0.0637541
0.0702161
0.076828
0.0836052
0.0905572
0.0976986
0.105048
0.112621
0.120431
0.128505
0.136856
0.145507
0.154484
0.163806
0.173502
0.183593
0.194108
0.205071
0.216507
0.228437
0.240878
0.253845
0.267337
0.28135
0.295867
0.310844
0.326219
0.341905
0.357775
0.373795
0.390039
0.406442
0.422767
0.438779
0.454241
0.469029
0.483024
0.496184
0.508534
0.52022
0.531536
0.542573
0.553254
0.563462
0.573476
0.583261
0.592373
-0.0141591
-0.00862342
-0.00304494
0.0025862
0.00827642
0.014031
0.0198577
0.0257627
0.0317545
0.0378397
0.0440282
0.0503284
0.0567515
0.0633059
0.0700026
0.0768544
0.0838774
0.091081
0.0984803
0.106094
0.113939
0.12203
0.130392
0.13904
0.147997
0.15729
0.166938
0.176971
0.187411
0.198286
0.209623
0.221447
0.23378
0.246639
0.260041
0.273987
0.288476
0.303492
0.318995
0.334928
0.351209
0.367716
0.384427
0.401435
0.418688
0.435955
0.453005
0.469592
0.485585
0.50084
0.515287
0.528919
0.541852
0.554352
0.566497
0.5782
0.58935
0.600238
0.610833
0.620659
-0.0173693
-0.0116349
-0.00585622
-2.30997e-05
0.00587126
0.0118323
0.017868
0.0239848
0.0301914
0.0364948
0.0429052
0.0494313
0.0560847
0.0628739
0.0698104
0.0769075
0.0841818
0.0916428
0.0993061
0.107192
0.115315
0.123693
0.13235
0.141303
0.150574
0.160192
0.170176
0.180556
0.191355
0.202602
0.214325
0.226549
0.239298
0.252588
0.266441
0.280857
0.295838
0.311371
0.327417
0.343925
0.360818
0.377979
0.395397
0.413181
0.431295
0.449513
0.467604
0.485319
0.502515
0.519027
0.53476
0.549674
0.563858
0.57755
0.590814
0.603552
0.615657
0.627438
0.638868
0.649437
-0.0206219
-0.0146842
-0.00870087
-0.00266122
0.00344177
0.00961373
0.015863
0.0221963
0.0286226
0.0351491
0.0417865
0.0485437
0.0554329
0.0624626
0.0696446
0.0769928
0.0845244
0.0922491
0.100183
0.108346
0.116756
0.125427
0.134388
0.143653
0.153247
0.163198
0.173526
0.184263
0.195432
0.207062
0.219182
0.231818
0.244996
0.258733
0.273051
0.287953
0.303441
0.319507
0.336114
0.353215
0.370737
0.388567
0.406705
0.425279
0.444264
0.46344
0.482578
0.501421
0.519819
0.537587
0.554602
0.570799
0.586234
0.601121
0.61551
0.629295
0.642372
0.655062
0.667345
0.678683
-0.0239043
-0.0177593
-0.0115672
-0.00531687
0.000999067
0.00738637
0.0138537
0.020408
0.0270587
0.0338131
0.0406822
0.0476754
0.0548052
0.0620804
0.0695133
0.077118
0.0849127
0.092907
0.101117
0.109565
0.118267
0.12724
0.136511
0.146097
0.156022
0.166315
0.176997
0.1881
0.199648
0.211672
0.224201
0.237262
0.250882
0.265079
0.279876
0.295279
0.311291
0.327907
0.345091
0.362801
0.380968
0.399483
0.418357
0.437734
0.457602
0.477745
0.497934
0.517908
0.537509
0.556532
0.57483
0.592309
0.609
0.625089
0.640614
0.655456
0.669516
0.683134
0.696297
0.708435
-0.0272175
-0.0208607
-0.0144552
-0.00798945
-0.00145596
0.00515136
0.0118415
0.0186216
0.0255016
0.0324888
0.0395949
0.0468295
0.0542054
0.0617319
0.0694214
0.0772887
0.0853526
0.0936228
0.102116
0.110855
0.119857
0.129138
0.138728
0.148642
0.158905
0.169549
0.180595
0.192074
0.204012
0.21644
0.229389
0.242887
0.256961
0.271631
0.286923
0.302841
0.319392
0.336573
0.354352
0.372687
0.391516
0.410732
0.430355
0.450547
0.471309
0.492427
0.513674
0.534783
0.555587
0.575863
0.595443
0.614203
0.63215
0.649445
0.66611
0.68202
0.697079
0.711641
0.725702
0.738666
-0.0305491
-0.0239763
-0.0173532
-0.0106679
-0.00391245
0.00291932
0.00983681
0.0168474
0.0239613
0.0311863
0.0385342
0.046015
0.0536423
0.0614252
0.0693767
0.0775121
0.085851
0.0944032
0.103186
0.112223
0.121531
0.131128
0.141043
0.151294
0.161905
0.172908
0.184325
0.19619
0.208528
0.221372
0.234753
0.248699
0.263241
0.278397
0.294197
0.310645
0.32775
0.345513
0.363902
0.382879
0.402385
0.422317
0.442705
0.463726
0.485393
0.507496
0.529807
0.552055
0.574064
0.595594
0.616456
0.636499
0.655706
0.674211
0.692026
0.709013
0.725083
0.740607
0.755593
0.769416
-0.0338998
-0.0271063
-0.0202609
-0.0133513
-0.00636925
0.00069172
0.00784133
0.0150873
0.0224401
0.0299079
0.0375029
0.0452355
0.0531195
0.0611647
0.0693841
0.0777937
0.0864138
0.0952544
0.104333
0.113675
0.123297
0.133216
0.143465
0.15406
0.165026
0.176398
0.188197
0.200457
0.213205
0.226475
0.240298
0.254705
0.269727
0.285383
0.301705
0.318697
0.336372
0.354732
0.373746
0.393381
0.41358
0.434244
0.45541
0.477273
0.499856
0.522953
0.546334
0.569725
0.592941
0.615726
0.637868
0.659195
0.67966
0.699379
0.718347
0.736421
0.753515
0.770017
0.785946
0.800657
-0.0372587
-0.0302403
-0.0231684
-0.0160301
-0.0088169
-0.00152215
0.0058643
0.0133504
0.020947
0.0286625
0.0365095
0.0444989
0.0526451
0.0609578
0.0694506
0.0781402
0.0870475
0.0961827
0.105564
0.115217
0.12516
0.135409
0.146
0.156946
0.168277
0.180026
0.192215
0.204881
0.218049
0.231756
0.246033
0.260912
0.276426
0.292595
0.309452
0.327004
0.345263
0.364234
0.38389
0.404199
0.425107
0.446517
0.468476
0.491194
0.514706
0.538806
0.563266
0.587805
0.612231
0.636272
0.659696
0.682307
0.704035
0.724972
0.745102
0.764271
0.7824
0.799897
0.816797
0.832429
-0.0406259
-0.0333778
-0.0260746
-0.0187028
-0.0112537
-0.00372031
0.00390783
0.011639
0.0194845
0.0274529
0.0355574
0.0438092
0.0522231
0.0608092
0.0695814
0.078557
0.0877579
0.0971942
0.106885
0.116856
0.127126
0.137714
0.148653
0.15996
0.171663
0.183798
0.196387
0.209467
0.223066
0.23722
0.251963
0.267326
0.283345
0.30004
0.317446
0.33557
0.354428
0.374027
0.39434
0.415337
0.436969
0.459141
0.481907
0.505493
0.529945
0.555058
0.580604
0.606296
0.631934
0.657233
0.681939
0.705833
0.728823
0.750981
0.772274
0.792545
0.811722
0.83023
0.848119
0.864703
-0.0439911
-0.0365089
-0.0289699
-0.0213602
-0.0136706
-0.00589394
0.00198068
0.00996182
0.0180611
0.0262875
0.0346546
0.0431739
0.0518609
0.0607259
0.0697832
0.0790508
0.0885514
0.0982952
0.108301
0.118598
0.129203
0.140136
0.151432
0.163107
0.175192
0.187721
0.200719
0.214224
0.228264
0.242876
0.258095
0.273955
0.29049
0.307724
0.325692
0.344404
0.363876
0.384117
0.405101
0.426803
0.449175
0.472123
0.49571
0.520178
0.545582
0.571718
0.598359
0.625209
0.652065
0.678623
0.704612
0.729791
0.754047
0.777428
0.799892
0.821274
0.841509
0.861044
0.879949
0.897519
-0.0473533
-0.0396323
-0.0318528
-0.0240003
-0.0160653
-0.00804044
8.56172e-05
0.00832177
0.0166801
0.0251696
0.0338047
0.0425972
0.0515631
0.0607129
0.0700614
0.0796272
0.0894338
0.0994916
0.10982
0.120449
0.131397
0.142682
0.154343
0.166395
0.178869
0.191803
0.205219
0.219158
0.233649
0.24873
0.264437
0.280804
0.297868
0.315654
0.334198
0.353511
0.373611
0.394509
0.416181
0.438602
0.461729
0.485468
0.50989
0.535252
0.561619
0.58879
0.616533
0.644548
0.672623
0.700443
0.727715
0.754179
0.779699
0.804305
0.827941
0.85044
0.871743
0.89232
0.912261
0.930847
-0.0507037
-0.0427394
-0.0347148
-0.0266149
-0.0184298
-0.0101519
-0.0017695
0.00672664
0.015349
0.024107
0.0330154
0.0420864
0.0513367
0.060777
0.0704225
0.0802925
0.0904116
0.10079
0.111448
0.122416
0.133714
0.145359
0.157393
0.16983
0.182702
0.196048
0.209892
0.224276
0.239228
0.254789
0.270994
0.287881
0.305487
0.323837
0.342971
0.362899
0.383641
0.405211
0.427585
0.450741
0.474637
0.499182
0.524454
0.550724
0.578068
0.606282
0.635137
0.664323
0.693623
0.722706
0.751264
0.779015
0.805801
0.831635
0.856449
0.880071
0.902452
0.924087
0.945089
0.964729
-0.0540406
-0.0458279
-0.0375533
-0.0292011
-0.0207609
-0.012225
-0.00358116
0.00518016
0.0140718
0.0231037
0.0322908
0.0416461
0.0511866
0.0609235
0.0708721
0.0810527
0.0914907
0.102196
0.113191
0.124505
0.13616
0.148174
0.160588
0.173418
0.186697
0.200466
0.214747
0.229585
0.245008
0.261059
0.277775
0.295193
0.313353
0.332281
0.352017
0.372574
0.393972
0.416229
0.43932
0.463227
0.487907
0.513273
0.539408
0.566599
0.59493
0.6242
0.654173
0.684537
0.715066
0.745415
0.775259
0.804295
0.832347
0.859407
0.8854
0.910149
0.933618
0.956325
0.978409
0.999133
-0.057355
-0.0488895
-0.0403603
-0.031751
-0.023051
-0.0142522
-0.00534196
0.00368957
0.0128558
0.0221666
0.031638
0.0412831
0.0511195
0.0611587
0.0714165
0.081914
0.0926774
0.103717
0.115055
0.126723
0.138742
0.151132
0.163935
0.177167
0.190862
0.205061
0.219789
0.235091
0.250996
0.267549
0.284786
0.302748
0.321474
0.340992
0.361344
0.382543
0.404613
0.427571
0.451394
0.476065
0.501546
0.527746
0.554759
0.582885
0.612216
0.642552
0.673654
0.705203
0.736965
0.768584
0.799715
0.830038
0.859357
0.887647
0.914822
0.940705
0.965269
0.989063
1.01225
1.0341
-0.0606452
-0.051922
-0.0431331
-0.0342618
-0.0252969
-0.0162301
-0.00704833
0.00225871
0.0117048
0.0213003
0.0310616
0.0410022
0.0511406
0.0614883
0.0720616
0.0828822
0.0939777
0.105358
0.117046
0.129075
0.141467
0.15424
0.16744
0.181083
0.195202
0.209841
0.225026
0.240802
0.2572
0.274265
0.292035
0.310552
0.329856
0.349977
0.370959
0.392815
0.415569
0.439243
0.463813
0.489265
0.51556
0.54261
0.570514
0.599587
0.629931
0.661343
0.693582
0.726322
0.759322
0.792213
0.824632
0.856241
0.886825
0.916343
0.9447
0.971718
0.997387
1.02228
1.0466
1.0696
-0.0639055
-0.0549196
-0.0458663
-0.0367279
-0.0274931
-0.0181532
-0.00869451
0.000893444
0.010625
0.0205107
0.0305676
0.0408097
0.051256
0.0619183
0.0728133
0.0839636
0.0953977
0.107126
0.119171
0.131569
0.14434
0.157505
0.171111
0.185172
0.199725
0.214814
0.230465
0.246725
0.263626
0.281214
0.299529
0.318613
0.338508
0.359245
0.38087
0.403396
0.42685
0.451254
0.476586
0.502832
0.529957
0.557871
0.586681
0.616715
0.648084
0.680583
0.71397
0.747909
0.782152
0.816318
0.850027
0.882923
0.914773
0.94552
0.975062
1.00322
1.03
1.05601
1.08148
1.10567
-0.0671358
-0.0578814
-0.0485578
-0.0391467
-0.0296362
-0.0200173
-0.0102761
-0.00040146
0.00962127
0.0198032
0.0301616
0.0407112
0.0514714
0.0624545
0.0736775
0.0851641
0.0969436
0.109027
0.121436
0.13421
0.147369
0.160934
0.174953
0.189442
0.204437
0.219986
0.236113
0.252868
0.270282
0.288404
0.307276
0.326938
0.347437
0.368803
0.391084
0.414294
0.438462
0.463611
0.48972
0.516776
0.544745
0.573538
0.603267
0.634275
0.666682
0.700279
0.734821
0.769965
0.805456
0.840899
0.875899
0.91008
0.943194
0.975167
1.00589
1.03519
1.06309
1.09022
1.11686
1.14228
-0.0703224
-0.0607955
-0.0511975
-0.0415093
-0.0317185
-0.0218159
-0.0117872
-0.00162065
0.00869874
0.0191823
0.0298481
0.0407111
0.0517916
0.0631019
0.0746596
0.0864892
0.0986214
0.111066
0.123848
0.137005
0.15056
0.164533
0.178975
0.1939
0.209347
0.225364
0.241977
0.259237
0.277176
0.295844
0.315282
0.335536
0.356651
0.378659
0.40161
0.425518
0.450413
0.476323
0.503223
0.531104
0.559932
0.589619
0.620281
0.652278
0.685734
0.72044
0.756148
0.792505
0.829249
0.865973
0.902265
0.937732
0.972109
1.00531
1.03722
1.06766
1.09668
1.12495
1.15279
1.17947
-0.0734628
-0.0636581
-0.0537802
-0.0438094
-0.033733
-0.0235413
-0.0132195
-0.00275563
0.00786584
0.0186568
0.0296355
0.0408179
0.0522245
0.0638684
0.0757671
0.0879465
0.100438
0.113252
0.126413
0.139962
0.153921
0.16831
0.183182
0.198553
0.214461
0.230957
0.248065
0.265841
0.284315
0.303539
0.323558
0.344414
0.366158
0.388821
0.412455
0.437076
0.462713
0.489397
0.517103
0.545824
0.575526
0.60612
0.63773
0.670728
0.705246
0.741072
0.777954
0.815531
0.853533
0.89154
0.929124
0.965875
1.00151
1.03593
1.06902
1.10061
1.13076
1.16018
1.18924
1.21722
-0.0765494
-0.0664623
-0.0562999
-0.0460417
-0.0356747
-0.0251889
-0.0145689
-0.00380233
0.00712686
0.0182308
0.0295286
0.0410363
0.0527756
0.0647595
0.0770061
0.0895421
0.1024
0.115591
0.129139
0.143087
0.157458
0.172271
0.187583
0.203409
0.219787
0.236771
0.254386
0.272687
0.291707
0.3115
0.332109
0.353582
0.375967
0.399297
0.423629
0.448976
0.475369
0.502842
0.53137
0.560945
0.591537
0.623054
0.655625
0.689638
0.72523
0.762188
0.800252
0.839057
0.878323
0.917616
0.956494
0.994528
1.03142
1.06707
1.10134
1.13407
1.16535
1.19594
1.22623
1.25555
-0.0795746
-0.0691996
-0.0587472
-0.0481963
-0.0375333
-0.0267479
-0.0158244
-0.00474964
0.00649268
0.0179152
0.0295376
0.0413767
0.0534544
0.0657845
0.0783853
0.0912845
0.104516
0.118091
0.132033
0.146388
0.161179
0.176425
0.192186
0.208475
0.225333
0.242815
0.260946
0.279783
0.299361
0.319733
0.340946
0.363046
0.386086
0.410097
0.43514
0.461226
0.488391
0.516668
0.546032
0.576476
0.607972
0.640425
0.673972
0.709013
0.745691
0.783792
0.823047
0.863088
0.903621
0.944203
0.984373
1.02369
1.06184
1.0987
1.13414
1.16802
1.20044
1.23219
1.26374
1.29443
-0.0825348
-0.071867
-0.0611197
-0.050271
-0.0393068
-0.0282166
-0.0169839
-0.00559537
0.00596598
0.0177131
0.0296663
0.0418429
0.0542658
0.0669487
0.0799106
0.0931802
0.106793
0.120758
0.135103
0.149873
0.165091
0.18078
0.196997
0.213759
0.231106
0.249096
0.267754
0.287138
0.307284
0.328248
0.350076
0.372816
0.396523
0.421229
0.446996
0.473837
0.501787
0.530882
0.561097
0.592426
0.624841
0.658246
0.692783
0.728865
0.766642
0.805897
0.846351
0.887636
0.929443
0.971316
1.01278
1.05338
1.09278
1.13085
1.16747
1.20249
1.23605
1.26898
1.30181
1.33391
-0.0854189
-0.0744529
-0.0634052
-0.0522533
-0.0409826
-0.0295821
-0.0180349
-0.00632717
0.00555863
0.0176359
0.0299255
0.0424456
0.0552196
0.0682616
0.0815909
0.0952374
0.109238
0.123602
0.138356
0.153549
0.169204
0.185342
0.202026
0.219269
0.237116
0.255623
0.274818
0.294761
0.315486
0.337053
0.359508
0.382901
0.407287
0.432701
0.459207
0.486816
0.515566
0.545495
0.576576
0.608804
0.642153
0.676525
0.712064
0.749202
0.788089
0.828509
0.870171
0.912707
0.955792
0.998957
1.04171
1.08359
1.12424
1.16352
1.2013
1.23746
1.27216
1.30628
1.34041
1.37396
-0.0882272
-0.076958
-0.0656048
-0.0541444
-0.0425617
-0.0308453
-0.0189779
-0.00694497
0.00527145
0.0176851
0.0303177
0.0431878
0.0563197
0.0697277
0.0834316
0.0974624
0.111858
0.126628
0.1418
0.157423
0.173523
0.19012
0.207279
0.225014
0.243369
0.262405
0.282147
0.302658
0.323975
0.346156
0.36925
0.393309
0.418388
0.444524
0.471782
0.500174
0.529738
0.560516
0.592478
0.625621
0.659918
0.695271
0.731828
0.770034
0.810044
0.85164
0.894519
0.938315
0.982683
1.02714
1.07119
1.11434
1.15623
1.19672
1.23567
1.27296
1.3088
1.34412
1.37957
1.4146
-0.0909455
-0.0793675
-0.0677035
-0.0559292
-0.0440291
-0.0319915
-0.0197984
-0.00743489
0.00511764
0.0178734
0.0308547
0.0440808
0.0575766
0.071357
0.0854419
0.0998638
0.114662
0.129845
0.145443
0.161505
0.178058
0.195123
0.212766
0.231002
0.249875
0.269449
0.289749
0.310841
0.33276
0.355567
0.379313
0.404049
0.429836
0.456706
0.48473
0.513919
0.544313
0.575954
0.608812
0.642885
0.678146
0.714494
0.752083
0.79137
0.832515
0.875297
0.919401
0.964464
1.01012
1.05588
1.10122
1.14563
1.18876
1.23044
1.27055
1.30897
1.34595
1.38248
1.41927
1.45581
-0.0935758
-0.0816838
-0.0697035
-0.0576098
-0.0453867
-0.033022
-0.0204973
-0.00779701
0.00509798
0.0182023
0.0315388
0.0451277
0.0589945
0.0731544
0.0876278
0.102448
0.117656
0.133261
0.149292
0.165802
0.182816
0.200357
0.218494
0.237241
0.256642
0.276765
0.297634
0.319317
0.341849
0.365296
0.389705
0.415133
0.441638
0.469258
0.498062
0.528062
0.5593
0.591819
0.625589
0.660607
0.696847
0.734205
0.772839
0.813222
0.855514
0.899495
0.944833
0.99117
1.03812
1.08517
1.1318
1.17749
1.22185
1.26472
1.30597
1.34553
1.38365
1.42138
1.45953
1.49763
-0.0961004
-0.0838891
-0.0715871
-0.0591687
-0.0466172
-0.0339202
-0.0210584
-0.00801591
0.00522702
0.0186855
0.0323832
0.0463408
0.0605847
0.0751305
0.0899989
0.105225
0.12085
0.136884
0.153356
0.170321
0.187807
0.205833
0.224473
0.243739
0.26368
0.284361
0.30581
0.328095
0.351254
0.37535
0.400437
0.426568
0.453806
0.482188
0.511787