/*--------------------------------*- C++ -*----------------------------------*\
  =========                 |
  \\      /  F ield         | OpenFOAM: The Open Source CFD Toolbox
   \\    /   O peration     | Website:  https://openfoam.org
    \\  /    A nd           | Version:  6.0
     \\/     M anipulation  |
\*---------------------------------------------------------------------------*/
FoamFile
{
    version     2.0;
    format      ascii;
    class       surfaceScalarField;
    location    "1";
    object      phi;
}
// * * * * * * * * * * * * * * * * * * * * * * * * * * * * * * * * * * * * * //

dimensions      [0 3 -1 0 0 0 0];

internalField   nonuniform List<scalar> 
123526
(
-0.000159238
2.63613e-05
0.000159682
-0.000158754
2.85202e-05
-0.000158233
3.08576e-05
-0.000157667
3.33884e-05
-0.000157058
3.6129e-05
-0.000156397
3.90971e-05
-0.000155686
4.23121e-05
-0.000154916
4.57952e-05
-0.000154086
4.95683e-05
-0.000153188
5.36562e-05
-0.00015222
5.80869e-05
-0.000151172
6.28896e-05
-0.000150044
6.80961e-05
-0.000148821
7.37392e-05
-0.000147499
7.98584e-05
-0.000146069
8.64999e-05
-0.000144527
9.37061e-05
-0.000142851
0.00010152
-0.000141038
0.000110005
-0.000139076
0.000119223
-0.000136948
0.000129226
-0.000134636
0.000140094
-0.000132134
0.000151914
-0.000129407
0.000164745
-0.000126448
0.000178712
-0.00012323
0.000193897
-0.000119723
0.000210415
-0.000115909
0.000228399
-0.000111741
0.00024796
-0.000107201
0.000269271
-0.000102232
0.000292458
-9.68029e-05
0.000317718
-9.08548e-05
0.000345208
-8.43328e-05
0.00037513
-7.71794e-05
0.000407683
-6.93046e-05
0.000443043
-6.06485e-05
0.000481439
-5.11177e-05
0.000523018
-4.06164e-05
0.00056792
-2.90685e-05
0.000616241
-1.6394e-05
0.000667955
-2.52459e-06
0.000722912
1.25412e-05
0.00078084
2.87665e-05
0.000841269
4.60991e-05
0.000903525
6.44617e-05
0.000966748
8.3762e-05
0.00102987
0.000103924
0.00109157
0.000124896
0.00115022
0.000146659
0.00120362
0.000169172
0.00124876
0.000192355
0.00128144
0.000215931
0.00129595
0.000239568
0.00128455
0.000262652
0.00123744
0.000284388
0.001142
0.000303719
0.000981859
0.000319393
0.000732898
0.000329905
0.000351248
-0.00030281
0.000331947
-0.000156497
2.59202e-05
0.000156937
-0.000156019
2.80432e-05
-0.000155503
3.03419e-05
-0.000154945
3.2831e-05
-0.000154343
3.55266e-05
-0.000153691
3.84464e-05
-0.000152989
4.16095e-05
-0.000152229
4.50368e-05
-0.00015141
4.87493e-05
-0.000150524
5.27715e-05
-0.000149569
5.71317e-05
-0.000148535
6.18583e-05
-0.000147421
6.69827e-05
-0.000146215
7.25346e-05
-0.00014491
7.85543e-05
-0.000143499
8.50915e-05
-0.000141976
9.21849e-05
-0.000140322
9.98693e-05
-0.000138533
0.000108217
-0.000136597
0.00011729
-0.000134496
0.000127128
-0.000132214
0.000137816
-0.000129745
0.00014945
-0.000127054
0.000162057
-0.000124134
0.000175797
-0.000120958
0.000190726
-0.000117499
0.00020696
-0.000113736
0.000224641
-0.000109625
0.000243854
-0.000105148
0.000264799
-0.000100249
0.000287564
-9.48995e-05
0.000312374
-8.90407e-05
0.000339354
-8.26205e-05
0.000368715
-7.55842e-05
0.000400652
-6.78457e-05
0.00043531
-5.93489e-05
0.000472947
-5.00054e-05
0.000513679
-3.97242e-05
0.000557643
-2.84338e-05
0.000604956
-1.60572e-05
0.000655584
-2.52636e-06
0.000709387
1.21674e-05
0.000766152
2.79993e-05
0.000825444
4.49301e-05
0.000886603
6.28966e-05
0.000948794
8.18184e-05
0.00101096
0.000101624
0.0010718
0.000122258
0.00112963
0.000143688
0.00118225
0.000165858
0.00122668
0.000188675
0.00125875
0.00021186
0.00127283
0.000235089
0.00126142
0.000257762
0.00121486
0.00027911
0.00112078
0.000298084
0.000962919
0.000313459
0.00071757
0.000323717
0.000341282
-0.000304115
0.000325557
-0.000153792
2.54855e-05
0.000154223
-0.000153322
2.75731e-05
-0.000152815
2.98335e-05
-0.000152265
3.22814e-05
-0.000151672
3.49326e-05
-0.00015103
3.78046e-05
-0.000150338
4.09164e-05
-0.00014959
4.42887e-05
-0.000148782
4.79413e-05
-0.000147909
5.18984e-05
-0.000146967
5.61891e-05
-0.000145948
6.08404e-05
-0.00014485
6.58836e-05
-0.00014366
7.13455e-05
-0.000142373
7.72669e-05
-0.000140981
8.3701e-05
-0.000139479
9.06831e-05
-0.000137848
9.82398e-05
-0.000136082
0.000106452
-0.000134173
0.000115383
-0.0001321
0.000125056
-0.000129849
0.000135568
-0.000127414
0.000147016
-0.000124758
0.000159405
-0.000121879
0.000172921
-0.000118746
0.000187596
-0.000115334
0.000203551
-0.000111623
0.000220933
-0.00010757
0.000239804
-0.000103157
0.000260389
-9.83293e-05
0.00028274
-9.30593e-05
0.000307107
-8.72904e-05
0.000333589
-8.09724e-05
0.0003624
-7.4053e-05
0.000393737
-6.64497e-05
0.00042771
-5.81097e-05
0.000464611
-4.89489e-05
0.000504523
-3.88809e-05
0.00054758
-2.78379e-05
0.000593917
-1.57457e-05
0.000643496
-2.5366e-06
0.000696183
1.18039e-05
0.000751817
2.7261e-05
0.000809993
4.38064e-05
0.000870064
6.13895e-05
0.00093122
7.99401e-05
0.000992422
9.93923e-05
0.00105236
0.000119687
0.00110935
0.000140781
0.00116119
0.000162605
0.00120488
0.00018506
0.00123635
0.000207858
0.00125004
0.000230686
0.00123863
0.000252959
0.0011926
0.000273923
0.00109984
0.00029255
0.000944299
0.000307632
0.000702494
0.000317648
0.000331265
-0.000305917
0.000319332
-0.000151123
2.50595e-05
0.00015155
-0.00015066
2.71123e-05
-0.000150162
2.9335e-05
-0.000149621
3.17423e-05
-0.000149039
3.43497e-05
-0.000148408
3.71746e-05
-0.000147727
4.02357e-05
-0.000146991
4.35537e-05
-0.000146196
4.71472e-05
-0.000145337
5.104e-05
-0.000144409
5.52618e-05
-0.000143406
5.98388e-05
-0.000142324
6.48018e-05
-0.000141152
7.01746e-05
-0.000139883
7.59988e-05
-0.000138512
8.2331e-05
-0.000137032
8.92028e-05
-0.000135424
9.66334e-05
-0.000133683
0.000104711
-0.000131801
0.000113501
-0.000129757
0.000123013
-0.000127538
0.00013335
-0.000125136
0.000144616
-0.000122518
0.000156788
-0.000119679
0.000170083
-0.00011659
0.00018451
-0.000113226
0.000200189
-0.000109568
0.000217277
-0.000105574
0.000235812
-0.000101225
0.000256042
-9.64688e-05
0.000277988
-9.12791e-05
0.00030192
-8.56005e-05
0.000327913
-7.93848e-05
0.000356188
-7.25819e-05
0.000386937
-6.51124e-05
0.000420244
-5.69265e-05
0.000456429
-4.79441e-05
0.000495544
-3.80826e-05
0.000537722
-2.72777e-05
0.000583116
-1.54574e-05
0.00063168
-2.55473e-06
0.000683285
1.14495e-05
0.000737817
2.65488e-05
0.0007949
4.27244e-05
0.000853895
5.9936e-05
0.000914017
7.8123e-05
0.000974245
9.72245e-05
0.00103327
0.000117179
0.00108942
0.000137935
0.00114047
0.000159416
0.00118345
0.000181508
0.00121433
0.000203926
0.00122766
0.000226361
0.00121626
0.000248239
0.00117079
0.000268829
0.00107936
0.000287114
0.000926063
0.000301909
0.000687769
0.000311695
0.000321748
-0.000307011
0.000313257
-0.000148506
2.46397e-05
0.000148924
-0.000148052
2.66581e-05
-0.000147561
2.88438e-05
-0.00014703
3.1211e-05
-0.000146456
3.37754e-05
-0.000145835
3.65539e-05
-0.000145165
3.95651e-05
-0.000144441
4.28295e-05
-0.000143659
4.63648e-05
-0.000142812
5.01944e-05
-0.000141899
5.43484e-05
-0.000140912
5.88521e-05
-0.000139846
6.3736e-05
-0.000138692
6.90209e-05
-0.000137443
7.47493e-05
-0.000136092
8.0981e-05
-0.000134633
8.77443e-05
-0.000133049
9.50504e-05
-0.000131334
0.000102996
-0.000129479
0.000111647
-0.000127464
0.000120999
-0.000125277
0.000131163
-0.00012291
0.00014225
-0.00012033
0.000154209
-0.000117531
0.000167285
-0.000114487
0.000181467
-0.000111172
0.000196875
-0.000107567
0.000213674
-0.000103632
0.000231878
-9.93474e-05
0.00025176
-9.46642e-05
0.000273306
-8.9555e-05
0.000296813
-8.39668e-05
0.000322327
-7.78532e-05
0.000350076
-7.1166e-05
0.000380252
-6.38287e-05
0.00041291
-5.57944e-05
0.000448398
-4.6986e-05
0.000486739
-3.73248e-05
0.000528065
-2.67492e-05
0.000572545
-1.51897e-05
0.000620125
-2.57975e-06
0.00067068
1.11035e-05
0.000724139
2.58604e-05
0.000780149
4.16803e-05
0.00083808
5.85321e-05
0.000897171
7.63632e-05
0.000956419
9.51177e-05
0.00101452
0.000114733
0.00106981
0.000135152
0.00112006
0.000156288
0.00116232
0.000178021
0.00119263
0.000200063
0.0012056
0.000222111
0.00119422
0.000243604
0.00114929
0.000263824
0.00105915
0.000281776
0.000908109
0.000296289
0.000673247
0.000305854
0.000312156
-0.000308647
0.000307315
-0.000145928
2.42283e-05
0.000146341
-0.000145481
2.6213e-05
-0.000144999
2.83622e-05
-0.000144477
3.06901e-05
-0.000143913
3.3212e-05
-0.000143303
3.59448e-05
-0.000142644
3.89069e-05
-0.000141932
4.21185e-05
-0.000141163
4.55964e-05
-0.000140331
4.93635e-05
-0.000139433
5.34506e-05
-0.000138462
5.78821e-05
-0.000137413
6.26878e-05
-0.000136277
6.78862e-05
-0.000135047
7.35199e-05
-0.000133717
7.96524e-05
-0.000132281
8.63084e-05
-0.000130721
9.34917e-05
-0.000129032
0.000101307
-0.000127204
0.00010982
-0.00012522
0.000119016
-0.000123065
0.000129009
-0.000120733
0.000139919
-0.000118191
0.000151667
-0.000115433
0.000164529
-0.000112434
0.000178469
-0.000109168
0.00019361
-0.000105618
0.000210125
-0.000101741
0.000228004
-9.75228e-05
0.000247543
-9.29119e-05
0.000268698
-8.78834e-05
0.000291787
-8.23856e-05
0.000316832
-7.63736e-05
0.000344067
-6.98012e-05
0.000373682
-6.25945e-05
0.000405706
-5.47088e-05
0.000440515
-4.60703e-05
0.000478104
-3.66035e-05
0.000518601
-2.62493e-05
0.000562194
-1.49404e-05
0.00060882
-2.61082e-06
0.000658355
1.07652e-05
0.000710768
2.51939e-05
0.000765726
4.06711e-05
0.000822609
5.71739e-05
0.000880676
7.46567e-05
0.000938944
9.30686e-05
0.000996125
0.000112346
0.00105055
0.000132428
0.00110001
0.000153221
0.00114157
0.000174596
0.00117131
0.000196269
0.00118395
0.000217936
0.00117261
0.00023905
0.00112824
0.000258909
0.00103938
0.000276532
0.000890536
0.00029077
0.000659081
0.000300124
0.000303052
-0.000309602
0.000301502
-0.000143402
2.3823e-05
0.000143805
-0.000142963
2.57744e-05
-0.000142489
2.78878e-05
-0.000141975
3.01769e-05
-0.000141421
3.26571e-05
-0.00014082
3.53449e-05
-0.000140173
3.82587e-05
-0.000139472
4.14185e-05
-0.000138716
4.48398e-05
-0.000137897
4.85456e-05
-0.000137013
5.25668e-05
-0.000136058
5.69271e-05
-0.000135026
6.1656e-05
-0.000133908
6.6769e-05
-0.000132698
7.23096e-05
-0.000131389
7.83444e-05
-0.000129975
8.48947e-05
-0.000128439
9.19571e-05
-0.000126776
9.96439e-05
-0.000124976
0.000108022
-0.000123022
0.000117062
-0.0001209
0.000126888
-0.000118603
0.000137623
-0.000116099
0.000149164
-0.000113383
0.000161814
-0.00011043
0.000175516
-0.000107213
0.000190394
-0.000103717
0.000206629
-9.99002e-05
0.000224188
-9.5747e-05
0.000243392
-9.12091e-05
0.000264161
-8.62612e-05
0.000286841
-8.08535e-05
0.000311426
-7.49425e-05
0.000338158
-6.84836e-05
0.000367226
-6.14057e-05
0.00039863
-5.36659e-05
0.000432778
-4.51933e-05
0.000469634
-3.59153e-05
0.000509327
-2.57752e-05
0.000552058
-1.47075e-05
0.000597756
-2.64712e-06
0.000646299
1.04342e-05
0.000697691
2.45474e-05
0.000751617
3.96942e-05
0.000807466
5.58582e-05
0.000864517
7.30004e-05
0.000921805
9.10743e-05
0.000978057
0.000110016
0.00103161
0.000129763
0.00108027
0.000150215
0.00112112
0.000171236
0.00115031
0.000192543
0.00116262
0.000213835
0.00115132
0.000234578
0.00110749
0.000254081
0.00101988
0.000271383
0.000873221
0.000285351
0.00064509
0.000294502
0.000293856
-0.000311119
0.000295807
-0.000140914
2.34259e-05
0.000141313
-0.000140482
2.53447e-05
-0.000140016
2.74228e-05
-0.000139512
2.96738e-05
-0.000138967
3.21129e-05
-0.000138378
3.47565e-05
-0.000137741
3.76227e-05
-0.000137053
4.07313e-05
-0.00013631
4.4097e-05
-0.000135505
4.77422e-05
-0.000134636
5.16986e-05
-0.000133697
5.59887e-05
-0.000132682
6.06418e-05
-0.000131582
6.56707e-05
-0.000130392
7.11194e-05
-0.000129104
7.70578e-05
-0.000127712
8.35039e-05
-0.000126202
9.0447e-05
-0.000124564
9.80071e-05
-0.000122793
0.000106251
-0.000120869
0.000115139
-0.00011878
0.000124799
-0.000116519
0.000135363
-0.000114053
0.000146699
-0.000111379
0.000159141
-0.000108471
0.000172609
-0.000105304
0.000187229
-0.000101862
0.000203188
-9.81053e-05
0.000220432
-9.40182e-05
0.000239305
-8.95528e-05
0.000259697
-8.46854e-05
0.000281975
-7.93673e-05
0.00030611
-7.35565e-05
0.000332349
-6.721e-05
0.000360881
-6.02588e-05
0.000391681
-5.26622e-05
0.000425184
-4.43518e-05
0.000461327
-3.52573e-05
0.000500235
-2.53245e-05
0.000542128
-1.44894e-05
0.000586925
-2.68796e-06
0.000634502
1.011e-05
0.000684897
2.39195e-05
0.000737813
3.8747e-05
0.000792644
5.4582e-05
0.000848689
7.13912e-05
0.000905002
8.91322e-05
0.000960326
0.000107742
0.00101301
0.000127154
0.00106088
0.000147267
0.00110104
0.000167937
0.00112968
0.000188884
0.0011417
0.000209807
0.00113044
0.000230185
0.00108717
0.00024934
0.00100082
0.000266326
0.000856285
0.000280029
0.000631457
0.000288986
0.000285138
-0.000311969
0.000290228
-0.000138477
2.30348e-05
0.000138867
-0.000138053
2.49215e-05
-0.000137595
2.69648e-05
-0.000137099
2.91785e-05
-0.000136564
3.15772e-05
-0.000135984
3.41773e-05
-0.000135358
3.69966e-05
-0.000134681
4.0055e-05
-0.00013395
4.3366e-05
-0.000133159
4.69517e-05
-0.000132305
5.08442e-05
-0.000131381
5.50654e-05
-0.000130382
5.96439e-05
-0.000129301
6.459e-05
-0.00012813
6.99484e-05
-0.000126863
7.5792e-05
-0.000125494
8.21354e-05
-0.000124007
8.89611e-05
-0.000122396
9.63964e-05
-0.000120653
0.000104509
-0.00011876
0.000113246
-0.000116704
0.000122744
-0.000114478
0.000133138
-0.000112051
0.000144273
-0.000109419
0.00015651
-0.000106557
0.000169747
-0.00010344
0.000184113
-0.000100052
0.000199801
-9.63551e-05
0.000216736
-9.23332e-05
0.000235285
-8.79406e-05
0.000255306
-8.31534e-05
0.000277189
-7.79243e-05
0.000300882
-7.22127e-05
0.000326639
-6.59773e-05
0.000354648
-5.9151e-05
0.000384857
-5.16947e-05
0.00041773
-4.35426e-05
0.000453177
-3.46268e-05
0.000491322
-2.48948e-05
0.0005324
-1.42845e-05
0.000576318
-2.73269e-06
0.000622954
9.79234e-06
0.000672376
2.3309e-05
0.000724301
3.78276e-05
0.000778129
5.33429e-05
0.000833178
6.98264e-05
0.000888521
8.72397e-05
0.000942919
0.000105521
0.000994732
0.000124602
0.0010418
0.000144378
0.00108127
0.0001647
0.00110938
0.000185292
0.00112108
0.000205852
0.00110987
0.000225871
0.00106713
0.000244684
0.000982003
0.00026136
0.000839584
0.000274804
0.000617974
0.000283572
0.000276308
-0.000313398
0.000284757
-0.000136078
2.26516e-05
0.000136463
-0.000135661
2.45067e-05
-0.000135212
2.6516e-05
-0.000134725
2.86928e-05
-0.000134199
3.10518e-05
-0.000133629
3.3609e-05
-0.000133015
3.63823e-05
-0.00013235
3.93912e-05
-0.000131631
4.26483e-05
-0.000130854
4.61755e-05
-0.000130014
5.00051e-05
-0.000129106
5.41584e-05
-0.000128125
5.86634e-05
-0.000127062
6.3528e-05
-0.00012591
6.87972e-05
-0.000124664
7.45474e-05
-0.000123318
8.07897e-05
-0.000121856
8.74997e-05
-0.00012027
9.48121e-05
-0.000118556
0.000102796
-0.000116693
0.000111384
-0.00011467
0.000120722
-0.000112479
0.000130948
-0.000110092
0.000141886
-0.000107502
0.000153921
-0.000104685
0.000166931
-0.000101618
0.000181046
-9.82842e-05
0.000196468
-9.46468e-05
0.0002131
-9.06907e-05
0.000231329
-8.63701e-05
0.000250987
-8.16626e-05
0.000272483
-7.65218e-05
0.000295743
-7.09086e-05
0.000321028
-6.47827e-05
0.000348524
-5.80793e-05
0.000378156
-5.07607e-05
0.000410414
-4.27633e-05
0.000445182
-3.40214e-05
0.000482583
-2.44844e-05
0.000522866
-1.40915e-05
0.000565929
-2.78078e-06
0.000611647
9.48098e-06
0.000660119
2.27146e-05
0.000711072
3.69343e-05
0.000763914
5.21385e-05
0.00081798
6.83038e-05
0.000872362
8.53946e-05
0.000925838
0.000103351
0.000976785
0.000122103
0.00102307
0.000141546
0.00106186
0.000161524
0.00108944
0.000181765
0.00110086
0.000201967
0.00108971
0.000221635
0.00104752
0.000240111
0.000963611
0.000256483
0.000823258
0.000269673
0.00060485
0.00027826
0.000267948
-0.000314165
0.000279392
-0.000133728
2.22742e-05
0.000134105
-0.000133319
2.40983e-05
-0.000132878
2.60741e-05
-0.000132399
2.82147e-05
-0.000131882
3.05347e-05
-0.000131322
3.30499e-05
-0.000130717
3.57779e-05
-0.000130064
3.87382e-05
-0.000129358
4.19423e-05
-0.000128594
4.54119e-05
-0.000127768
4.91797e-05
-0.000126875
5.32662e-05
-0.00012591
5.7699e-05
-0.000124865
6.24834e-05
-0.000123732
6.76651e-05
-0.000122508
7.33233e-05
-0.000121183
7.94662e-05
-0.000119745
8.60624e-05
-0.000118186
9.32537e-05
-0.0001165
0.00010111
-0.000114667
0.000109553
-0.000112677
0.000118732
-0.000110522
0.000128795
-0.000108173
0.000139538
-0.000105625
0.000151374
-0.000102854
0.000164161
-9.98363e-05
0.00017803
-9.6557e-05
0.00019319
-9.29792e-05
0.000209523
-8.90879e-05
0.000227439
-8.48393e-05
0.000246739
-8.02108e-05
0.000267856
-7.51577e-05
0.000290692
-6.96416e-05
0.000315514
-6.36239e-05
0.000342509
-5.70413e-05
0.000371575
-4.98578e-05
0.000403233
-4.20116e-05
0.000437339
-3.34392e-05
0.000474014
-2.40914e-05
0.000513521
-1.39093e-05
0.00055575
-2.83163e-06
0.000600573
9.17566e-06
0.000648115
2.21356e-05
0.000698116
3.60654e-05
0.000749988
5.0967e-05
0.000803083
6.68211e-05
0.00085651
8.3595e-05
0.000909069
0.00010123
0.000959151
0.000119658
0.00100464
0.000138769
0.00104276
0.000158408
0.00106981
0.000178302
0.00108094
0.000198154
0.00106985
0.000217475
0.00102818
0.000235621
0.000945456
0.000251694
0.000807151
0.000264636
0.000591858
0.000273046
0.000259465
-0.000315512
0.000274128
-0.000131416
2.19045e-05
0.000131788
-0.000131014
2.36981e-05
-0.00013058
2.56409e-05
-0.00013011
2.7746e-05
-0.000129603
3.00275e-05
-0.000129053
3.25014e-05
-0.000128459
3.51849e-05
-0.000127817
3.80973e-05
-0.000127124
4.12493e-05
-0.000126373
4.46622e-05
-0.000125562
4.83692e-05
-0.000124684
5.23899e-05
-0.000123736
5.67516e-05
-0.000122709
6.14571e-05
-0.000121595
6.65525e-05
-0.000120391
7.21202e-05
-0.000119089
7.81651e-05
-0.000117676
8.46493e-05
-0.000116142
9.17215e-05
-0.000114484
9.9452e-05
-0.000112682
0.000107752
-0.000110724
0.000116776
-0.000108605
0.000126676
-0.000106294
0.000137228
-0.000103788
0.000148868
-0.000101062
0.000161436
-9.80942e-05
0.000175063
-9.48688e-05
0.000189966
-9.135e-05
0.000206006
-8.75237e-05
0.000223614
-8.33462e-05
0.000242563
-7.87962e-05
0.000263308
-7.38297e-05
0.000285727
-6.84097e-05
0.000310095
-6.24985e-05
0.000336599
-5.60347e-05
0.000365114
-4.89837e-05
0.000396184
-4.12854e-05
0.000429643
-3.28782e-05
0.000465609
-2.37146e-05
0.00050436
-1.37368e-05
0.000545775
-2.88485e-06
0.000589725
8.87618e-06
0.000636358
2.15711e-05
0.000685426
3.52195e-05
0.000736344
4.98264e-05
0.000788482
6.53763e-05
0.000840966
8.18389e-05
0.000892615
9.91577e-05
0.000941841
0.000117264
0.000986555
0.000136048
0.001024
0.00015535
0.00105055
0.000174903
0.00106141
0.000194409
0.00105037
0.00021339
0.00100926
0.000231212
0.000927716
0.000246992
0.000791416
0.000259689
0.000579223
0.000267928
0.000251446
-0.000316202
0.000268963
-0.000129152
2.15405e-05
0.000129515
-0.000128757
2.33042e-05
-0.000128331
2.52146e-05
-0.000127869
2.72847e-05
-0.000127369
2.95286e-05
-0.000126829
3.19618e-05
-0.000126246
3.46015e-05
-0.000125615
3.7467e-05
-0.000124933
4.05678e-05
-0.000124195
4.39249e-05
-0.000123398
4.75722e-05
-0.000122536
5.15283e-05
-0.000121604
5.58201e-05
-0.000120594
6.04479e-05
-0.000119499
6.54587e-05
-0.000118316
7.09373e-05
-0.000117036
7.68859e-05
-0.000115646
8.32599e-05
-0.000114138
9.02149e-05
-0.000112507
9.7822e-05
-0.000110735
0.00010598
-0.00010881
0.000114851
-0.000106726
0.000124593
-0.000104454
0.000134957
-0.000101989
0.000146405
-9.93084e-05
0.000158756
-9.63898e-05
0.000172145
-9.3218e-05
0.000186795
-8.97581e-05
0.000202546
-8.59958e-05
0.000219853
-8.18892e-05
0.000238457
-7.74168e-05
0.000258837
-7.25361e-05
0.000280848
-6.72108e-05
0.000304772
-6.14046e-05
0.000330795
-5.50577e-05
0.000358769
-4.81365e-05
0.000389265
-4.05828e-05
0.000422091
-3.23369e-05
0.000457366
-2.33524e-05
0.000495378
-1.35731e-05
0.000535999
-2.93997e-06
0.000579095
8.58244e-06
0.000624839
2.10203e-05
0.000672991
3.43955e-05
0.000722972
4.87152e-05
0.000774166
6.39677e-05
0.000825716
8.01245e-05
0.000876463
9.71317e-05
0.000924834
0.000114921
0.00096877
0.000133381
0.00100555
0.000152351
0.00103159
0.000171567
0.00104217
0.000190732
0.00103119
0.000209379
0.000990586
0.000226882
0.000910199
0.000242375
0.000775882
0.000254833
0.000566702
0.000262905
0.000243291
-0.000317474
0.000263892
-0.000126924
2.11839e-05
0.000127283
-0.000126536
2.29181e-05
-0.000126117
2.47967e-05
-0.000125664
2.68324e-05
-0.000125174
2.90392e-05
-0.000124643
3.14324e-05
-0.00012407
3.40292e-05
-0.000123451
3.68484e-05
-0.000122781
3.98988e-05
-0.000122056
4.32012e-05
-0.000121273
4.67897e-05
-0.000120426
5.06821e-05
-0.00011951
5.49052e-05
-0.000118518
5.94566e-05
-0.000117442
6.43839e-05
-0.000116279
6.9775e-05
-0.000115021
7.56288e-05
-0.000113654
8.18943e-05
-0.000112172
8.8734e-05
-0.000110569
9.62196e-05
-0.000108827
0.000104239
-0.000106935
0.00011296
-0.000104885
0.000122545
-0.000102651
0.000132723
-0.000100227
0.000143982
-9.75916e-05
0.000156121
-9.47219e-05
0.000169277
-9.16033e-05
0.000183677
-8.82016e-05
0.000199146
-8.45033e-05
0.000216155
-8.04665e-05
0.000234421
-7.6071e-05
0.000254442
-7.1275e-05
0.000276053
-6.60432e-05
0.000299542
-6.03404e-05
0.000325094
-5.41083e-05
0.000352539
-4.73145e-05
0.000382473
-3.99023e-05
0.000414682
-3.18137e-05
0.00044928
-2.30037e-05
0.000486571
-1.34174e-05
0.000526416
-2.99665e-06
0.000568678
8.29424e-06
0.000613552
2.04826e-05
0.000660807
3.35922e-05
0.000709868
4.7632e-05
0.000760132
6.25938e-05
0.000810761
7.84502e-05
0.000860614
9.51504e-05
0.000908142
0.000112626
0.000951312
0.000130766
0.000987433
0.000149409
0.00101298
0.000168293
0.0010233
0.000187122
0.0010124
0.00020544
0.000972323
0.000222631
0.000893088
0.000237841
0.000760713
0.000250064
0.000554537
0.000257973
0.000235592
-0.000318088
0.000258916
-0.000124741
2.08328e-05
0.000125093
-0.000124361
2.25381e-05
-0.000123949
2.43855e-05
-0.000123504
2.63875e-05
-0.000123022
2.85578e-05
-0.000122501
3.09118e-05
-0.000121937
3.34663e-05
-0.000121329
3.62401e-05
-0.000120671
3.92411e-05
-0.000119959
4.24896e-05
-0.000119189
4.60203e-05
-0.000118356
4.98503e-05
-0.000117456
5.40057e-05
-0.000116481
5.84821e-05
-0.000115424
6.33275e-05
-0.000114281
6.86324e-05
-0.000113044
7.4393e-05
-0.000111701
8.05519e-05
-0.000110245
8.72783e-05
-0.000108669
9.46445e-05
-0.000106956
0.000102527
-0.000105096
0.0001111
-0.000103081
0.000120531
-0.000100885
0.000130527
-9.85019e-05
0.0001416
-9.59105e-05
0.000153531
-9.30892e-05
0.000166456
-9.00234e-05
0.000180613
-8.66795e-05
0.000195803
-8.30441e-05
0.000212521
-7.90768e-05
0.000230455
-7.47572e-05
0.000250124
-7.00448e-05
0.000271343
-6.49053e-05
0.000294404
-5.93043e-05
0.000319495
-5.3185e-05
0.000346421
-4.6516e-05
0.000375806
-3.92424e-05
0.00040741
-3.13074e-05
0.000441347
-2.26675e-05
0.000477934
-1.32688e-05
0.00051702
-3.0545e-06
0.000558466
8.01153e-06
0.000602489
1.99575e-05
0.000648864
3.28086e-05
0.00069702
4.65755e-05
0.000746368
6.12529e-05
0.000796087
7.68147e-05
0.000845055
9.32129e-05
0.000891744
0.000110379
0.000934148
0.000128203
0.000969614
0.000146523
0.000994664
0.00016508
0.00100472
0.000183579
0.000993878
0.000201574
0.000954305
0.000218456
0.000876188
0.000233389
0.000745733
0.000245383
0.000542473
0.000253133
0.000227752
-0.00031928
0.000254028
-0.000122595
2.04888e-05
0.000122941
-0.000122221
2.21657e-05
-0.000121817
2.39824e-05
-0.00012138
2.59512e-05
-0.000120907
2.80857e-05
-0.000120395
3.04011e-05
-0.000119842
3.2914e-05
-0.000119244
3.56432e-05
-0.000118598
3.85955e-05
-0.000117898
4.17911e-05
-0.000117142
4.52649e-05
-0.000116325
4.90334e-05
-0.00011544
5.31224e-05
-0.000114482
5.7525e-05
-0.000113444
6.22897e-05
-0.00011232
6.75099e-05
-0.000111105
7.31788e-05
-0.000109785
7.92328e-05
-0.000108354
8.58477e-05
-0.000106805
9.30963e-05
-0.000105121
0.000100845
-0.000103293
0.000109272
-0.000101313
0.000118552
-9.91534e-05
0.000128369
-9.68112e-05
0.000139259
-9.42639e-05
0.000150984
-9.14906e-05
0.000163684
-8.84771e-05
0.0001776
-8.51903e-05
0.000192517
-8.16175e-05
0.000208948
-7.77185e-05
0.000226557
-7.34741e-05
0.000245881
-6.88442e-05
0.000266714
-6.37956e-05
0.000289357
-5.82947e-05
0.000313996
-5.22862e-05
0.000340415
-4.57397e-05
0.000369262
-3.86017e-05
0.000400274
-3.08168e-05
0.000433565
-2.23428e-05
0.000469463
-1.31269e-05
0.000507808
-3.11332e-06
0.000548456
7.73418e-06
0.000591646
1.94444e-05
0.000637158
3.20439e-05
0.000684425
4.55445e-05
0.000732873
5.99437e-05
0.000781695
7.52163e-05
0.000829789
9.13174e-05
0.000875651
0.000108179
0.000917303
0.000125692
0.000952128
0.000143692
0.000976693
0.000161926
0.000986502
0.000180101
0.000975732
0.000197777
0.000936683
0.000214358
0.000859685
0.000229018
0.000731113
0.000240786
0.000530761
0.00024838
0.000220364
-0.000319814
0.000249229
-0.000120492
2.01503e-05
0.000120831
-0.000120125
2.17993e-05
-0.000119728
2.35858e-05
-0.000119298
2.5522e-05
-0.000118833
2.76214e-05
-0.000118331
2.98989e-05
-0.000117787
3.2371e-05
-0.0001172
3.50563e-05
-0.000116565
3.79608e-05
-0.000115878
4.11044e-05
-0.000115135
4.45224e-05
-0.000114332
4.82306e-05
-0.000113463
5.22542e-05
-0.000112522
5.65843e-05
-0.000111501
6.12697e-05
-0.000110397
6.64067e-05
-0.000109203
7.19856e-05
-0.000107906
7.79365e-05
-0.000106499
8.44418e-05
-0.000104977
9.15749e-05
-0.000103322
9.91913e-05
-0.000101525
0.000107476
-9.95788e-05
0.000116607
-9.74566e-05
0.000126248
-9.51546e-05
0.000136958
-9.26508e-05
0.000148482
-8.99251e-05
0.000160959
-8.69633e-05
0.000174639
-8.37331e-05
0.000189288
-8.02219e-05
0.000205438
-7.63907e-05
0.000222726
-7.22203e-05
0.000241711
-6.76718e-05
0.000262167
-6.27127e-05
0.0002844
-5.73103e-05
0.000308595
-5.14107e-05
0.000334517
-4.49844e-05
0.000362838
-3.7979e-05
0.000393271
-3.03409e-05
0.000425929
-2.20287e-05
0.000461153
-1.29909e-05
0.000498773
-3.17272e-06
0.000538641
7.46213e-06
0.000581014
1.89429e-05
0.00062568
3.12972e-05
0.000672074
4.4538e-05
0.000719634
5.86651e-05
0.000767571
7.3654e-05
0.0008148
8.9463e-05
0.000859841
0.000106024
0.000900744
0.000123229
0.000934928
0.000140915
0.000959013
0.000158831
0.000968563
0.000176687
0.000957856
0.00019405
0.000919294
0.000210334
0.000843381
0.000224727
0.000716667
0.000236273
0.000519137
0.000243714
0.000212825
-0.000320921
0.000244515
-0.000118424
1.98185e-05
0.000118758
-0.000118064
2.14401e-05
-0.000117674
2.3197e-05
-0.000117252
2.51012e-05
-0.000116796
2.71661e-05
-0.000116302
2.94063e-05
-0.000115769
3.18383e-05
-0.000115192
3.44804e-05
-0.000114568
3.73379e-05
-0.000113894
4.04304e-05
-0.000113164
4.37935e-05
-0.000112375
4.74423e-05
-0.000111521
5.14017e-05
-0.000110597
5.56605e-05
-0.000109594
6.02679e-05
-0.00010851
6.53231e-05
-0.000107336
7.08133e-05
-0.000106062
7.66629e-05
-0.00010468
8.30603e-05
-0.000103184
9.00799e-05
-0.000101558
9.75664e-05
-9.97917e-05
0.00010571
-9.7879e-05
0.000114695
-9.57934e-05
0.000124163
-9.3531e-05
0.000134696
-9.10704e-05
0.000146022
-8.83916e-05
0.000158281
-8.54809e-05
0.00017173
-8.23066e-05
0.000186114
-7.88564e-05
0.000201988
-7.50919e-05
0.000218963
-7.09946e-05
0.000237615
-6.65263e-05
0.0002577
-6.16554e-05
0.000279531
-5.63499e-05
0.000303292
-5.05573e-05
0.000328726
-4.42487e-05
0.000356531
-3.73733e-05
0.000386398
-2.98787e-05
0.000418437
-2.17245e-05
0.000453001
-1.28604e-05
0.000489911
-3.23253e-06
0.000529016
7.19525e-06
0.00057059
1.84525e-05
0.000614427
3.05679e-05
0.000659964
4.35549e-05
0.000706652
5.74158e-05
0.000753717
7.21264e-05
0.000800095
8.76482e-05
0.000844327
0.000103914
0.000884494
0.000120816
0.000918051
0.000138192
0.000941664
0.000155795
0.000950975
0.000173336
0.000940342
0.000190392
0.000902291
0.000206384
0.000827465
0.000220513
0.000702576
0.000231841
0.000507861
0.000239133
0.000205733
-0.00032137
0.000239885
-0.000116398
1.94922e-05
0.000116725
-0.000116044
2.10868e-05
-0.000115661
2.28146e-05
-0.000115247
2.46873e-05
-0.000114799
2.67182e-05
-0.000114314
2.89219e-05
-0.000113789
3.13145e-05
-0.000113223
3.39143e-05
-0.00011261
3.67257e-05
-0.000111947
3.97679e-05
-0.00011123
4.30772e-05
-0.000110455
4.66676e-05
-0.000109617
5.05639e-05
-0.000108709
5.47526e-05
-0.000107723
5.92835e-05
-0.000106658
6.42582e-05
-0.000105505
6.96614e-05
-0.000104253
7.54114e-05
-0.000102895
8.17029e-05
-0.000101425
8.86108e-05
-9.98274e-05
9.59697e-05
-9.80919e-05
0.000103975
-9.62123e-05
0.000112817
-9.41628e-05
0.000122114
-9.19396e-05
0.000132474
-8.95216e-05
0.000143605
-8.68892e-05
0.00015565
-8.4029e-05
0.00016887
-8.09099e-05
0.000182996
-7.75198e-05
0.000198599
-7.38213e-05
0.000215265
-6.9796e-05
0.000233591
-6.54067e-05
0.000253313
-6.06225e-05
0.000274748
-5.54124e-05
0.000298083
-4.97247e-05
0.00032304
-4.35317e-05
0.00035034
-3.67836e-05
0.000379652
-2.94294e-05
0.000411085
-2.14295e-05
0.000445004
-1.27348e-05
0.000481219
-3.29248e-06
0.000519576
6.93353e-06
0.000560367
1.7973e-05
0.00060339
2.98552e-05
0.000648085
4.25945e-05
0.000693914
5.61947e-05
0.00074012
7.06326e-05
0.000785655
8.58723e-05
0.000829087
0.000101847
0.000868522
0.00011845
0.000901453
0.000135521
0.000924597
0.000152815
0.000933659
0.000170047
0.000923088
0.0001868
0.000885512
0.000202505
0.000811737
0.000216377
0.000688647
0.000227491
0.000496663
0.000234635
0.000198488
-0.000322383
0.000235336
-0.000114406
1.91722e-05
0.000114728
-0.000114059
2.07404e-05
-0.000113682
2.24396e-05
-0.000113276
2.42815e-05
-0.000112835
2.6279e-05
-0.00011236
2.84467e-05
-0.000111845
3.08006e-05
-0.000111289
3.33587e-05
-0.000110687
3.61248e-05
-0.000110036
3.91176e-05
-0.000109332
4.23739e-05
-0.000108571
4.5907e-05
-0.000107747
4.97413e-05
-0.000106855
5.38611e-05
-0.000105887
5.83167e-05
-0.000104841
6.32123e-05
-0.000103708
6.85298e-05
-0.000102478
7.4182e-05
-0.000101144
8.03693e-05
-9.96998e-05
8.71675e-05
-9.813e-05
9.44009e-05
-9.64248e-05
0.000102271
-9.45779e-05
0.000110971
-9.25641e-05
0.000120101
-9.03795e-05
0.00013029
-8.80036e-05
0.00014123
-8.5417e-05
0.000153064
-8.26067e-05
0.000166061
-7.9542e-05
0.000179932
-7.62113e-05
0.000195268
-7.25777e-05
0.000211632
-6.86234e-05
0.000229638
-6.4312e-05
0.000249003
-5.96132e-05
0.000270051
-5.44967e-05
0.000292968
-4.89121e-05
0.000317458
-4.28325e-05
0.000344262
-3.62091e-05
0.000373031
-2.89921e-05
0.00040387
-2.11431e-05
0.000437157
-1.26138e-05
0.000472693
-3.35242e-06
0.000510318
6.67685e-06
0.000550342
1.7504e-05
0.000592566
2.91586e-05
0.000636435
4.16558e-05
0.000681421
5.50009e-05
0.000726782
6.91714e-05
0.000771488
8.41338e-05
0.000814132
9.9822e-05
0.000852849