/*--------------------------------*- C++ -*----------------------------------*\
  =========                 |
  \\      /  F ield         | OpenFOAM: The Open Source CFD Toolbox
   \\    /   O peration     | Website:  https://openfoam.org
    \\  /    A nd           | Version:  6.0
     \\/     M anipulation  |
\*---------------------------------------------------------------------------*/
FoamFile
{
    version     2.0;
    format      ascii;
    class       volVectorField;
    location    "1";
    object      U;
}
// * * * * * * * * * * * * * * * * * * * * * * * * * * * * * * * * * * * * * //

dimensions      [0 1 -1 0 0 0 0];

internalField   nonuniform List<vector> 
62000
(
(1.0008 0.00190229 -2.63405e-19)
(1.00063 0.00168842 -1.43352e-18)
(1.0006 0.00171586 1.83358e-19)
(1.00057 0.00174675 -2.4175e-20)
(1.00053 0.00178059 1.78753e-18)
(1.00048 0.00181774 -1.36878e-19)
(1.00044 0.00185845 -1.25945e-18)
(1.00039 0.0019031 1.37633e-18)
(1.00034 0.00195198 -1.71345e-18)
(1.00028 0.00200542 -1.25801e-18)
(1.00022 0.00206379 7.24133e-19)
(1.00016 0.00212739 2.16784e-18)
(1.0001 0.00219659 -1.40825e-18)
(1.00003 0.00227172 1.53402e-18)
(0.999957 0.00235309 -1.63987e-18)
(0.999883 0.00244107 2.60024e-18)
(0.999807 0.00253573 -3.40827e-18)
(0.999729 0.00263753 8.42598e-19)
(0.99965 0.00274642 3.13345e-19)
(0.999571 0.00286272 1.9737e-19)
(0.999492 0.00298607 -2.80327e-18)
(0.999415 0.0031168 1.47639e-18)
(0.999339 0.00325413 -1.41829e-19)
(0.999267 0.00339807 4.74456e-19)
(0.9992 0.00354749 -6.28075e-19)
(0.99914 0.0037016 -2.61512e-18)
(0.999088 0.00385869 2.83981e-18)
(0.999045 0.00401695 2.92439e-19)
(0.999015 0.00417324 4.19655e-19)
(0.998999 0.00432398 -2.8676e-18)
(0.999 0.00446417 1.99476e-18)
(0.999019 0.0045869 -5.03073e-18)
(0.99906 0.00468451 -1.27443e-18)
(0.999123 0.00474626 4.50369e-19)
(0.999209 0.00475867 9.38375e-19)
(0.999317 0.0047056 -4.88736e-18)
(0.999442 0.00456774 1.07842e-18)
(0.999576 0.00432316 9.23606e-19)
(0.999708 0.00394863 1.22149e-18)
(0.999816 0.00342144 -1.80215e-18)
(0.999872 0.00272312 -1.39518e-18)
(0.999841 0.00184995 3.69587e-20)
(0.999684 0.000798007 -1.1765e-18)
(0.999369 -0.000367221 2.25673e-18)
(0.998871 -0.00158329 3.47706e-18)
(0.998185 -0.00279311 -5.91934e-18)
(0.997329 -0.00393022 1.04163e-17)
(0.996351 -0.00494165 1.31559e-17)
(0.995322 -0.00580588 -4.87216e-18)
(0.994324 -0.00654739 1.2715e-17)
(0.993427 -0.00723436 1.81651e-17)
(0.992679 -0.00797582 2.25015e-17)
(0.992095 -0.00888066 3.81016e-18)
(0.991649 -0.0101049 4.67182e-18)
(0.991349 -0.0118178 7.48505e-18)
(0.991191 -0.0142552 1.64153e-17)
(0.991222 -0.0178176 2.08716e-18)
(0.991511 -0.02348 2.54658e-17)
(0.992342 -0.0339297 -1.57954e-17)
(0.994016 -0.0607054 1.71884e-17)
(1.00097 0.002043 -9.29487e-20)
(1.00079 0.00180024 5.9054e-19)
(1.00076 0.00182245 -2.59774e-19)
(1.00073 0.00184814 3.39177e-19)
(1.00069 0.00187671 8.57672e-19)
(1.00066 0.00190844 -7.57832e-20)
(1.00061 0.00194355 -9.87138e-19)
(1.00057 0.00198234 -4.58358e-20)
(1.00052 0.0020251 9.31632e-19)
(1.00047 0.00207218 -1.58001e-18)
(1.00042 0.00212394 -6.30261e-19)
(1.00036 0.00218067 2.19401e-18)
(1.0003 0.00224276 -1.64723e-18)
(1.00023 0.00231048 1.17413e-18)
(1.00016 0.00238422 -1.67914e-18)
(1.00009 0.00246424 9.30247e-19)
(1.00002 0.00255077 -4.05436e-19)
(0.99994 0.00264398 -3.1965e-19)
(0.999861 0.00274414 3.15325e-19)
(0.999781 0.00285129 -3.6977e-20)
(0.999701 0.00296531 7.40687e-19)
(0.99962 0.00308632 -7.84792e-19)
(0.999541 0.00321373 -6.2239e-19)
(0.999463 0.00334738 8.07592e-19)
(0.999389 0.00348624 -2.24504e-18)
(0.99932 0.0036294 -4.44877e-19)
(0.999257 0.00377527 4.61128e-18)
(0.999201 0.00392182 -1.96636e-18)
(0.999155 0.00406639 4.35946e-18)
(0.999121 0.00420511 -3.59562e-19)
(0.999099 0.00433324 -2.79572e-18)
(0.999093 0.0044447 9.37625e-19)
(0.999103 0.00453191 1.23998e-19)
(0.999131 0.00458492 1.61222e-18)
(0.999176 0.00459126 -3.58137e-18)
(0.999237 0.00453627 1.1133e-18)
(0.999311 0.00440214 1.44415e-18)
(0.99939 0.00416907 -7.47403e-19)
(0.999463 0.00381593 4.75217e-19)
(0.999512 0.00332191 2.19707e-19)
(0.999512 0.00266995 1.8415e-18)
(0.999434 0.00185648 -2.58419e-19)
(0.999251 0.000874809 1.02961e-18)
(0.998936 -0.000217214 1.08924e-18)
(0.998459 -0.00136437 -6.49436e-18)
(0.997813 -0.00251816 4.43615e-18)
(0.997013 -0.00362032 -1.46431e-17)
(0.996099 -0.00462355 -7.56506e-18)
(0.995132 -0.00550721 -3.60661e-18)
(0.994182 -0.00629142 -1.55139e-18)
(0.993315 -0.00703655 -2.05233e-17)
(0.99258 -0.0078424 -2.32458e-17)
(0.991987 -0.00881266 1.9982e-18)
(0.991527 -0.0100945 -3.82114e-18)
(0.99121 -0.0118639 -1.03189e-17)
(0.991038 -0.0143582 6.81883e-18)
(0.991052 -0.0179927 3.73071e-18)
(0.991326 -0.0237442 -2.56872e-19)
(0.992129 -0.0343315 2.52503e-17)
(0.992885 -0.0613125 -2.36338e-17)
(1.00111 0.00217928 8.09246e-19)
(1.00092 0.00191421 -2.58945e-19)
(1.0009 0.00193352 -1.536e-19)
(1.00087 0.00195593 -8.26619e-20)
(1.00084 0.00198082 2.24396e-18)
(1.0008 0.00200856 -1.87293e-18)
(1.00076 0.00203932 -7.6274e-19)
(1.00072 0.00207353 4.97326e-19)
(1.00068 0.00211135 1.42944e-18)
(1.00063 0.00215326 6.59268e-19)
(1.00058 0.00219951 -2.57744e-18)
(1.00053 0.00225047 -1.33628e-18)
(1.00047 0.00230643 1.20802e-18)
(1.00041 0.00236769 -5.45159e-19)
(1.00034 0.00243459 7.05422e-20)
(1.00027 0.00250749 2.3923e-18)
(1.0002 0.00258656 -2.47311e-18)
(1.00012 0.00267195 2.46836e-18)
(1.00005 0.00276403 -3.19286e-19)
(0.999966 0.00286275 1.8304e-18)
(0.999884 0.00296808 -8.60391e-19)
(0.999801 0.00308002 -1.57863e-18)
(0.999717 0.0031981 4.42149e-19)
(0.999635 0.00332204 2.0492e-18)
(0.999554 0.00345091 -1.55249e-18)
(0.999476 0.00358371 2.17922e-18)
(0.999402 0.00371896 -1.91709e-19)
(0.999334 0.00385455 -1.2229e-18)
(0.999273 0.00398805 -2.87663e-18)
(0.99922 0.00411545 3.14538e-18)
(0.999177 0.00423271 5.65588e-19)
(0.999146 0.00433365 7.95733e-19)
(0.999128 0.00441129 -2.29792e-18)
(0.999123 0.00445628 2.86305e-18)
(0.999131 0.00445706 -2.09556e-19)
(0.999151 0.00440027 2.21181e-18)
(0.999179 0.00426941 -1.72354e-19)
(0.999209 0.00404654 6.08295e-19)
(0.999229 0.00371235 -1.5614e-18)
(0.999226 0.00324768 3.47168e-19)
(0.999176 0.00263663 -1.36543e-18)
(0.999054 0.00187575 6.75218e-20)
(0.998845 0.0009559 -1.71312e-18)
(0.998526 -7.16645e-05 -4.63951e-18)
(0.998063 -0.00115806 3.02879e-18)
(0.997447 -0.00226267 -7.68843e-19)
(0.99669 -0.00333472 1.13717e-18)
(0.995825 -0.00433237 -7.56964e-18)
(0.994906 -0.00523623 -6.75677e-19)
(0.993995 -0.00606315 -4.82214e-20)
(0.993152 -0.00686667 -2.73244e-17)
(0.992425 -0.0077381 -1.07818e-17)
(0.991825 -0.00877672 1.42237e-17)
(0.991354 -0.0101224 1.0797e-17)
(0.99102 -0.0119568 1.00277e-17)
(0.990835 -0.0145196 -4.55219e-17)
(0.990836 -0.0182407 1.70485e-17)
(0.991097 -0.024107 -1.94999e-17)
(0.99188 -0.0348756 -7.91481e-17)
(0.991891 -0.0621681 2.6303e-17)
(1.00124 0.00230898 6.02147e-19)
(1.00104 0.00202082 -4.03529e-19)
(1.00102 0.00203774 3.06356e-19)
(1.00099 0.00205788 4.71675e-19)
(1.00097 0.00208044 -9.40975e-19)
(1.00094 0.0021057 -1.00136e-18)
(1.0009 0.00213377 7.8042e-19)
(1.00087 0.00216499 1.33227e-19)
(1.00083 0.00219948 2.95843e-19)
(1.00078 0.00223772 -1.18739e-18)
(1.00073 0.00227996 -3.76026e-19)
(1.00068 0.00232649 2.37836e-19)
(1.00063 0.00237766 8.10937e-19)
(1.00057 0.00243377 1.00616e-19)
(1.00051 0.00249512 1.36194e-18)
(1.00044 0.00256218 -2.58131e-18)
(1.00037 0.002635 1.05933e-18)
(1.00029 0.00271378 1.23941e-18)
(1.00022 0.00279887 -3.02708e-18)
(1.00013 0.00289026 3.21477e-18)
(1.00005 0.00298782 -3.38521e-19)
(0.999966 0.00309164 -3.17938e-18)
(0.999879 0.00320125 -8.25237e-19)
(0.999792 0.00331634 1.32504e-18)
(0.999705 0.00343603 1.02626e-19)
(0.999619 0.0035593 -2.04398e-18)
(0.999535 0.00368477 3.00105e-18)
(0.999454 0.00381032 -1.57064e-18)
(0.999378 0.00393365 2.78462e-19)
(0.999308 0.00405089 5.48061e-19)
(0.999246 0.00415818 3.97367e-19)
(0.999191 0.00424958 8.36045e-19)
(0.999146 0.0043187 3.26763e-19)
(0.99911 0.0043566 -1.66312e-18)
(0.999084 0.00435254 -6.33328e-19)
(0.999066 0.00429434 6.04552e-19)
(0.999051 0.0041666 -4.2261e-18)
(0.999035 0.00395297 -1.19829e-19)
(0.999008 0.00363571 8.32149e-19)
(0.998956 0.00319702 -2.65178e-18)
(0.998861 0.00262198 -4.85652e-19)
(0.998698 0.00190729 -1.87598e-19)
(0.998465 0.00104162 3.2298e-18)
(0.99814 7.06352e-05 8.39546e-19)
(0.997686 -0.000962153 6.01407e-18)
(0.997094 -0.00202313 -1.99976e-18)
(0.996373 -0.00306826 7.56678e-18)
(0.99555 -0.00406078 3.5135e-19)
(0.994672 -0.00498283 2.86337e-17)
(0.993795 -0.00584874 -5.31613e-18)
(0.992974 -0.00670685 5.13016e-17)
(0.992256 -0.00764058 3.97524e-17)
(0.991651 -0.00874453 -2.04523e-17)
(0.991169 -0.0101535 1.71725e-17)
(0.990822 -0.0120526 2.63305e-17)
(0.990625 -0.0146851 2.09405e-17)
(0.990612 -0.0184925 1.07354e-17)
(0.990861 -0.0244752 9.38344e-18)
(0.991624 -0.03543 4.8478e-17)
(0.991011 -0.0630509 -4.09919e-17)
(1.00137 0.00244391 -5.28945e-19)
(1.00116 0.00213544 -1.15248e-18)
(1.00114 0.00215041 -2.3913e-20)
(1.00112 0.00216828 1.69504e-19)
(1.00109 0.00218828 -1.07497e-18)
(1.00107 0.00221075 1.8125e-18)
(1.00104 0.00223583 -2.06134e-19)
(1.001 0.00226391 1.09473e-18)
(1.00096 0.00229506 5.1671e-19)
(1.00092 0.00232981 -2.7309e-18)
(1.00088 0.00236833 1.27348e-18)
(1.00083 0.00241094 -1.20277e-19)
(1.00078 0.00245791 -3.70506e-20)
(1.00072 0.00250948 1.78347e-18)
(1.00066 0.00256598 -1.73773e-18)
(1.00059 0.00262785 3.63298e-19)
(1.00052 0.00269515 -4.54413e-19)
(1.00045 0.00276798 5.97944e-19)
(1.00037 0.00284683 -9.45119e-19)
(1.00029 0.00293164 1.56834e-18)
(1.00021 0.00302226 -1.74217e-18)
(1.00012 0.00311879 1.50311e-18)
(1.00003 0.0032208 2.36812e-18)
(0.999936 0.0033279 -2.44325e-18)
(0.999843 0.0034393 -7.67319e-19)
(0.999749 0.00355395 3.53401e-18)
(0.999655 0.00367054 -3.38057e-18)
(0.999563 0.00378695 1.16167e-18)
(0.999474 0.00390114 -3.03719e-18)
(0.999387 0.00400907 4.34781e-18)
(0.999305 0.00410739 -1.79982e-18)
(0.999229 0.00419031 -2.44669e-18)
(0.999158 0.00425171 -5.28223e-18)
(0.999094 0.00428332 1.62976e-18)
(0.999036 0.00427504 4.40925e-19)
(0.998981 0.00421573 -5.53152e-19)
(0.998928 0.00409088 4.04795e-18)
(0.998869 0.00388557 3.72111e-18)
(0.998798 0.00358337 -9.30225e-19)
(0.998702 0.00316762 1.56801e-18)
(0.998564 0.00262423 -4.91972e-19)
(0.998364 0.0019501 -3.19669e-19)
(0.998106 0.0011319 -2.84729e-18)
(0.997775 0.000210536 -5.60473e-18)
(0.997327 -0.00077504 -3.3179e-18)
(0.996753 -0.00179744 -5.10289e-18)
(0.996061 -0.00281866 -2.04569e-18)
(0.995274 -0.00380664 4.58427e-18)
(0.994433 -0.0047452 3.61893e-18)
(0.993586 -0.00564701 -8.87862e-18)
(0.992784 -0.00655582 -3.36034e-18)
(0.992074 -0.00754854 -2.09465e-17)
(0.991466 -0.00871531 -1.20092e-18)
(0.990975 -0.0101867 -1.76924e-17)
(0.990615 -0.0121504 1.92442e-17)
(0.990407 -0.0148532 -8.26834e-18)
(0.990383 -0.0187474 -1.17508e-18)
(0.990619 -0.024848 -3.62792e-18)
(0.991366 -0.0359898 3.47118e-17)
(0.990209 -0.063943 1.84875e-17)
(1.00149 0.00257588 -3.70951e-19)
(1.00127 0.0022454 4.3895e-19)
(1.00126 0.0022586 8.08987e-19)
(1.00124 0.00227486 -4.44512e-20)
(1.00121 0.00229325 -5.37599e-19)
(1.00119 0.00231404 -6.64681e-19)
(1.00116 0.00233731 -2.70628e-19)
(1.00113 0.00236338 -1.29157e-18)
(1.00109 0.00239226 1.70599e-18)
(1.00105 0.00242449 1.65493e-18)
(1.00101 0.00246025 -2.05663e-18)
(1.00097 0.00249978 1.20441e-18)
(1.00092 0.00254341 -4.025e-19)
(1.00086 0.00259134 1.05491e-18)
(1.0008 0.00264387 -1.70014e-19)
(1.00074 0.00270154 -5.25902e-19)
(1.00067 0.00276428 -2.90686e-18)
(1.0006 0.00283219 4.44727e-18)
(1.00052 0.00290576 -2.18345e-18)
(1.00044 0.00298497 1.4875e-18)
(1.00035 0.00306954 -2.26199e-18)
(1.00026 0.00315969 1.73962e-18)
(1.00017 0.00325497 -1.60304e-18)
(1.00007 0.00335495 -1.03424e-18)
(0.99997 0.00345893 6.73494e-21)
(0.999869 0.00356584 2.41514e-21)
(0.999766 0.00367444 1.63865e-18)
(0.999663 0.00378266 2.96747e-18)
(0.99956 0.00388848 -9.68036e-19)
(0.999458 0.00398817 1.35025e-18)
(0.999358 0.00407847 -9.22095e-19)
(0.99926 0.00415362 1.45195e-19)
(0.999166 0.0042082 6.4823e-18)
(0.999075 0.0042342 -3.50183e-19)
(0.998986 0.0042222 4.37102e-18)
(0.998898 0.00416197 -2.74105e-18)
(0.998808 0.00403976 -6.5558e-18)
(0.99871 0.00384186 -3.7435e-18)
(0.998598 0.00355302 -7.40331e-19)
(0.99846 0.00315749 1.36187e-19)
(0.998283 0.00264189 4.76466e-19)
(0.998047 0.00200335 1.50218e-20)
(0.997766 0.00122672 -3.90503e-19)
(0.997427 0.000348814 4.92453e-18)
(0.996982 -0.000595248 -4.91985e-18)
(0.996423 -0.00158364 6.14324e-18)
(0.995755 -0.00258375 -1.51147e-18)
(0.994999 -0.00356787 -1.00617e-17)
(0.994188 -0.00452165 -1.65202e-17)
(0.993367 -0.00545652 2.08444e-17)
(0.992583 -0.006413 -1.85813e-17)
(0.991881 -0.00746186 1.79476e-17)
(0.991271 -0.0086891 5.54614e-18)
(0.990772 -0.0102221 -6.16451e-18)
(0.990401 -0.0122501 -9.67671e-17)
(0.990182 -0.0150239 2.70925e-17)
(0.990147 -0.0190049 -2.48878e-17)
(0.990371 -0.0252242 1.85141e-17)
(0.991103 -0.0365539 1.10873e-17)
(0.98947 -0.0648438 -2.35674e-17)
(1.00161 0.00271461 -2.08062e-18)
(1.00139 0.00236449 1.25992e-18)
(1.00137 0.00237622 5.81364e-19)
(1.00135 0.00239074 5.3557e-19)
(1.00133 0.00240715 -1.162e-18)
(1.00131 0.0024258 -1.4351e-18)
(1.00128 0.00244678 3.17424e-18)
(1.00125 0.00247048 -3.92497e-19)
(1.00122 0.00249686 4.61421e-19)
(1.00118 0.00252649 -2.97682e-18)
(1.00114 0.00255951 2.09588e-18)
(1.0011 0.00259617 -1.19834e-18)
(1.00105 0.00263674 -1.68959e-18)
(1.001 0.00268135 3.48022e-18)
(1.00094 0.00273032 -6.22551e-19)
(1.00088 0.00278417 -1.35463e-18)
(1.00081 0.00284284 -1.70181e-18)
(1.00073 0.00290629 5.33258e-18)
(1.00066 0.00297517 -2.55446e-18)
(1.00057 0.00304939 -2.59999e-18)
(1.00049 0.00312863 3.0216e-18)
(1.00039 0.00321311 -2.24273e-19)
(1.0003 0.00330245 -7.55691e-21)
(1.00019 0.00339611 -1.27275e-18)
(1.00009 0.0034935 5.9755e-19)
(0.999979 0.0035935 -2.54445e-18)
(0.999867 0.00369495 -2.24703e-18)
(0.999753 0.00379578 6.46785e-19)
(0.999637 0.00389424 2.56872e-18)
(0.999521 0.0039864 1.77357e-18)
(0.999403 0.00406946 1.84039e-18)
(0.999286 0.00413783 -1.69617e-18)
(0.999169 0.00418624 7.04446e-19)
(0.999052 0.00420725 1.92561e-18)
(0.998935 0.00419193 -3.2689e-18)
(0.998816 0.00413092 -2.673e-19)
(0.998691 0.00401104 -4.09546e-19)
(0.998557 0.00381972 2.65821e-18)
(0.998407 0.00354264 -4.10442e-19)
(0.998231 0.00316486 1.33818e-18)
(0.998016 0.00267359 8.04561e-20)
(0.997746 0.00206625 -2.37324e-19)
(0.997443 0.00132595 2.20285e-18)
(0.997095 0.000486019 -1.26451e-18)
(0.996651 -0.000421663 5.98173e-18)
(0.996103 -0.00138023 -2.41378e-19)
(0.995455 -0.00236191 2.0308e-17)
(0.994723 -0.003343 1.16007e-17)
(0.993939 -0.00431103 -1.09196e-19)
(0.993141 -0.00527679 -2.8707e-17)
(0.992373 -0.00627793 3.45857e-18)
(0.991678 -0.0073803 -1.93684e-17)
(0.991067 -0.00866606 2.60776e-17)
(0.990561 -0.0102598 -4.67591e-18)
(0.99018 -0.012352 3.50453e-17)
(0.98995 -0.0151972 -2.41511e-17)
(0.989905 -0.019266 -8.45174e-18)
(0.990117 -0.0256053 -5.06633e-17)
(0.990836 -0.037124 -1.09684e-16)
(0.988773 -0.0657559 4.11609e-17)
(1.00173 0.00285162 7.3631e-19)
(1.0015 0.00247997 1.63446e-18)
(1.00148 0.00249032 -8.52274e-19)
(1.00146 0.00250365 -1.25149e-18)
(1.00144 0.00251893 -4.24951e-19)
(1.00142 0.00253639 1.65564e-18)
(1.0014 0.00255612 7.56733e-19)
(1.00137 0.00257839 7.53907e-19)
(1.00134 0.00260317 -8.56249e-19)
(1.0013 0.00263102 7.64146e-19)
(1.00127 0.00266207 -1.18636e-18)
(1.00122 0.00269651 -2.34082e-18)
(1.00118 0.00273469 3.11446e-18)
(1.00112 0.00277665 -1.12175e-18)
(1.00107 0.00282275 -6.48257e-20)
(1.00101 0.00287355 -3.12439e-18)
(1.00094 0.0029289 2.00421e-18)
(1.00086 0.0029887 8.66964e-19)
(1.00079 0.00305367 -1.74803e-18)
(1.0007 0.0031237 5.34747e-18)
(1.00061 0.00319835 -2.02161e-18)
(1.00052 0.00327796 -4.54748e-18)
(1.00042 0.00336211 4.60053e-18)
(1.00031 0.00345021 -5.41783e-18)
(1.0002 0.00354179 1.27046e-18)
(1.00008 0.00363566 3.22965e-18)
(0.999961 0.00373075 2.19427e-19)
(0.999836 0.00382502 -2.16651e-18)
(0.999708 0.00391677 1.30951e-18)
(0.999577 0.00400233 -3.884e-20)
(0.999443 0.00407901 -3.17925e-18)
(0.999307 0.00414113 -9.7211e-19)
(0.999168 0.0041841 -1.94591e-18)
(0.999027 0.00420064 -2.67239e-18)
(0.998883 0.00418235 -1.62152e-18)
(0.998734 0.00412062 4.28885e-18)
(0.998578 0.00400277 -1.73502e-19)
(0.99841 0.00381721 -2.27743e-18)
(0.998224 0.00355046 3.58543e-18)
(0.998011 0.0031882 -1.60804e-18)
(0.997761 0.00271819 7.71452e-20)
(0.99746 0.00213814 -3.88822e-19)
(0.997134 0.00142954 -4.88093e-18)
(0.996777 0.000622688 1.33558e-18)
(0.996332 -0.000253204 2.74649e-18)
(0.995792 -0.00118575 3.43144e-18)
(0.995159 -0.00215149 -8.89511e-18)
(0.994449 -0.00313044 9.85336e-18)
(0.993687 -0.00411202 -3.1995e-17)
(0.992909 -0.00510667 6.34941e-18)
(0.992155 -0.00615018 1.24283e-17)
(0.991466 -0.00730372 -1.10026e-17)
(0.990854 -0.00864615 -3.40709e-17)
(0.990342 -0.0102998 1.58705e-17)
(0.989952 -0.0124558 1.34411e-17)
(0.989713 -0.0153732 -6.24368e-17)
(0.989657 -0.0195302 -1.89979e-17)
(0.989858 -0.0259902 6.05018e-17)
(0.990565 -0.0376991 1.04168e-16)
(0.988112 -0.0666782 -4.32429e-17)
(1.00185 0.00299582 -1.59638e-18)
(1.0016 0.00260465 1.95397e-18)
(1.00159 0.00261385 -1.18654e-18)
(1.00158 0.00262581 -1.98489e-19)
(1.00156 0.00263953 7.32255e-19)
(1.00154 0.0026553 -4.3009e-19)
(1.00151 0.00267324 1.63123e-18)
(1.00149 0.00269371 8.88018e-19)
(1.00146 0.00271659 -1.26406e-18)
(1.00142 0.00274248 -2.71579e-18)
(1.00139 0.0027715 3.15659e-18)
(1.00135 0.00280383 2.71846e-19)
(1.0013 0.00283977 -1.60671e-19)
(1.00125 0.0028793 -4.18547e-19)
(1.00119 0.00292277 2.24279e-18)
(1.00113 0.00297078 -2.96584e-18)
(1.00106 0.00302315 3.32372e-18)
(1.00099 0.00307964 -5.39308e-18)
(1.00091 0.00314113 2.22819e-18)
(1.00082 0.00320746 -1.04875e-18)
(1.00073 0.0032781 4.74211e-20)
(1.00063 0.00335342 -2.49383e-18)
(1.00053 0.00343306 6.33376e-18)
(1.00042 0.00351628 -1.7514e-18)
(1.0003 0.00360275 1.81005e-18)
(1.00018 0.00369121 -2.60123e-18)
(1.00005 0.00378068 -3.16315e-18)
(0.999912 0.00386909 3.06289e-18)
(0.999772 0.003955 -8.7783e-19)
(0.999627 0.00403455 -5.12039e-19)
(0.999477 0.00410544 8.59197e-19)
(0.999323 0.00416217 2.42774e-18)
(0.999164 0.00420021 -1.13557e-19)
(0.999 0.00421276 4.85653e-18)
(0.99883 0.00419177 -3.83707e-18)
(0.998654 0.00412936 2.50652e-18)
(0.998467 0.00401323 1.14196e-18)
(0.998267 0.00383266 1.33812e-18)
(0.998047 0.00357491 -1.10835e-18)
(0.997801 0.00322615 2.2412e-19)
(0.997518 0.00277461 9.10089e-19)
(0.997186 0.00221837 1.90846e-19)
(0.996839 0.00153732 2.25661e-18)
(0.996471 0.000759182 -1.56103e-19)
(0.996024 -8.9097e-05 -3.42533e-18)
(0.995488 -0.000999088 -6.24689e-20)
(0.994867 -0.00195132 -1.0825e-17)
(0.994174 -0.00292907 -9.85069e-18)
(0.993431 -0.00392382 3.24062e-17)
(0.99267 -0.00494589 -4.76946e-18)
(0.991929 -0.00602947 2.1495e-18)
(0.991246 -0.00723218 -6.48511e-18)
(0.990632 -0.00862968 1.29687e-17)
(0.990115 -0.0103425 -3.42416e-17)
(0.989716 -0.0125624 -1.23077e-17)
(0.989468 -0.0155521 6.84306e-17)
(0.989402 -0.0197983 3.74874e-18)
(0.989593 -0.0263805 5.14365e-17)
(0.99029 -0.0382813 -2.34443e-17)
(0.987471 -0.0676136 8.31098e-17)
(1.00196 0.00313906 -7.55309e-20)
(1.00171 0.00272654 -1.55369e-18)
(1.0017 0.00273466 6.4343e-19)
(1.00168 0.00274576 -1.06696e-18)
(1.00167 0.00275868 1.00242e-18)
(1.00165 0.00277365 -6.31176e-19)
(1.00162 0.00279073 2.29786e-18)
(1.0016 0.00281023 -1.53874e-18)
(1.00157 0.00283199 2.02436e-18)
(1.00154 0.00285663 -1.00118e-18)
(1.0015 0.00288427 -2.86615e-19)
(1.00146 0.00291502 9.20002e-19)
(1.00142 0.00294925 -2.96882e-18)
(1.00137 0.00298689 5.40655e-18)
(1.00131 0.00302829 3.4412e-19)
(1.00125 0.00307412 -2.30969e-20)
(1.00118 0.0031241 -4.19989e-18)
(1.00111 0.00317793 3.01694e-18)
(1.00103 0.00323657 -3.94494e-18)
(1.00094 0.00329983 2.64714e-18)
(1.00084 0.00336706 4.00886e-19)
(1.00074 0.00343873 2.02245e-18)
(1.00063 0.00351448 -2.04087e-18)
(1.00052 0.00359345 -3.56896e-18)
(1.00039 0.00367547 2.76089e-18)
(1.00026 0.00375919 2.37607e-18)
(1.00013 0.0038437 -2.5831e-18)
(0.999982 0.00392697 2.54743e-19)
(0.99983 0.00400757 1.42496e-18)
(0.999672 0.00408189 -4.68226e-18)
(0.999507 0.00414774 9.71081e-19)
(0.999335 0.00419947 3.17977e-19)
(0.999157 0.00423317 -6.56341e-19)
(0.998971 0.00424211 -1.06667e-18)
(0.998777 0.00421866 -1.27627e-18)
(0.998574 0.00415558 -5.22455e-19)
(0.998358 0.00404085 -4.02323e-22)
(0.998128 0.00386456 -9.58197e-19)
(0.997876 0.00361459 3.03953e-18)
(0.997598 0.00327752 -7.15081e-19)
(0.997284 0.00284197 -3.29583e-19)
(0.996922 0.00230642 5.77016e-19)
(0.996554 0.00164922 2.92094e-18)
(0.996175 0.000895882 2.36232e-18)
(0.995724 7.14764e-05 -4.17324e-18)
(0.995191 -0.000819143 4.99322e-18)
(0.99458 -0.00176009 -3.78074e-18)
(0.9939 -0.00273765 -1.52703e-17)
(0.993172 -0.00374527 -2.10555e-17)
(0.992426 -0.0047935 2.73312e-17)
(0.991696 -0.00591549 -2.33668e-17)
(0.991018 -0.00716549 1.10339e-17)
(0.990403 -0.00861661 -4.50622e-17)
(0.989881 -0.0103879 -6.78548e-18)
(0.989474 -0.0126713 -2.00835e-17)
(0.989217 -0.015734 3.76062e-18)
(0.989142 -0.02007 3.46419e-17)
(0.989321 -0.026775 -5.12945e-17)
(0.990009 -0.0388693 -5.34956e-17)
(0.986851 -0.0685602 -1.21986e-16)
(1.00208 0.0032897 -3.08802e-19)
(1.00182 0.00285763 2.61594e-19)
(1.0018 0.00286487 6.85966e-19)
(1.00179 0.00287491 7.37445e-19)
(1.00177 0.00288662 -1.29529e-18)
(1.00176 0.00290026 -6.13401e-19)
(1.00174 0.00291597 1.53759e-18)
(1.00171 0.00293409 1.0965e-18)
(1.00168 0.00295441 -2.17193e-18)
(1.00165 0.00297759 2.8048e-18)
(1.00162 0.00300373 -1.59378e-18)
(1.00158 0.00303293 -2.74113e-18)
(1.00153 0.00306554 2.17665e-18)
(1.00148 0.00310139 2.65883e-19)
(1.00143 0.00314088 -3.85573e-18)
(1.00136 0.0031847 2.6781e-18)
(1.0013 0.00323252 9.70596e-19)
(1.00122 0.00328391 -4.3916e-19)
(1.00114 0.00334002 6.78588e-19)
(1.00105 0.00340058 2.3564e-18)
(1.00095 0.00346484 -5.14649e-18)
(1.00085 0.00353333 2.87579e-18)
(1.00073 0.00360573 -9.51998e-19)
(1.00061 0.00368101 5.99458e-18)
(1.00048 0.00375917 -4.83265e-18)
(1.00035 0.00383875 1.5394e-18)
(1.0002 0.00391891 -4.02084e-18)
(1.00005 0.00399762 2.65628e-18)
(0.999883 0.00407366 -1.08242e-18)
(0.999711 0.00414324 3.76357e-18)
(0.999532 0.00420451 1.87448e-18)
(0.999343 0.00425196 -4.76867e-18)
(0.999146 0.0042817 2.52766e-18)
(0.99894 0.0042874 -9.54393e-20)
(0.998723 0.00426167 -1.85221e-18)
(0.998494 0.00419791 2.81266e-18)
(0.998252 0.00408426 3.71455e-19)
(0.997992 0.00391157 9.33147e-19)
(0.997711 0.00366825 -2.82885e-18)
(0.997402 0.0033412 1.10379e-18)
(0.997058 0.00291939 -6.64219e-19)
(0.996668 0.00240174 -3.84948e-20)
(0.996279 0.00176506 -1.96612e-18)
(0.995889 0.001033 -3.67662e-19)
(0.995432 0.000229062 -1.23185e-18)
(0.9949 -0.000645127 -5.63792e-18)
(0.994295 -0.00157693 -3.4075e-18)
(0.993626 -0.00255534 1.50148e-17)
(0.992911 -0.00357578 2.65855e-17)
(0.992177 -0.00464929 -1.35407e-17)
(0.991456 -0.00580801 1.90432e-17)
(0.990782 -0.00710379 1.53952e-17)
(0.990167 -0.00860725 2.48332e-17)
(0.989639 -0.0104363 7.03434e-17)
(0.989225 -0.0127831 4.43348e-17)
(0.98896 -0.0159191 -8.30356e-18)
(0.988875 -0.0203456 -1.16592e-16)
(0.989044 -0.0271751 -2.96997e-17)
(0.989724 -0.0394648 -1.10324e-17)
(0.986237 -0.0695203 1.07359e-16)
(1.00219 0.00344008 7.55624e-19)
(1.00192 0.00298663 -8.74172e-19)
(1.00191 0.00299304 -4.13532e-19)
(1.00189 0.00300248 2.30026e-18)
(1.00188 0.00301365 -1.83331e-18)
(1.00186 0.00302676 -1.06732e-18)
(1.00184 0.00304192 2.16097e-18)
(1.00182 0.00305941 -2.55328e-18)
(1.00179 0.00307898 2.52502e-18)
(1.00176 0.0031013 1.03011e-18)
(1.00173 0.00312652 -1.08307e-18)
(1.00169 0.00315462 -1.93125e-18)
(1.00164 0.00318607 1.56195e-18)
(1.00159 0.0032206 -1.28303e-18)
(1.00154 0.00325863 3.30982e-19)
(1.00147 0.00330094 -7.06572e-19)
(1.00141 0.00334711 1.72308e-18)
(1.00133 0.0033966 2.44185e-18)
(1.00125 0.00345067 -6.89266e-18)
(1.00115 0.00350905 4.61492e-18)
(1.00105 0.00357083 -2.93442e-18)
(1.00095 0.00363665 -2.76242e-18)
(1.00083 0.0037062 3.34329e-18)
(1.0007 0.0037783 -1.10995e-19)
(1.00057 0.00385313 -1.88986e-18)
(1.00042 0.00392911 4.07157e-19)
(1.00027 0.00400548 4.2483e-18)
(1.0001 0.00408023 7.17002e-19)
(0.999931 0.00415214 -3.08335e-18)
(0.999747 0.00421762 2.31047e-18)
(0.999553 0.00427494 -3.2774e-18)
(0.999348 0.00431839 3.75297e-18)
(0.999133 0.00434467 2.39626e-18)
(0.998906 0.0043474 1.18719e-18)
(0.998667 0.00431955 7.1278e-20)
(0.998415 0.00425506 1.07458e-18)
(0.998147 0.0041422 -2.62393e-18)
(0.99786 0.00397248 -3.03073e-18)
(0.99755 0.00373481 8.74175e-19)
(0.997212 0.00341626 1.0118e-18)
(0.996839 0.00300618 4.67836e-19)
(0.996422 0.00250392 5.05481e-20)
(0.996013 0.00188479 -4.55582e-18)
(0.995611 0.00117083 -1.42262e-18)
(0.995148 0.00038427 2.02611e-18)
(0.994614 -0.000476159 3.12481e-18)
(0.994013 -0.00140082 1.64199e-17)
(0.993352 -0.00238112 -2.42445e-18)
(0.992647 -0.00341439 8.23808e-18)
(0.991923 -0.00451238 3.41197e-17)
(0.991209 -0.0057067 -2.05685e-18)
(0.990539 -0.00704678 -9.07006e-18)
(0.989923 -0.00860143 2.16819e-17)
(0.989391 -0.0104875 1.37798e-17)
(0.98897 -0.0128976 2.07005e-17)
(0.988697 -0.0161073 6.88004e-17)
(0.988602 -0.0206249 9.60183e-17)
(0.988761 -0.0275796 1.03862e-17)
(0.989434 -0.0400665 8.44025e-17)
(0.985631 -0.0704918 2.67948e-17)
(1.00231 0.00359773 -1.06935e-18)
(1.00202 0.00312446 7.64181e-19)
(1.00201 0.00313019 1.10129e-18)
(1.002 0.0031388 -3.73194e-19)
(1.00199 0.00314903 -1.53111e-18)
(1.00197 0.00316113 3.30039e-18)
(1.00195 0.00317524 -4.23888e-18)
(1.00193 0.00319171 1.50002e-18)
(1.0019 0.00321022 8.80702e-19)
(1.00187 0.0032315 1.86424e-18)
(1.00184 0.00325565 -2.62891e-18)
(1.0018 0.00328267 -1.10679e-19)
(1.00175 0.003313 -8.76657e-19)
(1.0017 0.00334628 4.94991e-18)
(1.00165 0.00338298 -2.69414e-18)
(1.00158 0.0034239 1.77374e-18)
(1.00151 0.00346858 -2.26454e-18)
(1.00143 0.00351633 3.58285e-19)
(1.00135 0.00356863 3.20566e-18)
(1.00126 0.00362511 -1.80872e-18)
(1.00115 0.00368475 -1.3906e-18)
(1.00104 0.00374827 -1.01205e-18)
(1.00092 0.0038154 3.24535e-18)
(1.00079 0.00388477 -1.94635e-18)
(1.00065 0.00395675 1.10544e-18)
(1.0005 0.00402962 -2.06011e-18)
(1.00033 0.0041027 1.79858e-18)
(1.00016 0.00417396 -2.40877e-18)
(0.999974 0.00424237 1.77077e-20)
(0.999778 0.00430415 -2.17527e-18)
(0.99957 0.00435788 2.19532e-19)
(0.99935 0.00439794 2.08014e-19)
(0.999117 0.00442102 -1.31848e-19)
(0.998872 0.00442107 7.27344e-19)
(0.998611 0.00439121 -5.57768e-19)
(0.998336 0.00432594 2.51696e-18)
(0.998043 0.00421356 -1.47794e-18)
(0.99773 0.00404623 5.49518e-19)
(0.997393 0.00381324 7.25353e-19)
(0.997027 0.00350183 -8.58815e-19)
(0.996626 0.00310164 1.35515e-19)
(0.996183 0.00261249 -5.80808e-20)
(0.995754 0.00200821 5.43494e-18)
(0.99534 0.00130947 3.13492e-18)
(0.994869 0.000537481 1.77178e-18)
(0.994333 -0.000311684 5.69462e-18)
(0.993733 -0.0012311 -6.75602e-18)
(0.993078 -0.00221437 -1.81782e-17)
(0.99238 -0.00326071 -1.11156e-17)
(0.991664 -0.0043827 -1.46638e-17)
(0.990957 -0.0056114 -6.00896e-18)
(0.990289 -0.00699468 -2.15515e-17)
(0.989672 -0.00859952 4.93275e-17)
(0.989136 -0.0105421 -7.59869e-17)
(0.988708 -0.0130154 -2.75004e-17)
(0.988427 -0.016299 -6.50837e-17)
(0.988324 -0.0209085 -5.76899e-17)
(0.988473 -0.0279898 -8.68173e-17)
(0.989138 -0.0406761 -2.21603e-17)
(0.985023 -0.0714771 2.63125e-17)
(1.00242 0.00375563 9.69373e-19)
(1.00213 0.00326084 1.30169e-18)
(1.00212 0.00326595 -1.92233e-18)
(1.00211 0.00327417 5.82763e-19)
(1.00209 0.00328407 2.29062e-19)
(1.00208 0.00329588 1.76714e-18)
(1.00206 0.0033097 2.97148e-19)
(1.00203 0.00332581 -2.6897e-18)
(1.00201 0.00334387 1.09561e-18)
(1.00198 0.00336463 1.03435e-18)
(1.00194 0.00338822 -4.08721e-20)
(1.0019 0.00341455 1.19933e-18)
(1.00186 0.00344415 5.47313e-19)
(1.00181 0.00347656 -3.32789e-18)
(1.00175 0.0035123 9.23307e-19)
(1.00169 0.00355226 1.84663e-18)
(1.00162 0.00359586 -6.20247e-19)
(1.00154 0.00364231 -4.21946e-18)
(1.00145 0.00369322 4.42206e-18)
(1.00135 0.00374824 -9.43036e-19)
(1.00125 0.00380612 -2.03117e-18)
(1.00113 0.00386776 7.77343e-19)
(1.00101 0.00393286 -5.28527e-19)
(1.00087 0.00399992 5.77264e-19)
(1.00072 0.00406947 -2.89837e-18)
(1.00056 0.00413967 5.68807e-19)
(1.00039 0.00420993 -2.81529e-18)
(1.00021 0.00427819 1.9859e-18)
(1.00001 0.00434344 2.48735e-18)
(0.999806 0.00440205 3.46485e-19)
(0.999584 0.0044527 -2.85534e-18)
(0.999349 0.00448957 -2.17546e-18)
(0.999099 0.00450983 2.09266e-18)
(0.998835 0.0045074 3.62235e-18)
(0.998554 0.00447562 -4.27792e-18)
(0.998257 0.00440952 1.57435e-18)
(0.99794 0.00429734 2.35019e-18)
(0.997602 0.00413185 1.89496e-18)
(0.997238 0.00390269 1.05422e-18)
(0.996846 0.00359717 1.09428e-18)
(0.996418 0.0032052 6.05529e-19)
(0.99595 0.00272712 -2.38467e-19)
(0.995501 0.00213527 1.08567e-18)
(0.995074 0.00144914 -3.92261e-18)
(0.994595 0.000689165 -1.31811e-18)
(0.994055 -0.000151015 -1.49685e-17)
(0.993455 -0.00106698 1.49988e-17)
(0.992804 -0.00205424 2.9321e-17)
(0.992111 -0.00311387 -1.61121e-17)
(0.991401 -0.00425948 -3.15665e-17)
(0.990699 -0.00552182 -3.20418e-17)
(0.990033 -0.00694719 5.47556e-17)
(0.989415 -0.00860131 -2.69614e-17)
(0.988874 -0.0105998 2.70734e-17)
(0.98844 -0.0131361 1.776e-17)
(0.988152 -0.016494 -4.56454e-17)
(0.988039 -0.021196 1.46041e-17)
(0.988178 -0.0284049 1.084e-17)
(0.988836 -0.0412924 7.25408e-17)
(0.984416 -0.072474 -2.14335e-16)
(1.00254 0.00392081 -1.18441e-18)
(1.00223 0.00340589 1.90355e-18)
(1.00222 0.0034105 -2.02257e-19)
(1.00221 0.00341811 -1.46847e-18)
(1.0022 0.00342731 2.52967e-18)
(1.00218 0.00343836 -2.11175e-18)
(1.00216 0.0034514 1.0668e-18)
(1.00214 0.00346679 -6.89714e-19)
(1.00212 0.00348409 -7.10382e-19)
(1.00209 0.00350412 2.39507e-18)
(1.00205 0.00352699 1.39448e-18)
(1.00201 0.00355261 -3.48099e-18)
(1.00197 0.00358148 1.94353e-19)
(1.00191 0.00361307 -1.32388e-18)
(1.00186 0.00364791 1.33556e-18)
(1.00179 0.00368697 7.92312e-19)
(1.00172 0.00372961 1.21274e-18)
(1.00164 0.00377487 -2.47433e-18)
(1.00155 0.00382459 2.20041e-18)
(1.00145 0.00387835 -1.62919e-18)
(1.00134 0.00393475 1.1599e-19)
(1.00122 0.00399479 3.42335e-18)
(1.00109 0.00405822 -3.16448e-18)
(1.00095 0.00412331 4.17275e-18)