1.45 	0 	0 	0.441112 	-0.0206024 	1.55973e-21
2.35 	0 	0 	0.729416 	-0.0101155 	-1.00725e-21
