/*--------------------------------*- C++ -*----------------------------------*\
  =========                 |
  \\      /  F ield         | OpenFOAM: The Open Source CFD Toolbox
   \\    /   O peration     | Website:  https://openfoam.org
    \\  /    A nd           | Version:  6.0
     \\/     M anipulation  |
\*---------------------------------------------------------------------------*/
FoamFile
{
    version     2.0;
    format      ascii;
    class       volScalarField;
    location    "2";
    object      p;
}
// * * * * * * * * * * * * * * * * * * * * * * * * * * * * * * * * * * * * * //

dimensions      [0 2 -2 0 0 0 0];

internalField   nonuniform List<scalar> 
8000
(
-0.362866
-0.367579
-0.36973
-0.370279
-0.369809
-0.368445
-0.366302
-0.363497
-0.360125
-0.356268
-0.351997
-0.347377
-0.342467
-0.33732
-0.331986
-0.326503
-0.320907
-0.315298
-0.30979
-0.303764
-0.364036
-0.368656
-0.370741
-0.371235
-0.370718
-0.369312
-0.367133
-0.364297
-0.360898
-0.357016
-0.352723
-0.348082
-0.343153
-0.337989
-0.332639
-0.327142
-0.321533
-0.315912
-0.310397
-0.30439
-0.366368
-0.370803
-0.372753
-0.37314
-0.372528
-0.371039
-0.368789
-0.36589
-0.362435
-0.358504
-0.354166
-0.349483
-0.344515
-0.339315
-0.333932
-0.328405
-0.322771
-0.317127
-0.311598
-0.305628
-0.369852
-0.374009
-0.375758
-0.375983
-0.375228
-0.373614
-0.371256
-0.368262
-0.364724
-0.360718
-0.356311
-0.351566
-0.346538
-0.341282
-0.335847
-0.330274
-0.324599
-0.318916
-0.313363
-0.307452
-0.374469
-0.378256
-0.379737
-0.379746
-0.3788
-0.377021
-0.374518
-0.371399
-0.367748
-0.363641
-0.359142
-0.35431
-0.3492
-0.343866
-0.338358
-0.332718
-0.326983
-0.321243
-0.315652
-0.309818
-0.380197
-0.383523
-0.384669
-0.384408
-0.383224
-0.381237
-0.378554
-0.375276
-0.371485
-0.36725
-0.362632
-0.357689
-0.352473
-0.347036
-0.341431
-0.3357
-0.329881
-0.324059
-0.31841
-0.312673
-0.387011
-0.389784
-0.390527
-0.389942
-0.388473
-0.386236
-0.383337
-0.379869
-0.375907
-0.371517
-0.366755
-0.361674
-0.356324
-0.350757
-0.345024
-0.339172
-0.333241
-0.327304
-0.321571
-0.315947
-0.39488
-0.397007
-0.397282
-0.396318
-0.394515
-0.391989
-0.388837
-0.385147
-0.380987
-0.376414
-0.37148
-0.366232
-0.360718
-0.354988
-0.349093
-0.343085
-0.337002
-0.33091
-0.325054
-0.319554
-0.403771
-0.405159
-0.404897
-0.403501
-0.401317
-0.39846
-0.395021
-0.391078
-0.38669
-0.381907
-0.376773
-0.371329
-0.365619
-0.359689
-0.353591
-0.347381
-0.341098
-0.334796
-0.328763
-0.32339
-0.413646
-0.4142
-0.413332
-0.41145
-0.408839
-0.405612
-0.401852
-0.397626
-0.392984
-0.387965
-0.382603
-0.376932
-0.370989
-0.364817
-0.358468
-0.352
-0.345455
-0.338872
-0.332586
-0.327326
-0.424462
-0.424086
-0.422544
-0.420122
-0.41704
-0.413404
-0.409291
-0.404755
-0.399833
-0.394552
-0.388935
-0.383007
-0.376794
-0.370333
-0.363675
-0.356882
-0.349996
-0.343036
-0.336393
-0.331206
-0.436172
-0.434768
-0.432484
-0.429471
-0.425872
-0.421792
-0.417297
-0.412425
-0.407201
-0.401636
-0.39574
-0.389523
-0.383001
-0.376202
-0.369168
-0.361967
-0.354639
-0.347179
-0.340033
-0.334843
-0.448721
-0.446191
-0.443098
-0.439443
-0.435287
-0.430729
-0.425824
-0.420595
-0.415049
-0.409182
-0.402986
-0.396455
-0.389587
-0.382395
-0.374913
-0.367205
-0.359309
-0.351188
-0.343335
-0.33801
-0.462045
-0.458292
-0.454327
-0.449983
-0.44523
-0.440163
-0.434826
-0.429222
-0.42334
-0.417159
-0.41065
-0.403784
-0.396539
-0.388904
-0.380895
-0.372566
-0.36395
-0.354955
-0.346113
-0.34043
-0.476071
-0.471004
-0.466106
-0.461029
-0.455645
-0.450043
-0.444253
-0.438261
-0.432037
-0.425537
-0.418711
-0.411503
-0.403862
-0.395744
-0.387134
-0.378063
-0.36854
-0.358397
-0.34816
-0.341761
-0.490711
-0.48425
-0.478365
-0.472517
-0.466471
-0.460312
-0.454054
-0.447667
-0.441101
-0.43429
-0.427159
-0.419622
-0.411591
-0.402978
-0.393716
-0.38379
-0.373157
-0.361518
-0.34932
-0.341655
-0.505869
-0.497945
-0.49103
-0.48438
-0.477648
-0.470912
-0.464178
-0.457395
-0.450496
-0.443396
-0.435993
-0.428172
-0.419802
-0.41074
-0.400845
-0.390022
-0.37814
-0.364676
-0.349805
-0.33999
-0.521437
-0.511998
-0.504021
-0.496545
-0.489109
-0.481786
-0.47457
-0.467398
-0.460185
-0.452833
-0.44522
-0.437201
-0.428606
-0.419226
-0.408825
-0.397192
-0.384056
-0.368475
-0.349741
-0.335725
-0.537295
-0.526314
-0.517256
-0.508941
-0.50079
-0.492872
-0.485176
-0.477625
-0.470128
-0.462578
-0.454847
-0.446773
-0.438153
-0.428712
-0.418084
-0.405866
-0.391441
-0.372813
-0.346984
-0.323755
-0.553322
-0.540794
-0.530651
-0.521494
-0.512623
-0.50411
-0.495936
-0.48802
-0.480273
-0.472597
-0.464877
-0.456978
-0.448722
-0.439851
-0.429987
-0.418611
-0.404661
-0.384673
-0.35289
-0.320754
-0.569393
-0.555336
-0.544121
-0.534128
-0.524543
-0.515435
-0.506785
-0.498512
-0.490535
-0.48278
-0.47518
-0.467678
-0.460236
-0.452847
-0.445586
-0.438683
-0.432383
-0.426721
-0.424908
-0.441493
-0.585384
-0.56984
-0.557579
-0.546768
-0.536478
-0.526779
-0.51765
-0.509008
-0.500782
-0.49292
-0.485389
-0.478186
-0.471355
-0.465007
-0.45937
-0.454815
-0.451726
-0.450809
-0.456147
-0.475107
-0.601177
-0.584209
-0.570943
-0.55934
-0.548362
-0.538077
-0.528461
-0.519428
-0.510913
-0.502873
-0.495296
-0.488204
-0.481672
-0.475841
-0.470947
-0.467308
-0.465199
-0.465212
-0.470286
-0.483125
-0.616662
-0.598345
-0.584126
-0.571767
-0.560124
-0.549262
-0.539151
-0.5297
-0.520842
-0.512538
-0.504781
-0.497599
-0.491066
-0.485311
-0.480526
-0.476935
-0.474685
-0.474195
-0.477568
-0.48515
-0.631734
-0.612154
-0.597041
-0.583969
-0.571689
-0.560261
-0.549647
-0.539747
-0.530487
-0.521824
-0.513746
-0.50627
-0.499452
-0.493385
-0.488199
-0.484017
-0.480871
-0.47905
-0.480183
-0.48341
-0.646289
-0.625537
-0.609597
-0.595859
-0.582974
-0.570992
-0.559866
-0.549482
-0.539757
-0.530638
-0.522099
-0.514142
-0.506793
-0.500105
-0.49415
-0.48897
-0.484522
-0.481024
-0.479808
-0.479327
-0.660225
-0.638394
-0.621696
-0.607342
-0.593884
-0.581361
-0.569711
-0.558806
-0.548552
-0.538881
-0.529753
-0.521148
-0.513066
-0.505526
-0.498551
-0.492135
-0.486192
-0.480914
-0.477425
-0.473772
-0.673433
-0.650615
-0.633229
-0.61831
-0.604312
-0.591258
-0.579072
-0.567609
-0.55676
-0.546447
-0.536612
-0.527219
-0.518247
-0.509687
-0.501534
-0.493752
-0.486245
-0.479198
-0.473569
-0.4672
-0.685796
-0.662084
-0.644081
-0.628648
-0.614141
-0.600564
-0.587825
-0.575765
-0.56426
-0.553221
-0.542579
-0.532285
-0.522303
-0.512612
-0.503189
-0.493989
-0.484924
-0.476179
-0.468569
-0.459879
-0.697187
-0.672674
-0.654124
-0.638226
-0.623239
-0.609145
-0.595837
-0.58314
-0.570922
-0.559083
-0.547551
-0.536268
-0.525196
-0.514305
-0.503573
-0.492955
-0.482382
-0.472044
-0.462627
-0.451965
-0.707465
-0.682245
-0.66322
-0.646905
-0.631464
-0.616858
-0.602963
-0.589593
-0.576609
-0.56391
-0.551421
-0.539087
-0.526872
-0.514752
-0.502708
-0.490709
-0.47871
-0.466902
-0.455856
-0.443536
-0.71648
-0.690651
-0.671221
-0.654535
-0.638666
-0.623551
-0.609052
-0.594976
-0.581182
-0.567572
-0.554079
-0.540655
-0.527274
-0.513922
-0.500595
-0.487278
-0.473952
-0.460806
-0.448307
-0.434614
-0.724069
-0.697733
-0.677969
-0.66096
-0.644686
-0.629065
-0.613947
-0.599137
-0.584498
-0.569942
-0.555413
-0.540881
-0.526333
-0.511772
-0.497212
-0.482657
-0.468115
-0.453768
-0.439988
-0.425178
-0.73006
-0.703325
-0.683302
-0.666015
-0.64936
-0.633237
-0.617488
-0.601922
-0.586413
-0.570888
-0.555311
-0.53967
-0.523975
-0.508249
-0.492522
-0.476824
-0.461182
-0.445771
-0.430877
-0.415179
-0.734275
-0.707256
-0.687051
-0.669532
-0.652522
-0.635902
-0.619516
-0.603179
-0.586784
-0.570282
-0.553659
-0.536929
-0.520124
-0.50329
-0.486479
-0.469739
-0.45312
-0.436779
-0.42093
-0.404552
-0.736531
-0.709353
-0.689045
-0.671342
-0.654003
-0.636896
-0.619869
-0.602756
-0.585473
-0.567998
-0.550348
-0.532562
-0.514701
-0.496832
-0.479028
-0.461355
-0.443882
-0.426745
-0.410091
-0.393218
-0.736647
-0.70944
-0.689113
-0.671276
-0.653636
-0.636054
-0.618392
-0.600506
-0.582344
-0.563916
-0.54527
-0.52648
-0.507629
-0.48881
-0.470112
-0.451621
-0.433417
-0.415612
-0.398298
-0.381096
-0.734442
-0.707346
-0.687084
-0.669165
-0.651256
-0.633219
-0.614935
-0.59629
-0.57727
-0.557921
-0.538328
-0.518595
-0.498835
-0.479159
-0.459676
-0.440483
-0.421672
-0.403326
-0.385485
-0.368106
-0.729743
-0.702902
-0.682796
-0.664848
-0.646707
-0.62824
-0.609354
-0.589976
-0.570131
-0.549909
-0.52943
-0.508832
-0.488252
-0.467823
-0.447667
-0.427893
-0.408597
-0.389832
-0.371593
-0.354172
-0.722385
-0.695952
-0.676093
-0.658172
-0.639839
-0.620974
-0.601518
-0.581443
-0.560821
-0.539785
-0.518495
-0.49712
-0.475822
-0.454751
-0.43404
-0.413805
-0.394147
-0.375082
-0.356566
-0.339225
-0.712219
-0.686349
-0.66683
-0.648998
-0.630518
-0.611294
-0.591308
-0.570585
-0.549245
-0.52747
-0.505457
-0.483405
-0.461499
-0.439902
-0.418757
-0.398185
-0.378284
-0.359035
-0.340357
-0.323209
-0.699102
-0.673953
-0.654872
-0.637191
-0.618616
-0.599081
-0.578618
-0.557307
-0.535324
-0.512896
-0.49026
-0.467641
-0.445244
-0.423246
-0.40179
-0.381004
-0.36098
-0.34166
-0.32293
-0.306075
-0.682916
-0.65865
-0.640104
-0.622641
-0.604029
-0.58424
-0.563363
-0.541538
-0.518998
-0.496016
-0.472866
-0.4498
-0.427038
-0.404764
-0.383126
-0.362249
-0.342219
-0.322939
-0.304259
-0.287788
-0.663564
-0.640343
-0.62243
-0.605254
-0.586669
-0.566692
-0.545474
-0.523221
-0.500223
-0.476799
-0.453257
-0.42987
-0.406874
-0.384456
-0.362763
-0.341918
-0.321997
-0.302863
-0.284333
-0.268328
-0.640971
-0.618955
-0.601774
-0.584959
-0.56647
-0.546381
-0.524907
-0.502324
-0.478979
-0.455234
-0.431429
-0.407857
-0.384762
-0.362333
-0.340714
-0.320022
-0.300323
-0.281439
-0.263152
-0.247686
-0.615089
-0.594434
-0.578084
-0.561705
-0.54339
-0.523272
-0.50164
-0.478836
-0.455265
-0.431331
-0.4074
-0.383782
-0.360727
-0.338423
-0.317006
-0.296587
-0.277221
-0.258686
-0.24073
-0.225865
-0.585896
-0.566754
-0.551332
-0.535468
-0.517411
-0.497358
-0.475673
-0.452769
-0.429103
-0.40512
-0.381208
-0.35769
-0.334816
-0.312771
-0.291683
-0.271655
-0.252729
-0.234641
-0.217097
-0.202887
-0.553397
-0.535917
-0.521519
-0.506252
-0.488542
-0.468657
-0.447035
-0.42416
-0.400541
-0.376655
-0.352911
-0.32964
-0.307091
-0.285441
-0.264808
-0.245285
-0.226902
-0.209354
-0.1923
-0.178786
-0.517631
-0.501953
-0.488673
-0.474088
-0.45682
-0.437212
-0.41578
-0.393071
-0.369646
-0.34601
-0.322589
-0.299714
-0.277633
-0.256513
-0.236459
-0.217552
-0.199813
-0.182895
-0.1664
-0.153613
-0.478666
-0.464923
-0.452853
-0.439036
-0.42231
-0.403097
-0.381985
-0.35959
-0.336512
-0.313284
-0.290339
-0.268013
-0.246543
-0.226085
-0.206731
-0.188551
-0.171552
-0.15535
-0.139482
-0.12744
-0.436602
-0.424918
-0.414146
-0.401185
-0.385107
-0.36641
-0.345759
-0.323826
-0.301253
-0.278592
-0.256282
-0.234655
-0.213939
-0.194276
-0.175742
-0.158395
-0.142231
-0.126829
-0.111648
-0.10036
-0.391569
-0.38206
-0.372671
-0.360654
-0.345331
-0.327279
-0.307229
-0.285914
-0.264006
-0.242072
-0.220555
-0.199777
-0.179956
-0.161217
-0.143622
-0.127215
-0.111982
-0.0974634
-0.0830316
-0.0724916
-0.343733
-0.336504
-0.328577
-0.317593
-0.303134
-0.285854
-0.266552
-0.246009
-0.224926
-0.203879
-0.183309
-0.163529
-0.144743
-0.12706
-0.110523
-0.0951643
-0.0809593
-0.0674132
-0.0537936
-0.0439881
-0.293289
-0.288432
-0.282044
-0.272178
-0.258693
-0.242315
-0.223905
-0.204287
-0.184186
-0.164182
-0.144711
-0.126075
-0.108461
-0.0919634
-0.076608
-0.0624109
-0.0493399
-0.036867
-0.0241359
-0.0150456
-0.240462
-0.23806
-0.233279
-0.224616
-0.212211
-0.196862
-0.179484
-0.16094
-0.141972
-0.12316
-0.104934
-0.0875819
-0.0712763
-0.0560949
-0.042048
-0.0291374
-0.0173235
-0.00604999
0.00568608
0.0140769
-0.185511
-0.185632
-0.182518
-0.175137
-0.163915
-0.149718
-0.133506
-0.116177
-0.0984828
-0.0810033
-0.0641567
-0.0482191
-0.0333502
-0.0196146
-0.00700952
0.00447485
0.0148805
0.0247827
0.035357
0.0430346
-0.128721
-0.131417
-0.130025
-0.123999
-0.114058
-0.101126
-0.0862056
-0.0702202
-0.0539273
-0.0379028
-0.0225542
-0.00814632
0.005171
0.0173407
0.0283719
0.03828
0.047102
0.0554089
0.0645497
0.0714
-0.0704034
-0.0757126
-0.0760864
-0.0714811
-0.0629095
-0.051348
-0.037832
-0.0233035
-0.00852167
0.0059454
0.0197006
0.032488
0.0441625
0.0546656
0.0640001
0.0721782
0.0792209
0.0856206
0.0927696
0.0983419
-0.0108955
-0.0188388
-0.0210112
-0.0178848
-0.0107622
-0.000664358
0.0113492
0.024325
0.037508
0.0503414
0.0624391
0.0735518
0.0835319
0.0923036
0.0998384
0.10612
0.111099
0.114927
0.118563
0.121387
0.0494433
0.0388637
0.0348708
0.0364703
0.0420749
0.0506284
0.0610563
0.0724021
0.083922
0.0950759
0.105494
0.114937
0.123259
0.130361
0.136176
0.140646
0.143561
0.144206
0.142289
0.140531
0.110233
0.0970345
0.0912117
0.0912469
0.095276
0.102217
0.11099
0.120645
0.130455
0.139907
0.148656
0.15649
0.163289
0.168983
0.173557
0.177085
0.179468
0.179366
0.175772
0.181747
0.171104
0.155316
0.147662
0.146104
0.14851
0.153781
0.16084
0.168751
0.176812
0.184538
0.191617
0.197866
0.203199
0.207591
0.211085
0.213846
0.215903
0.216321
0.215069
0.223392
0.231655
0.213326
0.203854
0.200684
0.201431
0.204986
0.210285
0.216408
0.222684
0.228657
0.234045
0.238693
0.24254
0.245584
0.247895
0.249641
0.250856
0.250793
0.249674
0.257051
0.291489
0.270685
0.259418
0.254631
0.253694
0.255501
0.259004
0.263307
0.267767
0.271963
0.275637
0.278659
0.280985
0.28263
0.28367
0.284263
0.284432
0.283516
0.281766
0.28749
0.350212
0.327012
0.313986
0.307586
0.304956
0.304997
0.306683
0.309144
0.311772
0.314173
0.316116
0.317491
0.318265
0.318462
0.318159
0.317497
0.316488
0.314539
0.311927
0.31597
0.407434
0.381932
0.367193
0.359199
0.35488
0.353151
0.353014
0.35363
0.354422
0.355026
0.355235
0.354954
0.354161
0.352884
0.351196
0.349224
0.346966
0.343898
0.340327
0.342705
0.462778
0.435078
0.418683
0.409125
0.403137
0.399652
0.397706
0.396489
0.39546
0.394282
0.392771
0.390844
0.388491
0.38574
0.382661
0.379365
0.375845
0.371643
0.367085
0.367825
0.515875
0.486092
0.468109
0.457031
0.449409
0.444201
0.440476
0.43746
0.434643
0.431717
0.428519
0.424981
0.421096
0.416896
0.412447
0.407848
0.403089
0.397775
0.39224
0.391387
0.566374
0.534632
0.515139
0.502597
0.493392
0.486511
0.481058
0.476294
0.471744
0.467125
0.462294
0.457195
0.451828
0.446226
0.440452
0.434594
0.428641
0.422261
0.41578
0.413396
0.61394
0.580372
0.559457
0.54552
0.5348
0.526312
0.519201
0.512762
0.50655
0.500312
0.49392
0.48733
0.48055
0.473612
0.466576
0.459521
0.452438
0.445051
0.437668
0.433827
0.658258
0.623004
0.600762
0.585513
0.57336
0.563352
0.55467
0.546646
0.538864
0.531097
0.523234
0.515241
0.507131
0.498938
0.490718
0.482543
0.474404
0.46608
0.457849
0.452639
0.699034
0.66224
0.638777
0.62231
0.608822
0.597394
0.587247
0.577745
0.568502
0.559313
0.550084
0.54079
0.531447
0.522094
0.51278
0.50357
0.494462
0.485278
0.476262
0.469783
0.735996
0.697816
0.673246
0.655664
0.640953
0.628223
0.616732
0.605874
0.595294
0.584806
0.574329
0.563848
0.553384
0.542973
0.532666
0.522518
0.512531
0.502571
0.49284
0.485202
0.768899
0.729492
0.703934
0.685355
0.669543
0.655642
0.642942
0.630868
0.619087
0.607434
0.59584
0.584298
0.572832
0.561478
0.550285
0.539302
0.528535
0.517887
0.507517
0.49884
0.797522
0.757053
0.730636
0.711182
0.694406
0.679478
0.665717
0.652576
0.639744
0.627072
0.614503
0.602034
0.589694
0.577519
0.565555
0.553845
0.542401
0.531156
0.52023
0.510645
0.821675
0.780312
0.753169
0.732975
0.715379
0.699577
0.684916
0.67087
0.657146
0.64361
0.630215
0.616963
0.603883
0.591015
0.5784
0.566078
0.554063
0.542317
0.53092
0.520565
0.841194
0.799113
0.771383
0.750587
0.732325
0.715813
0.700421
0.685639
0.671192
0.656956
0.642891
0.629004
0.615327
0.601898
0.588756
0.57594
0.563465
0.551314
0.539536
0.528556
0.85595
0.813326
0.785152
0.7639
0.745132
0.728082
0.712134
0.696794
0.681799
0.667032
0.65246
0.638093
0.623964
0.61011
0.596572
0.583381
0.57056
0.558103
0.546037
0.534584
0.865843
0.822855
0.794384
0.772825
0.753718
0.736305
0.719984
0.704269
0.688905
0.673782
0.65887
0.644181
0.629748
0.61561
0.601805
0.588364
0.57531
0.562649
0.55039
0.538618
0.870806
0.827637
0.799016
0.777303
0.758025
0.74043
0.723921
0.708018
0.692469
0.677167
0.662084
0.647233
0.632648
0.618368
0.604429
0.590862
0.577691
0.564929
0.552572
0.54064
0.870806
0.827637
0.799016
0.777304
0.758025
0.74043
0.723921
0.708018
0.692469
0.677167
0.662084
0.647233
0.632648
0.618368
0.604429
0.590862
0.577692
0.564929
0.552573
0.540641
0.865844
0.822856
0.794385
0.772826
0.753719
0.736306
0.719985
0.70427
0.688906
0.673783
0.658871
0.644182
0.629749
0.615612
0.601806
0.588365
0.575311
0.562651
0.550391
0.53862
0.855951
0.813327
0.785154
0.763902
0.745134
0.728084
0.712136
0.696796
0.681801
0.667034
0.652462
0.638095
0.623966
0.610113
0.596574
0.583383
0.570562
0.558106
0.54604
0.534586
0.841196
0.799115
0.771385
0.750589
0.732327
0.715816
0.700423
0.685641
0.671194
0.656958
0.642894
0.629007
0.61533
0.601901
0.58876
0.575943
0.563469
0.551318
0.53954
0.52856
0.821677
0.780315
0.753172
0.732978
0.715382
0.699581
0.68492
0.670873
0.65715
0.643614
0.630219
0.616967
0.603887
0.591019
0.578404
0.566082
0.554068
0.542321
0.530924
0.52057
0.797525
0.757056
0.730639
0.711186
0.69441
0.679482
0.665722
0.652581
0.639749
0.627077
0.614507
0.602039
0.589699
0.577524
0.56556
0.55385
0.542406
0.531162
0.520235
0.510651
0.768903
0.729496
0.703938
0.685359
0.669547
0.655647
0.642947
0.630873
0.619092
0.607439
0.595846
0.584304
0.572837
0.561484
0.550291
0.539308
0.528541
0.517893
0.507524
0.498847
0.736001
0.697821
0.67325
0.655669
0.640958
0.628229
0.616738
0.60588
0.5953
0.584812
0.574335
0.563855
0.553391
0.54298
0.532673
0.522525
0.512539
0.502579
0.492848
0.48521
0.699039
0.662246
0.638783
0.622315
0.608828
0.597401
0.587254
0.577751
0.568509
0.55932
0.550091
0.540798
0.531455
0.522102
0.512788
0.503579
0.49447
0.485287
0.476271
0.469792
0.658264
0.62301
0.600768
0.58552
0.573367
0.563359
0.554678
0.546653
0.538872
0.531105
0.523243
0.51525
0.507139
0.498947
0.490728
0.482552
0.474414
0.46609
0.457859
0.45265
0.613946
0.580379
0.559464
0.545527
0.534808
0.52632
0.519209
0.51277
0.506559
0.500321
0.493929
0.48734
0.480559
0.473622
0.466586
0.459532
0.452449
0.445062
0.437679
0.433838
0.56638
0.53464
0.515147
0.502605
0.493401
0.48652
0.481067
0.476304
0.471753
0.467135
0.462304
0.457205
0.451838
0.446237
0.440463
0.434606
0.428653
0.422273
0.415793
0.413409
0.515882
0.4861
0.468118
0.45704
0.449418
0.44421
0.440485
0.43747
0.434653
0.431728
0.42853
0.424992
0.421107
0.416908
0.412459
0.407861
0.403101
0.397788
0.392254
0.391401
0.462786
0.435087
0.418693
0.409135
0.403147
0.399663
0.397716
0.3965
0.395471
0.394294
0.392783
0.390857
0.388504
0.385753
0.382674
0.379379
0.37586
0.371658
0.3671
0.36784
0.407444
0.381943
0.367204
0.35921
0.354892
0.353163
0.353026
0.353642
0.354434
0.355039
0.355248
0.354967
0.354175
0.352898
0.35121
0.349239
0.346981
0.343914
0.340343
0.342721
0.350223
0.327024
0.313998
0.307599
0.304969
0.30501
0.306696
0.309157
0.311785
0.314187
0.316131
0.317505
0.31828
0.318477
0.318174
0.317513
0.316504
0.314556
0.311945
0.315988
0.291502
0.270698
0.259432
0.254645
0.253708
0.255516
0.259019
0.263321
0.267782
0.271978
0.275652
0.278675
0.281001
0.282646
0.283686
0.28428
0.284449
0.283534
0.281784
0.287509
0.231669
0.213342
0.20387
0.2007
0.201447
0.205002
0.210301
0.216424
0.2227
0.228673
0.234061
0.23871
0.242557
0.245602
0.247913
0.249659
0.250875
0.250812
0.249694
0.257071
0.17112
0.155333
0.14768
0.146122
0.148527
0.153798
0.160858
0.168768
0.17683
0.184556
0.191635
0.197884
0.203218
0.207609
0.211104
0.213866
0.215923
0.216342
0.21509
0.223414
0.110251
0.0970536
0.0912312
0.0912665
0.0952956
0.102237
0.11101
0.120664
0.130474
0.139926
0.148675
0.15651
0.163308
0.169003
0.173577
0.177106
0.17949
0.179388
0.175794
0.181769
0.0494631
0.0388848
0.0348923
0.036492
0.0420965
0.0506498
0.0610774
0.072423
0.0839427
0.0950965
0.105515
0.114958
0.12328
0.130383
0.136198
0.140668
0.143583
0.144228
0.142311
0.140554
-0.0108736
-0.0188156
-0.0209875
-0.017861
-0.0107385
-0.000640938
0.0113723
0.0243477
0.0375305
0.0503637
0.0624613
0.0735741
0.0835545
0.0923265
0.0998615
0.106143
0.111122
0.11495
0.118586
0.12141
-0.0703792
-0.0756872
-0.0760604
-0.0714552
-0.0628837
-0.0513225
-0.0378069
-0.0232788
-0.00849736
0.00596945
0.0197245
0.032512
0.0441867
0.05469
0.0640246
0.0722029
0.0792457
0.0856454
0.0927942
0.0983667
-0.128694
-0.131389
-0.129997
-0.123971
-0.11403
-0.101098
-0.0861783
-0.0701934
-0.053901
-0.0378768
-0.0225284
-0.00812058
0.00519684
0.0173667
0.028398
0.0383063
0.0471283
0.0554351
0.0645757
0.0714261
-0.185482
-0.185601
-0.182487
-0.175106
-0.163885
-0.149688
-0.133477
-0.116148
-0.0984543
-0.0809752
-0.0641289
-0.0481914
-0.0333225
-0.0195868
-0.00698171
0.00450268
0.0149083
0.0248104
0.0353845
0.0430622
-0.24043
-0.238027
-0.233245
-0.224582
-0.212177
-0.196829
-0.179452
-0.160909
-0.141941
-0.12313
-0.104904
-0.0875521
-0.0712466
-0.0560653
-0.0420184
-0.0291078
-0.017294
-0.00602071
0.00571516
0.014106
-0.293253
-0.288396
-0.282007
-0.272142
-0.258656
-0.242279
-0.22387
-0.204253
-0.184152
-0.164149
-0.144678
-0.126043
-0.108429
-0.0919316
-0.0765763
-0.0623794
-0.0493087
-0.036836
-0.0241051
-0.0150149
-0.343694
-0.336464
-0.328537
-0.317553
-0.303094
-0.285815
-0.266514
-0.245972
-0.22489
-0.203843
-0.183274
-0.163495
-0.144708
-0.127025
-0.110489
-0.0951307
-0.0809261
-0.0673804
-0.053761
-0.0439557
-0.391527
-0.382017
-0.372627
-0.36061
-0.345288
-0.327236
-0.307188
-0.285874
-0.263967
-0.242034
-0.220517
-0.199739
-0.179919
-0.161181
-0.143586
-0.127179
-0.111947
-0.0974286
-0.0829971
-0.0724573
-0.436555
-0.42487
-0.414098
-0.401137
-0.38506
-0.366364
-0.345714
-0.323783
-0.301211
-0.27855
-0.256242
-0.234615
-0.213899
-0.194236
-0.175703
-0.158357
-0.142194
-0.126792
-0.111612
-0.100324
-0.478616
-0.464871
-0.452801
-0.438984
-0.42226
-0.403048
-0.381937
-0.359543
-0.336466
-0.313239
-0.290295
-0.26797
-0.246501
-0.226044
-0.20669
-0.188511
-0.171513
-0.155311
-0.139443
-0.127402
-0.517577
-0.501897
-0.488618
-0.474033
-0.456766
-0.437159
-0.415728
-0.393021
-0.369597
-0.345962
-0.322541
-0.299668
-0.277588
-0.256468
-0.236415
-0.217509
-0.199771
-0.182853
-0.166359
-0.153573
-0.553338
-0.535857
-0.52146
-0.506193
-0.488484
-0.4686
-0.44698
-0.424106
-0.400488
-0.376603
-0.352861
-0.32959
-0.307042
-0.285393
-0.264761
-0.245239
-0.226857
-0.209311
-0.192257
-0.178743
-0.585833
-0.56669
-0.551269
-0.535405
-0.517349
-0.497298
-0.475614
-0.452711
-0.429047
-0.405065
-0.381154
-0.357637
-0.334764
-0.312721
-0.291634
-0.271606
-0.252681
-0.234595
-0.217052
-0.202842
-0.615022
-0.594366
-0.578017
-0.561638
-0.543325
-0.523208
-0.501576
-0.478774
-0.455204
-0.431272
-0.407342
-0.383726
-0.360672
-0.338369
-0.316953
-0.296535
-0.277171
-0.258638
-0.240682
-0.225818
-0.6409
-0.618884
-0.601704
-0.584889
-0.566401
-0.546312
-0.52484
-0.502258
-0.478915
-0.455172
-0.431367
-0.407797
-0.384703
-0.362276
-0.340658
-0.319967
-0.300271
-0.281387
-0.263101
-0.247637
-0.663489
-0.640268
-0.622356
-0.605181
-0.586596
-0.56662
-0.545403
-0.523152
-0.500155
-0.476733
-0.453192
-0.429807
-0.406812
-0.384396
-0.362705
-0.341861
-0.321942
-0.302809
-0.284281
-0.268277
-0.682837
-0.658572
-0.640027
-0.622564
-0.603953
-0.584165
-0.563288
-0.541465
-0.518926
-0.495946
-0.472798
-0.449733
-0.426973
-0.404701
-0.383065
-0.36219
-0.342161
-0.322883
-0.304205
-0.287735
-0.69902
-0.673872
-0.654791
-0.637111
-0.618537
-0.599003
-0.578541
-0.557231
-0.535249
-0.512823
-0.490188
-0.46757
-0.445176
-0.423179
-0.401726
-0.380942
-0.36092
-0.341602
-0.322873
-0.306019
-0.712135
-0.686265
-0.666746
-0.648915
-0.630436
-0.611212
-0.591228
-0.570505
-0.549167
-0.527393
-0.505382
-0.483331
-0.461427
-0.439833
-0.418689
-0.39812
-0.378221
-0.358974
-0.340298
-0.323151
-0.722298
-0.695865
-0.676006
-0.658087
-0.639754
-0.62089
-0.601434
-0.58136
-0.560739
-0.539705
-0.518417
-0.497044
-0.475748
-0.454679
-0.43397
-0.413738
-0.394082
-0.375019
-0.356505
-0.339166
-0.729653
-0.702813
-0.682707
-0.664759
-0.646619
-0.628153
-0.609268
-0.58989
-0.570046
-0.549825
-0.529348
-0.508752
-0.488175
-0.467748
-0.447595
-0.427823
-0.40853
-0.389767
-0.371531
-0.354111
-0.73435
-0.707254
-0.686993
-0.669074
-0.651166
-0.63313
-0.614846
-0.596202
-0.577182
-0.557835
-0.538244
-0.518513
-0.498755
-0.479082
-0.459601
-0.440411
-0.421603
-0.40326
-0.385421
-0.368044
-0.736553
-0.709347
-0.68902
-0.671183
-0.653544
-0.635963
-0.618301
-0.600416
-0.582254
-0.563828
-0.545184
-0.526395
-0.507546
-0.48873
-0.470035
-0.451547
-0.433346
-0.415545
-0.398233
-0.381034
-0.736436
-0.709258
-0.688951
-0.671248
-0.65391
-0.636802
-0.619776
-0.602663
-0.585381
-0.567908
-0.550259
-0.532475
-0.514616
-0.49675
-0.478949
-0.461279
-0.44381
-0.426676
-0.410025
-0.393155
-0.734178
-0.70716
-0.686956
-0.669437
-0.652427
-0.635807
-0.619421
-0.603085
-0.586691
-0.57019
-0.553568
-0.53684
-0.520038
-0.503206
-0.486398
-0.469661
-0.453046
-0.43671
-0.420863
-0.404489
-0.729962
-0.703227
-0.683206
-0.665918
-0.649264
-0.633141
-0.617393
-0.601827
-0.586318
-0.570794
-0.555219
-0.53958
-0.523887
-0.508163
-0.49244
-0.476745
-0.461108
-0.445701
-0.43081
-0.415116
-0.72397
-0.697635
-0.677872
-0.660863
-0.644589
-0.628968
-0.613851
-0.599041
-0.584402
-0.569847
-0.55532
-0.54079
-0.526244
-0.511686
-0.497129
-0.482578
-0.46804
-0.453697
-0.439921
-0.425115
-0.716381
-0.690553
-0.671123
-0.654438
-0.638569
-0.623454
-0.608956
-0.59488
-0.581086
-0.567477
-0.553985
-0.540563
-0.527184
-0.513835
-0.500511
-0.487198
-0.473876
-0.460735
-0.44824
-0.434552
-0.707366
-0.682147
-0.663123
-0.646808
-0.631367
-0.616761
-0.602867
-0.589497
-0.576513
-0.563815
-0.551326
-0.538995
-0.526782
-0.514664
-0.502624
-0.490629
-0.478635
-0.466832
-0.45579
-0.443475
-0.697087
-0.672576
-0.654027
-0.638129
-0.623142
-0.609049
-0.595741
-0.583044
-0.570826
-0.558988
-0.547457
-0.536176
-0.525105
-0.514217
-0.503489
-0.492875
-0.482306
-0.471974
-0.462562
-0.451905
-0.685697
-0.661987
-0.643985
-0.628552
-0.614045
-0.600469
-0.58773
-0.57567
-0.564165
-0.553127
-0.542485
-0.532193
-0.522214
-0.512525
-0.503106
-0.49391
-0.484849
-0.476109
-0.468505
-0.45982
-0.673335
-0.650518
-0.633134
-0.618215
-0.604218
-0.591164
-0.578977
-0.567515
-0.556666
-0.546353
-0.536519
-0.527128
-0.518158
-0.5096
-0.501451
-0.493673
-0.486171
-0.479129
-0.473506
-0.467143
-0.660128
-0.638298
-0.621601
-0.607248
-0.59379
-0.581267
-0.569617
-0.558714
-0.548459
-0.538789
-0.529661
-0.521058
-0.512978
-0.50544
-0.498469
-0.492057
-0.486119
-0.480846
-0.477363
-0.473717
-0.646193
-0.625443
-0.609504
-0.595767
-0.582882
-0.570901
-0.559774
-0.549391
-0.539666
-0.530548
-0.52201
-0.514053
-0.506707
-0.500021
-0.494069
-0.488894
-0.48445
-0.480957
-0.479748
-0.479273
-0.631639
-0.612061
-0.59695
-0.583879
-0.5716
-0.560172
-0.549558
-0.539657
-0.530398
-0.521736
-0.513658
-0.506183
-0.499367
-0.493303
-0.488119
-0.483941
-0.4808
-0.478985
-0.480123
-0.483357
-0.61657
-0.598254
-0.584037
-0.571679
-0.560037
-0.549175
-0.539064
-0.529613
-0.520755
-0.512452
-0.504695
-0.497514
-0.490983
-0.48523
-0.480448
-0.476861
-0.474616
-0.474131
-0.477511
-0.485098
-0.601086
-0.58412
-0.570856
-0.559254
-0.548277
-0.537992
-0.528376
-0.519344
-0.510829
-0.502789
-0.495212
-0.488121
-0.481591
-0.475762
-0.470871
-0.467235
-0.465131
-0.465149
-0.470229
-0.483076
-0.585295
-0.569754
-0.557495
-0.546685
-0.536396
-0.526697
-0.517568
-0.508926
-0.500701
-0.492839
-0.485308
-0.478106
-0.471276
-0.46493
-0.459295
-0.454744
-0.451659
-0.450747
-0.456092
-0.47506
-0.569307
-0.555252
-0.544038
-0.534047
-0.524463
-0.515356
-0.506706
-0.498433
-0.490456
-0.482702
-0.475102
-0.4676
-0.460159
-0.452772
-0.445513
-0.438613
-0.432316
-0.426659
-0.424853
-0.441445
-0.553239
-0.540712
-0.530571
-0.521415
-0.512546
-0.504033
-0.49586
-0.487944
-0.480197
-0.472521
-0.464801
-0.456903
-0.448647
-0.439777
-0.429915
-0.418542
-0.404594
-0.384609
-0.352828
-0.320694
-0.537214
-0.526236
-0.517179
-0.508866
-0.500715
-0.492798
-0.485102
-0.477552
-0.470055
-0.462506
-0.454774
-0.446701
-0.438082
-0.428641
-0.418015
-0.405799
-0.391376
-0.372751
-0.346926
-0.323699
-0.521358
-0.511922
-0.503947
-0.496472
-0.489037
-0.481715
-0.4745
-0.467328
-0.460115
-0.452763
-0.44515
-0.437132
-0.428538
-0.419159
-0.408759
-0.397128
-0.383994
-0.368416
-0.349686
-0.335672
-0.505794
-0.497872
-0.490959
-0.48431
-0.477579
-0.470844
-0.464111
-0.457328
-0.45043
-0.443329
-0.435927
-0.428106
-0.419737
-0.410675
-0.400781
-0.389961
-0.37808
-0.364619
-0.349751
-0.339939
-0.490639
-0.48418
-0.478297
-0.47245
-0.466406
-0.460247
-0.45399
-0.447604
-0.441038
-0.434227
-0.427096
-0.419559
-0.411529
-0.402917
-0.393656
-0.383732
-0.3731
-0.361463
-0.349269
-0.341606
-0.476001
-0.470938
-0.466041
-0.460965
-0.455582
-0.449981
-0.444192
-0.438201
-0.431977
-0.425478
-0.418652
-0.411444
-0.403804
-0.395687
-0.387078
-0.378008
-0.368486
-0.358345
-0.34811
-0.341713
-0.46198
-0.458229
-0.454265
-0.449922
-0.445171
-0.440105
-0.434768
-0.429165
-0.423284
-0.417103
-0.410594
-0.403729
-0.396485
-0.38885
-0.380842
-0.372514
-0.363899
-0.354906
-0.346066
-0.340383
-0.44866
-0.446131
-0.44304
-0.439387
-0.435231
-0.430675
-0.42577
-0.420542
-0.414996
-0.40913
-0.402934
-0.396403
-0.389537
-0.382345
-0.374864
-0.367156
-0.359261
-0.351141
-0.34329
-0.337965
-0.436115
-0.434713
-0.43243
-0.429418
-0.425821
-0.421742
-0.417247
-0.412376
-0.407151
-0.401587
-0.395691
-0.389475
-0.382954
-0.376155
-0.369122
-0.361921
-0.354594
-0.347135
-0.339989
-0.334801
-0.424409
-0.424035
-0.422495
-0.420074
-0.416993
-0.413358
-0.409246
-0.40471
-0.399788
-0.394507
-0.388891
-0.382963
-0.37675
-0.370291
-0.363633
-0.35684
-0.349954
-0.342995
-0.336352
-0.331166
-0.413598
-0.414154
-0.413287
-0.411406
-0.408796
-0.40557
-0.40181
-0.397585
-0.392943
-0.387924
-0.382562
-0.376892
-0.37095
-0.364778
-0.358429
-0.351961
-0.345416
-0.338833
-0.332548
-0.327287
-0.403728
-0.405118
-0.404856
-0.403461
-0.401278
-0.398422
-0.394983
-0.39104
-0.386653
-0.38187
-0.376736
-0.371293
-0.365583
-0.359653
-0.353556
-0.347346
-0.341062
-0.334761
-0.328728
-0.323355