/*--------------------------------*- C++ -*----------------------------------*\
  =========                 |
  \\      /  F ield         | OpenFOAM: The Open Source CFD Toolbox
   \\    /   O peration     | Website:  https://openfoam.org
    \\  /    A nd           | Version:  6.0
     \\/     M anipulation  |
\*---------------------------------------------------------------------------*/
FoamFile
{
    version     2.0;
    format      ascii;
    class       volVectorField;
    location    "2";
    object      U;
}
// * * * * * * * * * * * * * * * * * * * * * * * * * * * * * * * * * * * * * //

dimensions      [0 1 -1 0 0 0 0];

internalField   nonuniform List<vector> 
8000
(
(-0.000526426 0.000552945 -1.55393e-21)
(-0.00255424 0.00123661 9.05424e-21)
(-0.00593278 0.00158573 -1.12729e-20)
(-0.00963088 0.00168289 8.74753e-21)
(-0.0131103 0.00158631 4.30703e-21)
(-0.0160681 0.00134008 -1.31394e-20)
(-0.0182958 0.000979261 -1.15688e-21)
(-0.0196623 0.000532133 -3.80285e-22)
(-0.0200972 2.20096e-05 -6.874e-21)
(-0.0195746 -0.000531387 -3.6922e-21)
(-0.0181017 -0.00111094 2.8552e-21)
(-0.0157111 -0.00170144 1.0533e-20)
(-0.0124548 -0.00228921 -9.0899e-22)
(-0.00840032 -0.00286182 1.03466e-21)
(-0.00362675 -0.00340802 -1.0457e-20)
(0.00177967 -0.00391771 6.40331e-21)
(0.0077287 -0.0043821 -8.9744e-21)
(0.0141105 -0.00479412 1.35988e-20)
(0.0207765 -0.00514845 -1.62982e-23)
(0.0277218 -0.0054393 3.25873e-21)
(-0.000606234 0.00163828 5.15993e-21)
(-0.00270904 0.0036578 -2.88447e-20)
(-0.00608002 0.00468277 -2.04122e-20)
(-0.00971184 0.00495919 -1.40782e-20)
(-0.0130808 0.00466037 -1.83563e-20)
(-0.0158941 0.00391746 4.13008e-21)
(-0.017951 0.0028347 -2.15742e-20)
(-0.0191263 0.00149609 -4.76069e-21)
(-0.0193544 -2.91606e-05 1.73653e-21)
(-0.0186127 -0.00168253 1.63732e-20)
(-0.0169109 -0.00341316 -1.77374e-20)
(-0.0142837 -0.00517593 2.46647e-20)
(-0.0107847 -0.0069301 -1.83805e-20)
(-0.00648281 -0.00863865 -2.15666e-20)
(-0.00145841 -0.010268 -2.91815e-20)
(0.00420091 -0.0117879 1.9139e-20)
(0.0104036 -0.0131719 -5.75021e-21)
(0.0170386 -0.0143982 -2.12805e-20)
(0.0239565 -0.0154513 2.02038e-20)
(0.0311436 -0.0163141 -1.71418e-20)
(-0.00076272 0.00269146 5.06551e-20)
(-0.00301063 0.00599949 2.88145e-20)
(-0.00636283 0.00766912 3.30677e-20)
(-0.00985943 0.00810552 2.81789e-21)
(-0.0130057 0.00759428 1.89176e-20)
(-0.0155289 0.00635144 2.3531e-20)
(-0.0172438 0.00454856 -4.38527e-20)
(-0.0180374 0.00232378 -2.30197e-20)
(-0.0178529 -0.000209212 -3.00453e-20)
(-0.0166745 -0.00295417 3.22078e-20)
(-0.0145173 -0.00582745 -2.46269e-20)
(-0.0114197 -0.00875464 -3.15242e-20)
(-0.00743867 -0.0116684 -1.15826e-20)
(-0.00264577 -0.0145074 1.09268e-20)
(0.00287598 -0.0172156 -2.55586e-21)
(0.00903631 -0.0197424 4.56156e-21)
(0.015741 -0.0220432 4.83976e-20)
(0.0228771 -0.0240811 -7.47367e-21)
(0.0302923 -0.0258291 -4.83209e-20)
(0.0379581 -0.0272592 7.24882e-20)
(-0.000990218 0.00369156 1.79423e-20)
(-0.00344445 0.00821008 -2.71306e-20)
(-0.00676015 0.0104731 -7.01095e-21)
(-0.0100479 0.0110379 1.36697e-20)
(-0.0128563 0.0102979 3.87146e-20)
(-0.014942 0.00855042 8.53071e-20)
(-0.0161436 0.00603117 8.3981e-20)
(-0.0163656 0.00292977 6.96219e-21)
(-0.0155647 -0.000597797 5.18366e-20)
(-0.0137352 -0.00441952 7.94741e-20)
(-0.0108999 -0.00842049 -6.27162e-20)
(-0.00710297 -0.0124982 9.41813e-20)
(-0.00240618 -0.0165595 -2.04976e-20)
(0.00311492 -0.0205191 5.73485e-21)
(0.00937351 -0.0242985 2.12387e-20)
(0.0162754 -0.0278265 2.77092e-20)
(0.0237223 -0.0310393 -4.50713e-20)
(0.0315986 -0.033884 -3.68417e-20)
(0.0397474 -0.0363208 -6.3735e-20)
(0.0481165 -0.038311 1.06202e-19)
(-0.00128027 0.00461859 -9.27934e-21)
(-0.00398878 0.0102401 -1.04846e-19)
(-0.00724039 0.013026 -3.16945e-20)
(-0.0102386 0.0136765 -7.84724e-20)
(-0.0125889 0.0126861 3.05266e-20)
(-0.0140874 0.0104286 -4.78259e-20)
(-0.0146032 0.00719956 1.69575e-20)
(-0.0140648 0.00323646 -1.02637e-19)
(-0.0124463 -0.00126568 5.48114e-20)
(-0.00975552 -0.00614174 -6.50291e-20)
(-0.00602507 -0.0112477 -5.7554e-20)
(-0.00130702 -0.0164548 -6.42577e-20)
(0.0043309 -0.0216453 5.79077e-20)
(0.0108079 -0.0267104 -5.17986e-20)
(0.0180324 -0.0315495 7.19466e-20)
(0.0259049 -0.0360698 2.01767e-20)
(0.034322 -0.040188 4.95295e-20)
(0.0431642 -0.0438328 2.08622e-20)
(0.0522684 -0.0469499 -8.5124e-20)
(0.0615489 -0.0494909 1.56407e-19)
(-0.00162173 0.00545363 4.20733e-20)
(-0.00461478 0.0120428 3.02984e-21)
(-0.0077615 0.0152635 1.93437e-20)
(-0.0103798 0.0159467 6.81997e-20)
(-0.0121454 0.0146802 -9.96067e-21)
(-0.0129028 0.0119078 1.13618e-19)
(-0.0125594 0.00797988 5.10349e-20)
(-0.0110726 0.00317676 4.53708e-21)
(-0.00843869 -0.00227149 1.31283e-19)
(-0.00468172 -0.00817014 4.25794e-20)
(0.000153361 -0.0143491 2.04081e-20)
(0.00600514 -0.0206556 6.45669e-20)
(0.0127986 -0.0269489 5.87336e-20)
(0.0204467 -0.0330978 1.05868e-19)
(0.0288522 -0.0389797 -9.52417e-20)
(0.0379093 -0.0444801 1.31163e-19)
(0.0475081 -0.0494942 -1.745e-23)
(0.0575245 -0.0539306 -1.65358e-19)
(0.0677875 -0.0577176 2.12392e-19)
(0.0781666 -0.0607982 9.79446e-20)
(-0.0020008 0.00617914 -2.46463e-20)
(-0.00528667 0.0135749 -4.99284e-20)
(-0.0082711 0.0171263 -1.05235e-19)
(-0.0104069 0.0177807 -3.15319e-21)
(-0.0114525 0.0162096 1.88496e-20)
(-0.01131 0.0129198 -1.3954e-19)
(-0.00993164 0.00830961 -1.04081e-19)
(-0.0073095 0.00269675 -1.51887e-20)
(-0.00346573 -0.00365865 -1.32527e-19)
(0.00155614 -0.0105366 -9.14265e-20)
(0.00769671 -0.0177448 -2.66991e-20)
(0.0148837 -0.0251092 -8.58856e-20)
(0.0230338 -0.0324688 -1.9977e-21)
(0.032053 -0.0396714 -1.13033e-19)
(0.0418376 -0.0465727 4.60218e-20)
(0.0522749 -0.053036 -5.32991e-20)
(0.0632472 -0.0589337 3.91815e-20)
(0.0746252 -0.0641513 -5.24094e-20)
(0.0862278 -0.0685961 -1.43899e-19)
(0.0978674 -0.0722044 -4.94648e-20)
(-0.00240115 0.00677905 -9.94591e-21)
(-0.00596185 0.0147971 -1.17187e-20)
(-0.00870646 0.0185609 8.88798e-20)
(-0.0102421 0.0191182 -1.48069e-19)
(-0.010422 0.0172132 2.19929e-20)
(-0.00921375 0.0134073 -8.79875e-20)
(-0.00662161 0.00813921 4.1216e-20)
(-0.00267716 0.00175765 1.86907e-19)
(0.00256751 -0.00545303 -1.30226e-20)
(0.00904653 -0.0132528 -1.40116e-19)
(0.0166839 -0.0214315 2.51741e-20)
(0.0253952 -0.0297983 5.49194e-21)
(0.0350878 -0.0381745 -2.74652e-20)
(0.0456605 -0.0463893 4.28226e-21)
(0.0570028 -0.0542776 2.45653e-19)
(0.0689942 -0.0616803 -3.56387e-20)
(0.0815087 -0.0684454 -6.73633e-20)
(0.0944114 -0.0744315 -1.18193e-19)
(0.107509 -0.0795211 1.21446e-19)
(0.120543 -0.0836453 5.87435e-20)
(-0.00280391 0.00723883 4.72439e-20)
(-0.00659093 0.015674 -6.82843e-20)
(-0.00899469 0.0195203 9.86984e-20)
(-0.00979476 0.0199073 1.01599e-19)
(-0.00895017 0.0176401 9.45825e-20)
(-0.00650206 0.013325 1.92305e-19)
(-0.00251253 0.00743325 1.2468e-19)
(0.00294215 0.000337154 -2.69638e-19)
(0.00977614 -0.00766124 1.38344e-19)
(0.0178983 -0.0163079 1.08188e-19)
(0.0272141 -0.0253802 -2.48211e-21)
(0.0376254 -0.0346754 1.20461e-19)
(0.0490298 -0.0440015 9.19846e-20)
(0.0613187 -0.0531719 -5.1344e-20)
(0.0743747 -0.0620027 1.68047e-19)
(0.0880699 -0.0703126 -2.09084e-19)
(0.10227 -0.0779237 8.25139e-20)
(0.116833 -0.0846635 1.04384e-19)
(0.131552 -0.0903838 -2.32984e-20)
(0.146083 -0.0950134 2.36537e-19)
(-0.00318773 0.00754557 9.8426e-20)
(-0.00711799 0.016175 5.98298e-21)
(-0.00905307 0.0199644 -3.87871e-20)
(-0.00896171 0.0201053 -4.11427e-20)
(-0.00691883 0.0174501 -1.94914e-19)
(-0.00304604 0.0126404 2.93107e-20)
(0.00253084 0.00617094 7.90927e-20)
(0.00968616 -0.00157008 -3.94235e-20)
(0.0182965 -0.01027 3.23971e-20)
(0.0282426 -0.0196674 -8.56848e-21)
(0.0394088 -0.0295339 -4.16256e-20)
(0.0516823 -0.0396605 4.04034e-20)
(0.0649503 -0.0498475 -1.67417e-19)
(0.0790967 -0.0598971 1.63041e-19)
(0.0939983 -0.0696094 -1.37931e-19)
(0.10952 -0.0787822 4.31655e-20)
(0.125519 -0.0872102 9.54596e-20)
(0.141848 -0.0946855 -2.02619e-20)
(0.158287 -0.101022 -6.47042e-20)
(0.174384 -0.106149 -5.03839e-20)
(-0.00352882 0.00768806 -1.25293e-19)
(-0.00748081 0.0162741 -8.73354e-21)
(-0.00878956 0.0198606 2.931e-20)
(-0.00762801 0.0196789 7.54969e-20)
(-0.00419573 0.0166145 -1.08131e-19)
(0.00129906 0.0113336 -9.47307e-20)
(0.00866161 0.0043458 2.21162e-19)
(0.0177124 -0.003953 -1.24821e-19)
(0.0282868 -0.0132469 -8.01501e-20)
(0.0402338 -0.0232742 -1.14189e-19)
(0.0534147 -0.033808 7.55965e-20)
(0.0676999 -0.0446403 -3.0595e-21)
(0.0829656 -0.0555706 -1.41396e-19)
(0.0990887 -0.0663961 -2.26163e-19)
(0.115941 -0.0769061 1.73253e-19)
(0.133383 -0.08688 -1.37165e-19)
(0.151263 -0.096085 1.9429e-19)
(0.169431 -0.104273 -5.49536e-20)
(0.187654 -0.111212 1.08581e-19)
(0.205356 -0.11683 -4.35641e-19)
(-0.00380101 0.00765693 -2.61952e-19)
(-0.00761133 0.0159507 1.86088e-19)
(-0.00810377 0.0191843 2.50872e-20)
(-0.00566834 0.0186045 5.2348e-21)
(-0.000636431 0.0151153 -1.17431e-19)
(0.0066921 0.00939694 1.74816e-19)
(0.0160491 0.00196456 1.78861e-20)
(0.027197 -0.00678593 -3.56505e-20)
(0.0399261 -0.0165426 -1.16239e-19)
(0.0540504 -0.0270509 1.25661e-19)
(0.0694047 -0.0380928 3.16005e-19)
(0.0858406 -0.0494698 -7.03957e-20)
(0.103222 -0.0609891 1.57443e-19)
(0.121419 -0.0724517 -1.83015e-19)
(0.140301 -0.0836437 -1.73487e-19)
(0.159724 -0.0943316 1.04757e-19)
(0.179534 -0.104257 1.67133e-19)
(0.19958 -0.113127 -5.44851e-19)
(0.219617 -0.120652 6.55846e-20)
(0.238931 -0.126761 9.98549e-20)
(-0.00397596 0.00744493 1.9627e-19)
(-0.00743644 0.0151901 7.43353e-20)
(-0.00688845 0.0179193 3.70714e-19)
(-0.00294912 0.0168692 1.93653e-20)
(0.00391309 0.0129462 -4.11468e-20)
(0.0133031 0.00683409 -1.99044e-19)
(0.0248757 -0.000954835 1.72249e-19)
(0.0383319 -0.0100318 3.10107e-19)
(0.0534127 -0.0200956 2.03855e-19)
(0.0698935 -0.0309053 1.49048e-19)
(0.0875788 -0.0422596 1.28192e-19)
(0.106298 -0.0539782 -2.27545e-19)
(0.1259 -0.0658863 -6.85922e-20)
(0.146249 -0.0778001 -5.20373e-20)
(0.167211 -0.0895138 5.49495e-19)
(0.188645 -0.100791 -4.40032e-21)
(0.210397 -0.111354 -1.33947e-19)
(0.232321 -0.120862 -3.78322e-20)
(0.25417 -0.128954 3.81144e-19)
(0.27507 -0.135558 6.03488e-20)
(-0.00402349 0.00704738 -7.15495e-21)
(-0.00687911 0.0139845 -2.02776e-19)
(-0.00503157 0.0160595 -3.05917e-19)
(0.000668443 0.0144708 -8.62067e-20)
(0.00961258 0.0101116 4.96101e-20)
(0.0213085 0.00365884 1.12291e-20)
(0.0353319 -0.0043858 2.78031e-19)
(0.0513194 -0.0136468 -3.46936e-19)
(0.0689594 -0.0238387 -1.32793e-19)
(0.087984 -0.0347397 -2.65297e-19)
(0.108163 -0.0461713 -2.2403e-19)
(0.129299 -0.0579802 -1.98265e-19)
(0.151222 -0.0700207 5.01819e-20)
(0.173786 -0.0821381 -6.45984e-20)
(0.196857 -0.0941511 2.69852e-19)
(0.2203 -0.105837 -1.49242e-19)
(0.243967 -0.116911 -4.54863e-19)
(0.26773 -0.126989 -8.63904e-20)
(0.291353 -0.135621 2.21822e-19)
(0.313787 -0.142726 -2.20184e-19)
(-0.0039121 0.00646271 -3.03406e-20)
(-0.00586016 0.0123341 2.57466e-19)
(-0.00241924 0.0136093 -3.30563e-19)
(0.00532434 0.0114192 7.66572e-20)
(0.0166224 0.00662735 -1.58216e-19)
(0.0308855 -0.00010583 3.59495e-19)
(0.0476095 -0.00829609 -2.56719e-19)
(0.0663649 -0.0175857 2.92736e-19)
(0.086785 -0.0277078 -2.81097e-19)
(0.108555 -0.0384629 1.17353e-19)
(0.131403 -0.0496991 -5.8674e-20)
(0.155099 -0.0612958 -1.45198e-19)
(0.179449 -0.073147 -1.77065e-19)
(0.20429 -0.0851424 1.74797e-19)
(0.229487 -0.0971462 -1.45377e-19)
(0.25491 -0.108974 -3.1134e-19)
(0.280429 -0.120361 3.22682e-19)
(0.30595 -0.130892 -4.07461e-19)
(0.331276 -0.140015 1.79894e-19)
(0.355168 -0.147623 8.7109e-22)
(-0.00360983 0.00569321 -3.06767e-19)
(-0.00430043 0.0102486 -3.54806e-19)
(0.00106069 0.0105859 4.0427e-20)
(0.0111547 0.00773762 -3.4711e-19)
(0.0250967 0.00252142 -3.1313e-20)
(0.0422029 -0.00442823 -2.57064e-19)
(0.0618908 -0.0126503 -5.96644e-20)
(0.0836651 -0.0218073 -1.7438e-19)
(0.107103 -0.0316523 -4.44966e-22)
(0.131838 -0.0420066 -7.7586e-20)
(0.157554 -0.0527446 2.81828e-21)
(0.183981 -0.0637799 -2.18714e-19)
(0.210888 -0.0750514 2.34996e-19)
(0.238088 -0.0865061 -3.37995e-19)
(0.265435 -0.0980767 1.15727e-19)
(0.292802 -0.109652 2.28979e-21)
(0.320084 -0.121031 -1.84383e-19)
(0.347244 -0.131803 4.44881e-19)
(0.37417 -0.141316 -1.08285e-19)
(0.399436 -0.149412 -7.81679e-20)
(-0.00308528 0.00474574 3.49947e-19)
(-0.00212354 0.00774881 2.02238e-19)
(0.00551435 0.00702085 1.88118e-19)
(0.0182859 0.00346463 2.75193e-20)
(0.0351763 -0.00216449 2.61101e-19)
(0.0554123 -0.00926713 3.75763e-19)
(0.0783372 -0.0174105 3.10208e-19)
(0.103393 -0.0262792 2.45165e-20)
(0.130101 -0.0356438 2.25115e-19)
(0.158045 -0.0453425 3.49593e-19)
(0.18686 -0.0552691 -9.19241e-20)
(0.216228 -0.0653644 1.52524e-19)
(0.245875 -0.0756081 1.24626e-19)
(0.275573 -0.0860077 1.24254e-19)
(0.305148 -0.096581 7.1808e-19)
(0.334464 -0.107329 -2.69228e-19)
(0.363432 -0.11818 -1.67986e-20)
(0.392099 -0.128815 2.9801e-19)
(0.420522 -0.138519 -1.67137e-19)
(0.447112 -0.147061 9.58404e-20)
(-0.00230887 0.00363249 -2.89555e-19)
(0.00074102 0.00486787 2.3015e-20)
(0.0110373 0.00296186 -2.49582e-19)
(0.0268286 -0.00134358 -3.04257e-20)
(0.0469799 -0.00737212 1.8614e-19)
(0.0706367 -0.0145689 -5.51652e-19)
(0.0970744 -0.0225346 4.71858e-21)
(0.125678 -0.0309771 2.57098e-19)
(0.155919 -0.0396815 2.42817e-19)
(0.187334 -0.0484952 -1.06702e-19)
(0.219514 -0.0573195 3.43251e-20)
(0.25209 -0.0661056 8.23217e-20)
(0.284737 -0.0748541 -3.90179e-20)
(0.317174 -0.0836148 -4.25562e-19)
(0.349174 -0.0924834 1.09193e-19)
(0.380561 -0.101595 2.86993e-19)
(0.411231 -0.111087 -4.05156e-19)
(0.441309 -0.120877 1.9881e-19)
(0.471152 -0.130289 5.08994e-20)
(0.499133 -0.139011 2.95261e-19)
(-0.00125422 0.00237144 -4.51512e-20)
(0.0043548 0.00165266 -2.19873e-19)
(0.01771 -0.00152495 9.91913e-20)
(0.0368715 -0.00661022 -3.36281e-21)
(0.060597 -0.0130226 -4.49877e-19)
(0.0879601 -0.0202621 7.08637e-20)
(0.118178 -0.0279693 -1.20834e-20)
(0.150587 -0.0358781 9.10929e-20)
(0.184618 -0.0437867 -4.18663e-19)
(0.219774 -0.0515445 -2.6069e-20)
(0.255607 -0.0590453 -9.50572e-20)
(0.291713 -0.066226 9.02751e-20)
(0.327718 -0.0730702 2.92035e-19)
(0.363283 -0.0796176 -4.58721e-20)
(0.398107 -0.0859784 1.57846e-20)
(0.431919 -0.0923659 1.14497e-19)
(0.464504 -0.0991165 -2.68742e-20)
(0.495964 -0.106441 2.09302e-19)
(0.527051 -0.113783 -1.33181e-19)
(0.556462 -0.121144 -2.24302e-19)
(0.000100621 0.000986541 4.07187e-20)
(0.00876761 -0.00183585 8.96401e-21)
(0.0255944 -0.00635396 9.09078e-20)
(0.048477 -0.0122353 2.22407e-19)
(0.076081 -0.0190117 1.24194e-19)
(0.107419 -0.0262498 1.25282e-20)
(0.14166 -0.0336391 -1.5073e-19)
(0.178104 -0.0409458 3.9574e-20)
(0.216154 -0.0479845 2.02242e-19)
(0.255294 -0.0546059 -3.45576e-19)
(0.295063 -0.0606888 2.61482e-19)
(0.33505 -0.0661358 -1.96085e-19)
(0.374875 -0.0708739 1.65747e-19)
(0.414186 -0.0748587 -3.55069e-19)
(0.452655 -0.078091 3.85032e-19)
(0.489949 -0.0806666 -4.12416e-19)
(0.525727 -0.0828233 -1.0332e-19)
(0.559913 -0.0846864 3.14269e-19)
(0.593297 -0.0857665 -1.13501e-19)
(0.624876 -0.0879554 4.73326e-20)
(0.00177224 -0.00049263 -3.22555e-20)
(0.0140156 -0.00552294 3.18643e-19)
(0.0347309 -0.0114197 -4.10305e-21)
(0.0616784 -0.0180934 -1.99932e-19)
(0.0934467 -0.0252052 -1.34496e-19)
(0.128999 -0.0324006 2.48961e-19)
(0.167465 -0.0394301 -9.974e-20)
(0.208119 -0.0461035 -1.31034e-20)
(0.250348 -0.0522635 2.04357e-19)
(0.293635 -0.0577746 -2.59164e-19)
(0.337535 -0.062514 2.72779e-20)
(0.381671 -0.0663639 -3.35264e-19)
(0.425732 -0.069205 1.75239e-19)
(0.469482 -0.0709102 -5.02123e-19)
(0.512788 -0.0713456 7.95005e-19)
(0.555661 -0.0703887 -1.44621e-19)
(0.598404 -0.0679139 1.47211e-19)
(0.642022 -0.0636806 -3.90855e-19)
(0.688766 -0.0580409 8.03735e-21)
(0.741961 -0.0560802 5.2511e-19)
(0.0037713 -0.00203162 -1.00116e-19)
(0.02012 -0.00932149 9.12424e-20)
(0.0451382 -0.0165975 -3.32368e-19)
(0.0764795 -0.0240339 4.94896e-19)
(0.112671 -0.0314355 -3.5945e-19)
(0.152636 -0.0385406 1.76533e-20)
(0.195473 -0.0451736 -3.88757e-19)
(0.240433 -0.0512027 2.79326e-19)
(0.286897 -0.0565162 -4.21681e-20)
(0.334348 -0.0610159 -2.48717e-19)
(0.382359 -0.0646108 -1.43109e-19)
(0.430591 -0.0672135 1.51075e-19)
(0.478795 -0.0687394 9.99098e-20)
(0.52683 -0.0691113 -4.46988e-19)
(0.574692 -0.0682789 1.63858e-19)
(0.622559 -0.066258 -2.36659e-19)
(0.670914 -0.0631532 2.51279e-20)
(0.720709 -0.0592399 -2.02768e-19)
(0.773101 -0.0559172 8.6952e-20)
(0.828297 -0.0577634 -3.64194e-19)
(0.00610257 -0.00359225 2.81822e-19)
(0.0270876 -0.0131344 -1.79314e-19)
(0.0568136 -0.0217468 1.48607e-19)
(0.092857 -0.0298825 -1.87961e-19)
(0.133699 -0.0375033 3.21221e-19)
(0.178228 -0.0444521 -7.60043e-21)
(0.225518 -0.0506396 -3.95639e-20)
(0.274799 -0.0560052 -2.95722e-20)
(0.325438 -0.0604988 1.80404e-19)
(0.376916 -0.0640781 3.0542e-19)
(0.428807 -0.0667079 -1.8438e-19)
(0.480782 -0.0683613 1.76468e-19)
(0.532605 -0.0690255 3.22203e-19)
(0.584141 -0.068714 -2.29981e-19)
(0.635368 -0.0674945 -4.62521e-19)
(0.686391 -0.0655271 8.45099e-19)
(0.737485 -0.0630875 -1.54052e-19)
(0.789107 -0.0606691 -5.09155e-20)
(0.841463 -0.0596777 5.29997e-19)
(0.893737 -0.0630867 -1.39737e-19)
(0.00876545 -0.00513425 -4.64447e-19)
(0.0349116 -0.0168578 -3.29296e-19)
(0.0697351 -0.0267149 -1.26746e-19)
(0.110764 -0.0354475 2.45651e-19)
(0.156447 -0.0431845 -5.56713e-19)
(0.205647 -0.0498827 2.87644e-19)
(0.257411 -0.0555485 3.63914e-20)
(0.310951 -0.0602024 3.48424e-20)
(0.365616 -0.0638648 -3.83932e-19)
(0.420871 -0.0665593 -1.37278e-19)
(0.476277 -0.0683149 -2.40592e-19)
(0.531489 -0.0691714 2.31426e-19)
(0.586244 -0.0691867 6.46871e-20)
(0.640362 -0.0684506 9.44678e-21)
(0.693738 -0.0671072 3.00609e-19)
(0.746336 -0.0653793 -3.08048e-19)
(0.798194 -0.063571 -1.26824e-20)
(0.84938 -0.0621411 8.4063e-21)
(0.899614 -0.0622035 4.30847e-20)
(0.94797 -0.0656219 2.84868e-19)
(0.0117547 -0.00661665 1.49579e-19)
(0.0435729 -0.0203852 4.08914e-19)
(0.0838634 -0.0313431 3.2903e-19)
(0.130134 -0.0405274 -1.13434e-19)
(0.180812 -0.0482405 3.94797e-19)
(0.234743 -0.0545602 -3.36312e-20)
(0.290952 -0.0595944 -4.78131e-20)
(0.34863 -0.0634498 2.81295e-20)
(0.407105 -0.0662216 3.90753e-19)
(0.46582 -0.0680007 2.2915e-19)
(0.524315 -0.0688793 6.66223e-20)
(0.582215 -0.0689566 4.29749e-21)
(0.639217 -0.0683466 -4.4734e-19)
(0.695084 -0.0671879 3.90202e-19)
(0.749631 -0.065659 6.67529e-20)
(0.802706 -0.0639873 -1.11202e-19)
(0.854193 -0.0624353 -4.77227e-19)
(0.903955 -0.0613552 -3.87824e-20)
(0.95154 -0.0615922 1.88948e-19)
(0.99615 -0.0643212 -4.23269e-20)
(0.0150613 -0.00799914 -3.78884e-19)
(0.0530422 -0.0236101 1.6911e-19)
(0.0991439 -0.0354721 -8.27336e-19)
(0.15088 -0.044919 3.39953e-19)
(0.206673 -0.0524305 -2.73626e-19)
(0.265355 -0.0582094 2.0367e-19)
(0.325934 -0.0624684 -3.16547e-19)
(0.387582 -0.0654019 2.98425e-20)
(0.449608 -0.0671801 -1.56929e-20)
(0.511433 -0.0679584 8.50812e-20)
(0.572574 -0.0678858 1.23545e-19)
(0.632626 -0.0671103 -2.36486e-19)
(0.691254 -0.0657851 1.25038e-19)
(0.748174 -0.0640753 1.14812e-19)
(0.803147 -0.0621659 4.93582e-19)
(0.855954 -0.0602618 -2.17461e-19)
(0.9064 -0.058566 -1.42862e-19)
(0.954267 -0.0573304 2.397e-19)
(0.999075 -0.0572071 1.2644e-19)
(1.04019 -0.0589247 -3.00862e-19)
(0.0186731 -0.00924292 3.33282e-19)
(0.0632804 -0.0264296 3.4166e-19)
(0.115508 -0.0389473 9.92393e-20)
(0.172902 -0.0484251 4.19736e-19)
(0.233891 -0.0555219 2.0563e-19)
(0.297304 -0.060567 -3.76312e-19)
(0.36214 -0.0638787 5.72423e-19)
(0.427556 -0.0657389 -2.84426e-19)
(0.492846 -0.0663899 2.83839e-19)
(0.557416 -0.0660476 3.67635e-19)
(0.620764 -0.0649103 -2.11381e-19)
(0.682468 -0.0631647 4.0569e-20)
(0.742172 -0.0609905 2.24465e-19)
(0.799571 -0.0585649 1.57973e-19)
(0.854398 -0.0560665 3.62294e-19)
(0.906412 -0.0536703 -1.47669e-19)
(0.955395 -0.0515254 -1.97247e-20)
(1.00111 -0.0498083 2.26729e-19)
(1.04311 -0.0490348 -4.95735e-20)
(1.08093 -0.0496259 2.47666e-22)
(0.0225752 -0.0103113 -1.73314e-19)
(0.0742403 -0.028746 -6.72935e-19)
(0.132874 -0.0416224 1.59175e-19)
(0.19608 -0.0508611 -1.22674e-19)
(0.26231 -0.0572993 -2.82949e-19)
(0.330398 -0.0613932 -2.01924e-19)
(0.399341 -0.0635658 -1.24839e-19)
(0.468293 -0.0641844 3.093e-19)
(0.536541 -0.0635602 -1.84951e-19)
(0.603483 -0.0619645 -1.89822e-19)
(0.668613 -0.0596385 -2.4032e-19)
(0.731504 -0.0567997 -4.01355e-20)
(0.791798 -0.053646 -2.85009e-20)
(0.849189 -0.050359 -5.56377e-19)
(0.903414 -0.0471065 2.67812e-19)
(0.95424 -0.0440358 -3.56057e-19)
(1.00146 -0.0412535 1.0946e-19)
(1.04486 -0.0388832 -8.39151e-19)
(1.08406 -0.037339 2.55283e-19)
(1.1187 -0.0368202 3.80472e-19)
(0.0267502 -0.0111699 -4.26915e-20)
(0.0858663 -0.0304688 3.27904e-19)
(0.151148 -0.0433629 2.16924e-20)
(0.220281 -0.052059 5.10567e-20)
(0.291756 -0.0575707 -1.04522e-19)
(0.364424 -0.0604794 -2.12754e-21)
(0.437294 -0.0613108 -1.99449e-21)
(0.509524 -0.0605146 -6.30729e-20)
(0.580406 -0.0584674 2.29665e-19)
(0.649344 -0.0554909 8.93195e-20)
(0.715842 -0.0518635 4.04044e-19)
(0.779484 -0.0478277 -1.11729e-19)
(0.839929 -0.0435942 7.71726e-20)
(0.896892 -0.0393453 -9.41945e-21)
(0.950134 -0.0352372 2.14177e-19)
(0.999455 -0.0313935 1.30472e-19)
(1.04468 -0.0278898 3.12167e-19)
(1.08565 -0.0248116 -5.04871e-19)
(1.12204 -0.0224916 6.33716e-19)
(1.15361 -0.0209661 -2.42027e-19)
(0.0311779 -0.011787 -3.95425e-19)
(0.0980951 -0.0315145 -1.30572e-19)
(0.170222 -0.0440474 1.05056e-19)
(0.245354 -0.0518709 6.67029e-20)
(0.322037 -0.0561712 6.91484e-20)
(0.399155 -0.0576525 6.87684e-20)
(0.475737 -0.0569397 -1.76616e-19)
(0.550963 -0.0545618 -7.18888e-20)
(0.624141 -0.0509561 2.37447e-20)
(0.694698 -0.0464901 -2.18345e-19)
(0.76216 -0.0414745 -9.8254e-20)
(0.826142 -0.0361718 6.00537e-19)
(0.886335 -0.0308013 -1.56458e-19)
(0.942494 -0.0255438 -2.14406e-19)
(0.994426 -0.0205439 -1.00501e-19)
(1.04198 -0.0159055 7.12554e-20)
(1.08503 -0.0116801 8.46472e-20)
(1.12346 -0.00792489 -4.06501e-19)
(1.15704 -0.00490243 5.86247e-19)
(1.18562 -0.00252982 -6.09965e-19)
(0.0358355 -0.0121328 -4.3384e-20)
(0.110855 -0.0318084 1.3026e-20)
(0.189977 -0.0435695 -1.74105e-20)
(0.271134 -0.0501706 2.56225e-19)
(0.352946 -0.0529654 1.45868e-20)
(0.434343 -0.0527767 9.5136e-20)
(0.514393 -0.0503251 -2.01864e-19)
(0.592309 -0.0462135 -7.02281e-21)
(0.667432 -0.0409357 2.83329e-19)
(0.739227 -0.0348995 3.92424e-20)
(0.80726 -0.028443 -2.49253e-19)
(0.871191 -0.0218439 -2.19001e-20)
(0.930762 -0.0153265 -2.04704e-19)
(0.985781 -0.00906751 2.06857e-19)
(1.03611 -0.00319938 2.85214e-19)
(1.08167 0.00219181 -3.16151e-20)
(1.12239 0.00707426 -3.74889e-20)
(1.15821 0.0114145 1.15646e-19)
(1.189 0.0150134 -3.677e-19)
(1.21468 0.0180391 3.92172e-19)
(0.0406969 -0.0121805 4.42857e-20)
(0.124065 -0.0312837 -3.0481e-19)
(0.210281 -0.0418378 8.33509e-20)
(0.297439 -0.0468545 -2.56633e-19)
(0.384256 -0.0478479 9.02084e-20)
(0.469725 -0.0457545 -3.33287e-19)
(0.552969 -0.0413845 1.35944e-19)
(0.633248 -0.0354099 -4.42304e-20)
(0.709956 -0.0283745 -1.85085e-21)
(0.782608 -0.0207211 4.50243e-20)
(0.850829 -0.0128093 -1.65172e-19)
(0.914339 -0.00492697 -2.36755e-19)
(0.972944 0.00270098 -4.82522e-20)
(1.02652 0.00990533 -2.17909e-20)
(1.07501 0.0165672 -5.57047e-20)
(1.11838 0.0226185 -1.80752e-20)
(1.15664 0.0280453 -5.42618e-20)
(1.18981 0.0328365 -4.70162e-20)
(1.21784 0.0368523 -1.37978e-19)
(1.24069 0.0403186 2.56549e-19)
(0.0457323 -0.0119056 1.05069e-19)
(0.137638 -0.0298828 -1.2369e-19)
(0.230988 -0.0387771 2.67368e-19)
(0.324075 -0.0418422 -1.17841e-19)
(0.41573 -0.040744 3.1714e-19)
(0.505026 -0.0365252 5.99696e-21)
(0.591159 -0.0300793 1.61761e-19)
(0.673457 -0.0221398 -4.48607e-20)
(0.75138 -0.0132941 1.84289e-19)
(0.824513 -0.00401294 1.28397e-20)
(0.892551 0.00532924 4.44841e-19)
(0.955291 0.0144404 -3.09437e-19)
(1.01262 0.0231003 4.24574e-20)
(1.06448 0.0311512 8.10952e-20)
(1.11091 0.0384911 4.19884e-19)
(1.15194 0.0450709 -1.51855e-19)
(1.18766 0.0508956 -2.98644e-20)
(1.21816 0.0559763 -1.55979e-19)
(1.24346 0.0602302 -1.52634e-20)
(1.26359 0.0639185 9.19216e-20)
(0.0509087 -0.0112863 -4.76156e-20)
(0.151475 -0.0275574 1.50728e-19)
(0.251944 -0.0343286 -1.57553e-19)
(0.350834 -0.035077 6.15001e-20)
(0.447114 -0.0316087 -7.68547e-20)
(0.539958 -0.0250644 2.81088e-19)
(0.628652 -0.0164115 -4.08967e-20)
(0.712609 -0.00643707 9.73979e-20)
(0.791374 0.00423664 -5.91819e-20)
(0.864615 0.0151191 -2.19204e-21)
(0.932117 0.0258286 6.77239e-20)
(0.993763 0.0360761 -5.32098e-20)
(1.04953 0.0456521 1.38839e-19)
(1.09945 0.0544158 -6.99832e-20)
(1.14363 0.0622855 -3.06386e-19)
(1.18221 0.0692347 3.05617e-19)
(1.21534 0.0752882 -1.36825e-19)
(1.24317 0.0804815 1.09713e-19)
(1.26581 0.0847869 1.88269e-19)
(1.28334 0.0884821 9.06862e-20)
(0.0561889 -0.0103042 1.19228e-19)
(0.165472 -0.0242692 -2.63805e-19)
(0.272982 -0.0284505 4.9581e-20)
(0.377498 -0.0265258 -3.73064e-20)
(0.478147 -0.0204272 -1.54432e-19)
(0.574227 -0.0113823 -1.2171e-19)
(0.665132 -0.000422115 -2.47436e-20)
(0.750378 0.0116235 -2.22508e-19)
(0.829611 0.0241071 -1.43411e-20)
(0.902602 0.0365281 -4.25106e-20)
(0.969233 0.0485063 -1.16325e-19)
(1.02949 0.0597638 -2.61624e-20)
(1.08344 0.0701091 -9.05541e-20)
(1.13123 0.079424 -1.51582e-19)
(1.17303 0.0876525 1.55596e-19)
(1.20907 0.0947934 2.06396e-20)
(1.23958 0.100894 4.11109e-20)
(1.26479 0.106017 -1.79453e-19)
(1.28485 0.110188 -5.48932e-21)
(1.29992 0.113686 -3.1992e-19)
(0.0615322 -0.00894399 1.26471e-19)
(0.179513 -0.0199906 9.05856e-20)
(0.293927 -0.0211188 -1.49366e-19)
(0.403839 -0.0161795 2.35433e-19)
(0.508563 -0.00721388 -2.67405e-20)
(0.607537 0.00447722 9.02854e-20)
(0.700285 0.0178119 3.19785e-20)
(0.786445 0.0319297 1.14549e-19)
(0.865779 0.04617 -9.10405e-20)
(0.938174 0.0600325 3.10166e-20)
(1.00363 0.073149 -2.98564e-20)
(1.06223 0.0852615 -1.30096e-20)
(1.11415 0.0962045 2.55647e-20)
(1.15964 0.105889 -4.72122e-20)
(1.19897 0.11429 -1.44046e-20)
(1.23244 0.121434 -4.44186e-20)
(1.26034 0.127397 -7.20978e-20)
(1.28299 0.132267 4.71349e-20)
(1.30059 0.136126 -6.28959e-20)
(1.31335 0.139238 3.19586e-19)
(0.0668945 -0.00719478 -6.14129e-20)
(0.193479 -0.0147058 -1.87909e-19)
(0.314594 -0.0123281 -2.4291e-20)
(0.429623 -0.00405365 -8.11368e-21)
(0.538088 0.00798794 -8.77349e-20)
(0.639591 0.0224383 -1.47004e-19)
(0.733803 0.0381799 4.88851e-20)
(0.8205 0.0543359 -6.83054e-20)
(0.89958 0.0702456 -7.7707e-20)
(0.971055 0.0854215 4.42486e-20)
(1.03505 0.0995183 -3.37765e-20)
(1.09176 0.112308 -6.93929e-20)
(1.14149 0.123658 -2.28139e-21)
(1.18457 0.133517 4.81702e-20)
(1.22136 0.141895 -4.90388e-20)
(1.25224 0.148854 6.87479e-20)
(1.2776 0.154494 1.89606e-20)
(1.29777 0.158939 4.66788e-20)
(1.31305 0.162318 8.9315e-20)
(1.32366 0.164876 -8.88355e-20)
(0.0722284 -0.00504989 5.73982e-20)
(0.207243 -0.0084114 -4.21253e-21)
(0.334795 -0.00209216 2.91527e-20)
(0.454614 0.00981192 -3.88314e-20)
(0.566454 0.0251065 4.14789e-21)
(0.6701 0.0423943 1.40629e-19)
(0.765388 0.0605399 -9.32783e-20)
(0.852253 0.078666 4.10244e-20)
(0.930738 0.0961266 3.7172e-20)
(1.00099 0.112461 -1.0438e-19)
(1.06328 0.127357 9.99868e-20)
(1.11792 0.140628 1.19214e-21)
(1.16531 0.152184 -7.22301e-20)
(1.2059 0.162016 8.78936e-20)
(1.24013 0.170174 -3.49281e-20)
(1.26847 0.176759 2.68362e-20)
(1.29135 0.181902 -3.04646e-20)
(1.30917 0.185759 -1.24654e-20)
(1.32229 0.188509 -1.04215e-19)
(1.33094 0.190367 3.70243e-20)
(0.077484 -0.00250765 -1.81795e-20)
(0.220675 -0.00111718 5.45814e-20)
(0.354337 0.00955555 8.98036e-21)
(0.478575 0.0253526 3.66291e-20)
(0.593394 0.0440421 1.81666e-20)
(0.698782 0.0642097 8.69064e-21)
(0.79476 0.084721 4.9806e-20)
(0.881433 0.104717 -5.83685e-21)
(0.959003 0.123582 2.31962e-20)
(1.02777 0.140895 3.77753e-20)
(1.08813 0.156393 1.86499e-20)
(1.14054 0.169938 1.36272e-20)
(1.18551 0.181491 5.57387e-20)
(1.22357 0.191093 -5.43007e-20)
(1.25526 0.19884 1.1761e-20)
(1.28112 0.204871 -1.09264e-20)
(1.30164 0.209354 1.72355e-20)
(1.31726 0.212477 1.4456e-20)
(1.32837 0.214467 2.97091e-20)
(1.33525 0.215502 1.34072e-21)
(0.0826093 0.000428315 1.10371e-20)
(0.233641 0.00715305 1.05106e-20)
(0.373029 0.0225612 -1.48351e-20)
(0.501273 0.0424794 9.43063e-21)
(0.61865 0.0646687 5.52002e-21)
(0.72537 0.0877213 -1.75481e-20)
(0.821655 0.110526 5.96183e-21)
(0.907793 0.132262 1.20759e-21)
(0.984155 0.15236 1.07775e-20)
(1.0512 0.170456 -2.97671e-20)
(1.10946 0.186345 -1.67589e-22)
(1.15953 0.199949 8.54644e-21)
(1.20201 0.211291 -6.87185e-21)
(1.23755 0.220464 7.10982e-21)
(1.26676 0.227616 1.86207e-20)
(1.29024 0.232928 -1.06027e-20)
(1.30852 0.236602 3.04481e-21)
(1.32211 0.238863 1.1609e-20)
(1.33141 0.239983 -1.90789e-20)
(1.33673 0.240096 1.07198e-20)
(0.0875518 0.00374873 2.84152e-20)
(0.246007 0.0163612 -1.68918e-20)
(0.390679 0.0368508 2.02926e-20)
(0.52248 0.0610791 -1.54069e-20)
(0.641977 0.086834 -7.17974e-21)
(0.749617 0.112741 2.25033e-21)
(0.845835 0.137735 -7.46287e-21)
(0.931115 0.161054 2.74771e-20)
(1.00601 0.182194 -2.36235e-20)
(1.07113 0.200862 5.73614e-21)
(1.12715 0.216924 -4.26943e-21)
(1.1748 0.230374 -2.88942e-20)
(1.21479 0.241298 2.84246e-20)
(1.24785 0.249853 1.09531e-20)
(1.27466 0.256239 -1.09958e-20)
(1.29588 0.260682 2.58938e-20)
(1.3121 0.263418 -4.57549e-22)
(1.32384 0.264708 -2.50993e-20)
(1.33152 0.264867 1.8526e-20)
(1.33548 0.263984 6.56442e-21)
(0.0922578 0.00743856 -1.01954e-20)
(0.257641 0.0264548 2.99283e-20)
(0.407103 0.0523302 3.56035e-20)
(0.541979 0.0810156 -1.7548e-20)
(0.663144 0.110362 3.07785e-20)
(0.771292 0.139057 5.10358e-20)
(0.867086 0.166107 -3.11566e-21)
(0.951211 0.190829 -9.86664e-21)
(1.0244 0.212805 4.78091e-20)
(1.08743 0.231826 2.40664e-20)
(1.14113 0.247842 -4.64509e-21)
(1.18632 0.260925 3.75976e-20)
(1.22384 0.271237 -4.1304e-20)
(1.25449 0.278996 6.46872e-20)
(1.27902 0.284461 -1.09175e-20)
(1.29814 0.287901 3.12792e-20)
(1.31247 0.28959 5.52493e-21)
(1.32255 0.289822 2.22825e-20)
(1.32882 0.288951 -2.13406e-20)
(1.33164 0.287019 5.90726e-21)
(0.0966736 0.0114766 -1.50847e-20)
(0.268414 0.0373666 3.60421e-20)
(0.422121 0.0688854 2.71722e-20)
(0.559567 0.10213 -4.36086e-21)
(0.681939 0.135055 4.66428e-20)
(0.790193 0.166437 -3.8106e-20)
(0.885225 0.195383 -3.91663e-21)
(0.967926 0.221311 3.42343e-20)
(1.03921 0.243905 1.05696e-20)
(1.10003 0.263055 1.65659e-20)
(1.15134 0.278808 -2.53718e-20)