1.45 	0 	0 	-0.303139
2.35 	0 	0 	-0.0931395
