1.275 	2.15223e-18 	-2.76991e-20 	-0.0326933 	-0.000499833 	-2.0261e-22
1.825 	2.15223e-18 	-1.39322e-20 	-0.00723086 	-0.00290253 	1.81479e-21
2.375 	2.15223e-18 	-2.66896e-23 	0.124093 	-0.00349581 	-7.55087e-22
