1.45 	0 	0 	0.00434539 	-0.00386726 	3.94995e-21
2.35 	0 	0 	0.116585 	-0.00856654 	1.91833e-21
