1.45 	0 	0 	-0.308259
2.35 	0 	0 	-0.116917
