/*--------------------------------*- C++ -*----------------------------------*\
  =========                 |
  \\      /  F ield         | OpenFOAM: The Open Source CFD Toolbox
   \\    /   O peration     | Website:  https://openfoam.org
    \\  /    A nd           | Version:  6.0
     \\/     M anipulation  |
\*---------------------------------------------------------------------------*/
FoamFile
{
    version     2.0;
    format      ascii;
    class       surfaceScalarField;
    location    "14";
    object      phi;
}
// * * * * * * * * * * * * * * * * * * * * * * * * * * * * * * * * * * * * * //

dimensions      [0 3 -1 0 0 0 0];

internalField   nonuniform List<scalar> 
3880
(
-1.79672e-05
1.79676e-05
-3.49314e-10
-5.34389e-05
3.54724e-05
-7.50323e-10
-9.52208e-05
4.17829e-05
-9.68792e-10
-0.000136234
4.10143e-05
-1.05003e-09
-0.00017211
3.58771e-05
-1.02883e-09
-0.000200435
2.83258e-05
-9.32937e-10
-0.00022028
1.98454e-05
-7.76877e-10
-0.000231893
1.16134e-05
-5.69527e-10
-0.000236494
4.60206e-06
-3.15133e-10
-4.19218e-07
-2.48664e-11
-0.000236075
-1.72891e-05
3.52567e-05
-5.0791e-05
6.89743e-05
-8.94491e-05
8.0441e-05
-0.000126296
7.78615e-05
-0.000157004
6.65848e-05
-0.000179123
5.0445e-05
-0.000191636
3.23583e-05
-0.00019469
1.46676e-05
-0.00018945
-6.37887e-07
-1.19295e-05
-0.00017794
-1.58976e-05
5.11542e-05
-4.53789e-05
9.84556e-05
-7.77028e-05
0.000112765
-0.00010617
0.000106329
-0.000126577
8.69912e-05
-0.000136439
6.03073e-05
-0.00013458
3.04987e-05
-0.000120935
1.02356e-06
-9.65325e-05
-2.50408e-05
-4.50152e-05
-6.34468e-05
-1.37053e-05
6.48595e-05
-3.69201e-05
0.00012167
-5.94732e-05
0.000135318
-7.51722e-05
0.000122028
-8.01108e-05
9.19298e-05
-7.18581e-05
5.20546e-05
-4.90582e-05
7.69887e-06
-1.13288e-05
-3.67058e-05
4.05765e-05
-7.69461e-05
-0.000108999
0.00010456
-1.05483e-05
7.54078e-05
-2.48955e-05
0.000136018
-3.37887e-05
0.000144211
-3.1883e-05
0.000120122
-1.58787e-05
7.59254e-05
1.63637e-05
1.98123e-05
6.62633e-05
-4.22007e-05
0.000134585
-0.000105028
0.000221048
-0.000163409
-0.000211602
0.000323652
-6.17451e-06
8.15823e-05
-8.51383e-06
0.000138357
8.92405e-07
0.000134805
2.61235e-05
9.48913e-05
6.94189e-05
3.263e-05
0.000132156
-4.29245e-05
0.000215431
-0.000125476
0.000320262
-0.000209859
0.000447079
-0.000290226
-0.000358671
0.000594148
-2.7069e-07
8.1853e-05
1.32047e-05
0.000124881
4.65703e-05
0.000101439
0.00010225
3.9212e-05
0.000180898
-4.60182e-05
0.000282411
-0.000144438
0.000406717
-0.000249782
0.000554387
-0.000357529
0.000726524
-0.000462362
-0.000554388
0.00092224
7.44828e-06
7.44047e-05
4.11475e-05
9.11822e-05
0.00010518
3.74072e-05
0.000200141
-5.57493e-05
0.000324738
-0.000170615
0.000476596
-0.000296296
0.000653105
-0.000426291
0.000852574
-0.000556998
0.00107549
-0.000685282
-0.000804238
0.00132534
1.70915e-05
5.73132e-05
7.56321e-05
3.26416e-05
0.000177621
-6.45814e-05
0.000322137
-0.000200266
0.00050622
-0.000354698
0.000725089
-0.000515165
0.000972457
-0.000673659
0.00124153
-0.000826071
0.00152857
-0.000972327
-0.00112329
0.00184763
2.8394e-05
2.89192e-05
0.000115745
-5.47095e-05
0.000262257
-0.000211093
0.000466514
-0.000404523
0.000725705
-0.000613889
0.00103533
-0.000824791
0.00138857
-0.00102689
0.00177463
-0.00121213
0.00217787
-0.00137557
-0.00152077
0.00257535
4.05408e-05
-1.16216e-05
0.000158631
-0.000172799
0.000352649
-0.000405111
0.000621314
-0.000673188
0.000963983
-0.000956558
0.00138132
-0.00124213
0.00187654
-0.00152211
0.00245864
-0.00179423
0.00315027
-0.0020672
-0.00237901
0.00400851
5.24473e-05
-6.40689e-05
0.000200282
-0.000320635
0.000438704
-0.000643533
0.000764176
-0.00099866
0.00117399
-0.00136637
0.00166626
-0.0017344
0.00223987
-0.00209573
0.00289392
-0.00244828
0.00362292
-0.0027962
-0.00314869
0.0043926
6.35928e-05
-0.000127662
0.000238642
-0.000495684
0.000515676
-0.000920567
0.000886651
-0.00136964
0.00134377
-0.00182349
0.00187885
-0.00226948
0.00248267
-0.00269955
0.0031434
-0.003109
0.00384246
-0.00349526
-0.00385237
0.00454614
7.39965e-05
-0.000201658
0.00027343
-0.000695117
0.000583017
-0.00123015
0.000988927
-0.00177555
0.00147724
-0.0023118
0.00203329
-0.00282554
0.00264125
-0.00330751
0.00328337
-0.00375112
0.00393835
-0.00415024
-0.00449386
0.00457984
8.38014e-05
-0.00028546
0.00030479
-0.000916106
0.000640992
-0.00156636
0.00107217
-0.00220672
0.00157824
-0.00281787
0.00213896
-0.00338626
0.00273408
-0.00390263
0.00334346
-0.00436049
0.00394694
-0.00475373
-0.0050716
0.00452468
9.29968e-05
-0.000378456
0.000332462
-0.00115557
0.000689027
-0.00192292
0.00113582
-0.00265352
0.00164705
-0.0033291
0.00219811
-0.00393732
0.00276624
-0.00447076
0.00333113
-0.00492538
0.00387531
-0.00529791
-0.00558123
0.00438494
0.000101338
-0.000479795
0.000355564
-0.0014098
0.000725413
-0.00229277
0.0011775
-0.00310561
0.00168109
-0.00383269
0.00220861
-0.00446484
0.00273652
-0.00499867
0.00324597
-0.00543483
0.00372315
-0.00577509
-0.00601798
0.0041599
0.000108396
-0.000588191
0.000372751
-0.00167415
0.000747729
-0.00266775
0.00119392
-0.0035518
0.00167677
-0.00431554
0.0021673
-0.00495536
0.00264282
-0.00547419
0.00308727
-0.00587929
0.00349109
-0.00617891
-0.00637831
0.00385142
0.000113645
-0.000701836
0.000382507
-0.00194301
0.000753463
-0.0030387
0.00118201
-0.00398035
0.00163124
-0.00476477
0.0020724
-0.00539652
0.00248516
-0.00588695
0.00285721
-0.00625134
0.0031835
-0.0065052
-0.00666062
0.00346581
0.000116555
-0.000818391
0.00038342
-0.00220988
0.000740533
-0.00339582
0.0011397
-0.00437952
0.00154335
-0.00516842
0.00192459
-0.00577776
0.00226663
-0.00622899
0.00256152
-0.00654622
0.00280855
-0.00675224
-0.00686539
0.00301333
0.000116659
-0.00093505
0.000374385
-0.0024676
0.000707626
-0.00372906
0.00106629
-0.00473818
0.00141397
-0.0055161
0.00172709
-0.00609087
0.00199321
-0.00649512
0.00220884
-0.00676184
0.00237717
-0.00692058
-0.00699484
0.00250662
0.000113557
-0.00104861
0.000354638
-0.00270869
0.000654237
-0.00402866
0.000962452
-0.0050464
0.00124581
-0.00579946
0.00148516
-0.00633023
0.00167282
-0.00668278
0.00180947
-0.00689849
0.00190149
-0.0070126
-0.00705246
0.0019591
0.000106989
-0.0011556
0.000323898
-0.00292559
0.000580792
-0.00428555
0.000830167
-0.00529577
0.00104306
-0.00601235
0.00120548
-0.00649265
0.00131447
-0.00679176
0.00137431
-0.00695833
0.00139368
-0.00703197
-0.00704254
0.00138376
9.68093e-05
-0.0012524
0.00028229
-0.00311108
0.000488448
-0.00449171
0.000672348
-0.00547967
0.000810785
-0.00615078
0.000895304
-0.00657717
0.000927261
-0.00682372
0.000913765
-0.00694483
0.00086492
-0.00698312
-0.00696975
0.000792135
8.30012e-05
-0.00133541
0.000230335
-0.00325841
0.000378977
-0.00464035
0.000492528
-0.00559322
0.000554439
-0.00621269
0.00056177
-0.0065845
0.000519615
-0.00678156
0.000437026
-0.00686224
0.000324694
-0.00687079
-0.00683882
0.000193758
6.56832e-05
-0.00140109
0.000168922
-0.00336165
0.000254643
-0.00472607
0.000294604
-0.00563318
0.000279416
-0.00619751
0.000211396
-0.00651648
9.87029e-05
-0.00666887
-4.85083e-05
-0.00671503
-0.000219718
-0.00669958
-0.00665428
-0.00040426
4.51276e-05
-0.00144622
9.93161e-05
-0.00341584
0.000118157
-0.00474491
8.27337e-05
-0.00559776
-9.0726e-06
-0.0061057
-0.000150113
-0.00637544
-0.000329784
-0.0064892
-0.000537494
-0.00650732
-0.000763517
-0.00647356
-0.00641987
-0.000997921
2.17863e-05
-0.001468
2.31931e-05
-0.00341724
-2.72849e-05
-0.00469444
-0.000138613
-0.00548643
-0.000305913
-0.0059384
-0.000517753
-0.0061636
-0.000761542
-0.00624541
-0.00102665
-0.00624222
-0.00130467
-0.00619553
-0.00613599
-0.00158855
-3.66764e-06
-0.00146434
-5.72826e-05
-0.00336363
-0.000177884
-0.00457383
-0.000364495
-0.00529982
-0.000605992
-0.0056969
-0.000887455
-0.00588214
-0.00119464
-0.00593822
-0.00151675
-0.0059201
-0.00184694
-0.00586534
-0.00579587
-0.00218706
-3.02767e-05
-0.00143406
-0.000139282
-0.00325462
-0.000328779
-0.00438434
-0.000588514
-0.00504009
-0.000902629
-0.00538279
-0.00125449
-0.00553027
-0.00162956
-0.00556316
-0.00201742
-0.00553225
-0.00241435
-0.00546841
-0.00540469
-0.00280553
-5.68037e-05
-0.00137726
-0.000219276
-0.00309215
-0.000473544
-0.00413007
-0.00080073
-0.0047129
-0.00118167
-0.00500185
-0.00160044
-0.00511151
-0.00204575
-0.00511784
-0.00251043
-0.00506757
-0.00299325
-0.00498559
-0.00487072
-0.00352723
-8.21694e-05
-0.00129509
-0.000294215
-0.00288011
-0.000606417
-0.00381787
-0.000991
-0.00432832
-0.00142439
-0.00456845
-0.00188854
-0.00464736
-0.00237044
-0.00463594
-0.00286108
-0.00457694
-0.00335412
-0.00449254
-0.00439083
-0.00383401
-0.000105739
-0.00118935
-0.000362726
-0.00262312
-0.000726057
-0.00345454
-0.00115967
-0.0038947
-0.00163602
-0.0040921
-0.00213539
-0.004148
-0.00264431
-0.00412702
-0.00315376
-0.00406748
-0.00365656
-0.00398975
-0.00390421
-0.00414318
-0.000127171
-0.00106218
-0.000424235
-0.00232605
-0.000832383
-0.00304639
-0.00130838
-0.00341871
-0.00182165
-0.00357883
-0.00235172
-0.00361793
-0.00288551
-0.00359322
-0.00341485
-0.00353815
-0.00393416
-0.00347044
-0.00339947
-0.00443891
-0.00014621
-0.000915966
-0.000478321
-0.00199394
-0.000925236
-0.00259947
-0.00143772
-0.00290622
-0.00198302
-0.00303354
-0.00254048
-0.00306047
-0.00309781
-0.00303589
-0.003648
-0.00298795
-0.00418709
-0.00293135
-0.00287377
-0.00471279
-0.000162611
-0.000753354
-0.000524534
-0.00163202
-0.0010042
-0.00211981
-0.00154751
-0.00236291
-0.00212012
-0.00246093
-0.00270154
-0.00247905
-0.00328031
-0.00245712
-0.00385052
-0.00241775
-0.00440935
-0.00237252
-0.00232743
-0.00495569
-0.000176127
-0.000577228
-0.000562371
-0.00124578
-0.00106863
-0.00161355
-0.00163699
-0.00179455
-0.00223203
-0.00186589
-0.00283347
-0.0018776
-0.00343063
-0.00185997
-0.00401842
-0.00182995
-0.00459483
-0.00179611
-0.00176283
-0.00515942
-0.000186516
-0.000390712
-0.000591314
-0.000840977
-0.00111779
-0.00108707
-0.00170523
-0.00120711
-0.00231746
-0.00125366
-0.00293446
-0.00126061
-0.0035461
-0.00124833
-0.00414793
-0.00122812
-0.00473843
-0.00120561
-0.00118367
-0.0053176
-0.000193572
-0.00019714
-0.000610902
-0.000423647
-0.00115101
-0.000546967
-0.00175132
-0.000606797
-0.0023752
-0.000629772
-0.00300282
-0.000632999
-0.00362444
-0.000626708
-0.00423601
-0.000616548
-0.00483631
-0.000605309
-0.000594415
-0.00542556
-0.00019714
-1.23911e-10
-0.000620787
-2.48929e-10
-0.00116775
-3.09486e-10
-0.00177455
-3.34383e-10
-0.00240432
-3.42521e-10
-0.00303732
-3.43514e-10
-0.00366403
-3.41879e-10
-0.00428058
-3.39411e-10
-0.00488588
-3.36387e-10
-3.34297e-10
-0.0054803
-0.00019714
0.00019714
-0.000620787
0.000423647
-0.00116775
0.000546966
-0.00177455
0.000606796
-0.00240432
0.000629771
-0.00303732
0.000632999
-0.00366403
0.000626707
-0.00428058
0.000616547
-0.00488588
0.000605309
0.000594414
-0.0054803
-0.000193572
0.000390711
-0.000610902
0.000840976
-0.00115101
0.00108707
-0.00175132
0.00120711
-0.0023752
0.00125366
-0.00300282
0.00126061
-0.00362444
0.00124833
-0.00423601
0.00122812
-0.00483631
0.00120561
0.00118367
-0.00542556
-0.000186516
0.000577228
-0.000591314
0.00124577
-0.00111779
0.00161355
-0.00170523
0.00179455
-0.00231746
0.00186589
-0.00293446
0.0018776
-0.0035461
0.00185997
-0.00414793
0.00182995
-0.00473843
0.00179611
0.00176283
-0.0053176
-0.000176127
0.000753354
-0.000562371
0.00163202
-0.00106863
0.00211981
-0.00163699
0.00236291
-0.00223203
0.00246092
-0.00283347
0.00247905
-0.00343063
0.00245712
-0.00401842
0.00241775
-0.00459483
0.00237252
0.00232743
-0.00515942
-0.000162611
0.000915965
-0.000524534
0.00199394
-0.0010042
0.00259947
-0.00154751
0.00290622
-0.00212012
0.00303354
-0.00270154
0.00306047
-0.00328031
0.00303589
-0.00385052
0.00298795
-0.00440935
0.00293135
0.00287377
-0.00495569
-0.00014621
0.00106218
-0.000478321
0.00232605
-0.000925236
0.00304639
-0.00143772
0.00341871
-0.00198302
0.00357883
-0.00254048
0.00361793
-0.00309781
0.00359322
-0.003648
0.00353814
-0.00418709
0.00347044
0.00339947
-0.00471279
-0.000127171
0.00118935
-0.000424235
0.00262312
-0.000832383
0.00345454
-0.00130838
0.0038947
-0.00182165
0.0040921
-0.00235172
0.004148
-0.00288551
0.00412702
-0.00341485
0.00406748
-0.00393416
0.00398975
0.00390421
-0.00443891
-0.000105739
0.00129509
-0.000362726
0.0028801
-0.000726057
0.00381787
-0.00115967
0.00432832
-0.00163602
0.00456845
-0.00213539
0.00464736
-0.00264431
0.00463594
-0.00315376
0.00457694
-0.00365656
0.00449254
0.00439083
-0.00414318
-8.21694e-05
0.00137725
-0.000294215
0.00309215
-0.000606417
0.00413007
-0.000991
0.0047129
-0.00142439
0.00500185
-0.00188853
0.00511151
-0.00237044
0.00511784
-0.00286108
0.00506757
-0.00335412
0.00498559
0.00487071
-0.00383401
-5.68037e-05
0.00143406
-0.000219276
0.00325462
-0.000473544
0.00438434
-0.00080073
0.00504009
-0.00118167
0.00538279
-0.00160044
0.00553027
-0.00204575
0.00556316
-0.00251043
0.00553225
-0.00299325
0.00546841
0.00540469
-0.00352723
-3.02767e-05
0.00146434
-0.000139282
0.00336363
-0.000328779
0.00457383
-0.000588514
0.00529982
-0.000902629
0.0056969
-0.00125449
0.00588214
-0.00162956
0.00593822
-0.00201742
0.0059201
-0.00241435
0.00586534
0.00579587
-0.00280553
-3.66764e-06
0.001468
-5.72826e-05
0.00341724
-0.000177884
0.00469443
-0.000364495
0.00548643
-0.000605992
0.0059384
-0.000887455
0.0061636
-0.00119464
0.00624541
-0.00151675
0.00624222
-0.00184694
0.00619553
0.00613599
-0.00218706
2.17863e-05
0.00144622
2.31931e-05
0.00341584
-2.72849e-05
0.00474491
-0.000138613
0.00559776
-0.000305913
0.0061057
-0.000517753
0.00637544
-0.000761542
0.0064892
-0.00102665
0.00650732
-0.00130467
0.00647356
0.00641987
-0.00158855
4.51276e-05
0.00140109
9.93161e-05
0.00336165
0.000118157
0.00472607
8.27338e-05
0.00563318
-9.07254e-06
0.00619751
-0.000150113
0.00651648
-0.000329784
0.00666887
-0.000537494
0.00671503
-0.000763517
0.00669958
0.00665428
-0.000997921
6.56832e-05
0.00133541
0.000168922
0.00325841
0.000254643
0.00464035
0.000294604
0.00559322
0.000279416
0.00621269
0.000211396
0.0065845
9.87031e-05
0.00678156
-4.85081e-05
0.00686224
-0.000219718
0.00687079
0.00683882
-0.000404259
8.30012e-05
0.0012524
0.000230335
0.00311107
0.000378977
0.00449171
0.000492528
0.00547967
0.000554439
0.00615078
0.00056177
0.00657717
0.000519615
0.00682372
0.000437027
0.00694483
0.000324694
0.00698312
0.00696975
0.000193758
9.68093e-05
0.0011556
0.00028229
0.00292559
0.000488448
0.00428555
0.000672348
0.00529577
0.000810785
0.00601235
0.000895304
0.00649265
0.000927261
0.00679176
0.000913765
0.00695833
0.000864921
0.00703197
0.00704254
0.000792136
0.000106989
0.00104861
0.000323898
0.00270869
0.000580792
0.00402866
0.000830167
0.0050464
0.00104306
0.00579946
0.00120548
0.00633022
0.00131447
0.00668277
0.00137431
0.00689849
0.00139368
0.0070126
0.00705245
0.00138376
0.000113557
0.00093505
0.000354638
0.0024676
0.000654237
0.00372906
0.000962452
0.00473818
0.00124581
0.0055161
0.00148516
0.00609087
0.00167282
0.00649512
0.00180947
0.00676184
0.00190149
0.00692058
0.00699484
0.0019591
0.000116659
0.000818391
0.000374385
0.00220988
0.000707626
0.00339582
0.00106629
0.00437952
0.00141397
0.00516842
0.00172709
0.00577776
0.00199322
0.00622899
0.00220884
0.00654622
0.00237717
0.00675224
0.00686539
0.00250662
0.000116555
0.000701836
0.00038342
0.00194301
0.000740533
0.0030387
0.0011397
0.00398035
0.00154335
0.00476477
0.00192459
0.00539652
0.00226663
0.00588695
0.00256152
0.00625133
0.00280855
0.0065052
0.00666062
0.00301333
0.000113645
0.000588191
0.000382507
0.00167415
0.000753463
0.00266775
0.00118201
0.0035518
0.00163124
0.00431554
0.0020724
0.00495536
0.00248516
0.00547419
0.00285721
0.00587928
0.0031835
0.00617891
0.0063783
0.00346581
0.000108396
0.000479795
0.000372751
0.0014098
0.000747729
0.00229277
0.00119392
0.00310561
0.00167677
0.00383268
0.0021673
0.00446484
0.00264282
0.00499867
0.00308727
0.00543483
0.00349109
0.00577509
0.00601798
0.00385142
0.000101338
0.000378456
0.000355564
0.00115557
0.000725413
0.00192292
0.0011775
0.00265352
0.00168109
0.0033291
0.00220861
0.00393732
0.00273652
0.00447076
0.00324597
0.00492538
0.00372315
0.00529791
0.00558123
0.0041599
9.29967e-05
0.00028546
0.000332462
0.000916106
0.000689027
0.00156636
0.00113582
0.00220672
0.00164705
0.00281787
0.00219811
0.00338626
0.00276624
0.00390263
0.00333113
0.00436049
0.00387531
0.00475373
0.0050716
0.00438494
8.38014e-05
0.000201658
0.00030479
0.000695117
0.000640991
0.00123015
0.00107217
0.00177554
0.00157824
0.0023118
0.00213896
0.00282554
0.00273408
0.00330751
0.00334346
0.00375111
0.00394694
0.00415024
0.00449386
0.00452468
7.39965e-05
0.000127662
0.00027343
0.000495684
0.000583017
0.000920567
0.000988927
0.00136963
0.00147724
0.00182349
0.00203329
0.00226948
0.00264125
0.00269955
0.00328337
0.003109
0.00393835
0.00349526
0.00385237
0.00457984
6.35928e-05
6.40689e-05
0.000238642
0.000320635
0.000515676
0.000643533
0.000886651
0.00099866
0.00134377
0.00136637
0.00187885
0.0017344
0.00248267
0.00209573
0.0031434
0.00244828
0.00384246
0.0027962
0.00314869
0.00454614
5.24473e-05
1.16216e-05
0.000200282
0.0001728
0.000438703
0.000405111
0.000764176
0.000673188
0.00117399
0.000956557
0.00166626
0.00124213
0.00223987
0.00152211
0.00289392
0.00179423
0.00362292
0.0020672
0.00237901
0.0043926
4.05407e-05
-2.89191e-05
0.000158631
5.47097e-05
0.000352649
0.000211093
0.000621313
0.000404523
0.000963982
0.000613889
0.00138132
0.000824791
0.00187654
0.00102689
0.00245863
0.00121213
0.00315027
0.00137557
0.00152077
0.00400851
2.83939e-05
-5.7313e-05
0.000115745
-3.26413e-05
0.000262257
6.45817e-05
0.000466514
0.000200266
0.000725705
0.000354698
0.00103533
0.000515164
0.00138857
0.000673658
0.00177463
0.000826069
0.00217787
0.000972325
0.00112329
0.00257535
1.70914e-05
-7.44045e-05
7.56319e-05
-9.11817e-05
0.00017762
-3.74066e-05
0.000322136
5.57498e-05
0.000506219
0.000170615
0.000725087
0.000296296
0.000972455
0.000426291
0.00124153
0.000556997
0.00152857
0.000685281
0.000804236
0.00184763
7.4482e-06
-8.18527e-05
4.11473e-05
-0.000124881
0.000105179
-0.000101439
0.00020014
-3.92112e-05
0.000324737
4.60188e-05
0.000476595
0.000144438
0.000653103
0.000249782
0.000852572
0.000357528
0.00107549
0.000462361
0.000554386
0.00132534
-2.70772e-07
-8.15819e-05
1.32045e-05
-0.000138356
4.65698e-05
-0.000134804
0.000102249
-9.48902e-05
0.000180897
-3.26291e-05
0.00028241
4.29251e-05
0.000406716
0.000125476
0.000554385
0.000209859
0.000726521
0.000290225
0.00035867
0.000922237
-6.17459e-06
-7.54073e-05
-8.51407e-06
-0.000136017
8.91923e-07
-0.00014421
2.61228e-05
-0.000120121
6.94178e-05
-7.59241e-05
0.000132154
-1.98113e-05
0.000215429
4.22014e-05
0.00032026
0.000105028
0.000447076
0.000163409
0.000211601
0.000594145
-1.05484e-05
-6.48589e-05
-2.48957e-05
-0.000121669
-3.37891e-05
-0.000135317
-3.18837e-05
-0.000122026
-1.58796e-05
-9.19282e-05
1.63624e-05
-5.20533e-05
6.62617e-05
-7.69792e-06
0.000134584
3.67063e-05
0.000221046
7.69461e-05
0.000108998
0.000323649
-1.37053e-05
-5.11536e-05
-3.69203e-05
-9.84543e-05
-5.94735e-05
-0.000112763
-7.51728e-05
-0.000106327
-8.01116e-05
-8.69894e-05
-7.18591e-05
-6.03058e-05
-4.90595e-05
-3.04975e-05
-1.13304e-05
-1.02279e-06
4.05747e-05
2.5041e-05
4.50149e-05
0.000104558
-1.58976e-05
-3.5256e-05
-4.5379e-05
-6.89729e-05
-7.77031e-05
-8.04392e-05
-0.000106171
-7.78596e-05
-0.000126577
-6.65828e-05
-0.00013644
-5.04433e-05
-0.00013458
-3.23569e-05
-0.000120937
-1.46667e-05
-9.65339e-05
6.3834e-07
1.19294e-05
-6.34484e-05
-1.72891e-05
-1.79669e-05
-5.07911e-05
-3.54709e-05
-8.94493e-05
-4.1781e-05
-0.000126297
-4.10123e-05
-0.000157004
-3.58751e-05
-0.000179124
-2.8324e-05
-0.000191637
-1.98439e-05
-0.000194691
-1.16123e-05
-0.000189451
-4.60147e-06
4.19224e-07
-0.000177941
-1.79672e-05
-5.34389e-05
-9.52208e-05
-0.000136234
-0.00017211
-0.000200435
-0.00022028
-0.000231893
-0.000236495
-0.000236075
0.000194852
-0.000430982
5.4959e-08
0.00134901
-0.00115427
1.14458e-07
0.00253726
-0.00118824
-1.02766e-08
0.00331149
-0.000774037
-1.97479e-07
0.00397487
-0.000663128
-2.45864e-07
0.00445122
-0.000476307
-4.66285e-08
0.004887
-0.000435881
1.03088e-07
0.00520199
-0.000315233
2.40507e-07
0.00552707
-0.000325317
2.40124e-07
-0.000226313
4.17655e-09
0.000307058
-0.00091598
0.00143182
-0.00227903
0.00259359
-0.00235001
0.00335111
-0.00153156
0.00400258
-0.00131459
0.00447203
-0.000945762
0.00490304
-0.000866894
0.00521596
-0.000628144
0.00553974
-0.000649105
-0.000453234
0.000524197
-0.00150362
0.00159166
-0.00334649
0.00270193
-0.00346028
0.00342728
-0.00225692
0.00405585
-0.00194315
0.00451214
-0.00140205
0.0049341
-0.00128885
0.00524318
-0.000937228
0.00556464
-0.000970569
-0.000681528
0.000832207
-0.00223127
0.00181741
-0.0043317
0.00285403
-0.0044969
0.00353413
-0.00293702
0.00413055
-0.00253958
0.00456863
-0.00184013
0.00497816
-0.00169839
0.0052823
-0.00124137
0.0056009
-0.00128917
-0.000912238
0.00121124
-0.00311886
0.00209354
-0.00521399
0.00303834
-0.0054417
0.00366342
-0.0035621
0.00422092
-0.00309708
0.00463741
-0.00225661
0.00503241
-0.0020934
0.00533139
-0.00154035
0.00564728
-0.00160505
-0.00114681
0.00163695
-0.00416166
0.00240116
-0.0059782
0.00324095
-0.00628149
0.00380522
-0.00412637
0.00431995
-0.0036118
0.00471349
-0.00265016
0.0050934
-0.0024733
0.00538804
-0.001835
0.00570219
-0.0019192
-0.00138716
0.00208112
-0.00532054
0.00271894
-0.00661603
0.00344647
-0.00700901
0.00394859
-0.00462849
0.00441991
-0.00408312
0.00479135
-0.0030216
0.00515723
-0.00283918
0.00544953
-0.0021273
0.00576384
-0.00223351
-0.00163575
0.0025136
-0.0065088
0.00302378
-0.00712621
0.00363882
-0.00762405
0.00408221
-0.00507187
0.00451286
-0.00451377
0.00486523
-0.00337397
0.00521984
-0.00319379
0.00551295
-0.00242042
0.00583025
-0.00255081
-0.00189557
0.00291594
-0.00757711
0.00329639
-0.00750666
0.00380382
-0.00813148
0.00419553
-0.00546359
0.00459125
-0.00490949
0.00492958
-0.0037123
0.00527723
-0.00354144
0.00557538
-0.00271856
0.00589938
-0.00287481
-0.00217013
0.00329236
-0.00829412
0.00353517
-0.00774947
0.00393053
-0.00852683
0.00428125
-0.00581431
0.00464836
-0.0052766
0.0049795
-0.00404345
0.00532531
-0.00388724
0.00563427
-0.00302753
0.00596859
-0.00320913
-0.00246401
0.0434852
-0.00109001
-0.0506893
0.0392794
-0.0035437
0.0372954
-0.00654287
0.0372419
-0.00576076
0.0372679
-0.00530261
0.0376488
-0.00442438
0.038162
-0.00440038
0.0388057
-0.00367125
0.0393856
-0.0037891
-0.00308143
0.0523335
0.00313912
-0.0565626
0.0502156
-0.00142575
0.0476909
-0.00401824
0.0462156
-0.00428542
0.0450843
-0.00417133
0.044366
-0.00370612
0.0438576
-0.00389192
0.0436749
-0.00348854
0.0434474
-0.00356163
-0.00298711
0.0538624
0.00436897
-0.0550923
0.0525834
-0.000146677
0.0509845
-0.00241936
0.04968
-0.00298095
0.048558
-0.00304936
0.0476883
-0.00283642
0.0468978
-0.00310134
0.0463921
-0.00298287
0.045838
-0.00300752
-0.00253221
0.0520004
0.00424958
-0.051881
0.0515709
0.000282875
0.050714
-0.00156247
0.0498382
-0.00210516
0.0490089
-0.00222008
0.0483177
-0.00214519
0.0476088
-0.00239249
0.0470797
-0.00245373
0.046509
-0.0024369
-0.00200212
0.049956
0.00359327
-0.0492997
0.0497924
0.00044651
0.0493224
-0.00109245
0.0487621
-0.00154492
0.0481824
-0.00164031
0.0476759
-0.00163873
0.047119
-0.00183558
0.0466488
-0.00198351
0.0461548
-0.00194289
-0.00152453
0.0482638
0.00281656
-0.0474871
0.0482526
0.000457713
0.0479421
-0.000781957
0.0475433
-0.00114608
0.0471126
-0.00120961
0.0467191
-0.00124527
0.0462761
-0.00139261
0.0458555
-0.00156293
0.0454277
-0.00151503
-0.00112603
0.0470614
0.0020475
-0.0462924
0.0471194
0.000399744
0.0468801
-0.00054268
0.0465568
-0.000822702
0.0462071
-0.000859973
0.0458703
-0.000908404
0.0454919
-0.00101425
0.0450958
-0.00116687
0.0447037
-0.0011229
-0.000793675
0.0462505
0.00132721
-0.0455302
0.0463598
0.000290372
0.0461592
-0.000342102
0.04587
-0.000533491
0.0455631
-0.000553007
0.0452514
-0.000596716
0.0449036
-0.000666425
0.0445151
-0.000778381
0.0441373
-0.000745082
-0.000506825
0.0457559
0.000651152
-0.0450799
0.0458975
0.000148831
0.0457219
-0.000166509
0.045449
-0.0002606
0.045164
-0.000268088
0.044863
-0.000295679
0.0445277
-0.000331064
0.0441398
-0.000390521
0.0437661
-0.000371373
-0.000247467
0.0455213
-0.0448702
0.0456701
0.0455036
0.045243
0.0449749
0.0446793
0.0443482
0.0439577
0.0435863
0.0568015
0.00229397
-0.0560822
0.0573642
0.00290311
0.0577217
0.00349392
0.0578242
0.00405741
0.0576247
0.00458443
0.0570832
0.00506625
0.0561678
0.00549521
0.0548487
0.00586526
0.0530697
0.0061716
0.00638892
0.0513912
0.00168619
-0.0507834
0.0520436
0.00225065
0.0527268
0.00281072
0.0534229
0.00336132
0.0541106
0.00389671
0.0547662
0.00441071
0.0553645
0.00489688
0.0558809
0.00534889
0.0562915
0.00576102
0.00611775
0.0480822
0.0012124
-0.0476084
0.0486369
0.00169592
0.0492693
0.00217827
0.0499741
0.00265657
0.0507431
0.00312767
0.0515658
0.0035881
0.0524286
0.00403405
0.0533161
0.00446136
0.0542116
0.0048655
0.00523711
0.0454797
0.000886993
-0.0451543
0.0458852
0.00129049
0.0463712
0.00169223
0.0469378
0.00208998
0.047584
0.00248147
0.0483077
0.00286437
0.0491055
0.00323629
0.0499721
0.00359472
0.0509007
0.00393688
0.00425683
0.0438951
0.000648195
-0.0436563
0.0442079
0.000977685
0.0445948
0.00130529
0.0450557
0.00162914
0.0455898
0.00194737
0.046196
0.00225812
0.0468728
0.00255953
0.0476178
0.0028497
0.0484281
0.00312656
0.00338522
0.0427995
0.000466845
-0.0426181
0.0430508
0.000726409
0.0433718
0.000984196
0.0437623
0.00123869
0.0442213
0.00148839
0.0447476
0.00173179
0.0453397
0.00196744
0.0459955
0.00219386
0.0467127
0.00240944
0.0026108
0.0421074
0.000322786
-0.0419633
0.0423183
0.000515502
0.0425957
0.000706797
0.0429389
0.00089552
0.0433467
0.00108053
0.0438178
0.00126069
0.0443504
0.00143488
0.0449422
0.00160201
0.0455908
0.00176088
0.00190919
0.0416559
0.000202813
-0.0415359
0.041841
0.000330441
0.0420907
0.000457106
0.0424042
0.000582036
0.0427802
0.000704464
0.0432173
0.000823628
0.0437134
0.000938784
0.0442662
0.00104919
0.044873
0.00115406
0.00125205
0.0413918
9.75783e-05
-0.0412866
0.0415611
0.000161185
0.0417939
0.000224328
0.0420893
0.000286619
0.0424461
0.000347672
0.0428626
0.000407103
0.0433368
0.000464534
0.0438664
0.000519595
0.0444486
0.000571894
0.000620789
0.0412664
-0.0411689
0.0414276
0.0416519
0.0419386
0.0422862
0.0426933
0.0431579
0.0436775
0.0442494
0.0481252
-0.00335576
-0.047575
0.0488353
-0.00289714
0.049655
-0.00240829
0.0505449
-0.00188774
0.0514775
-0.00133689
0.0524344
-0.00076314
0.0533974
-0.000170839
0.0543448
0.000436282
0.0552505
0.00105346
0.00167491
0.0479718
-0.00340965
-0.0479179
0.0480695
-0.0029948
0.0482101
-0.00254895
0.0483994
-0.00207707
0.0486432
-0.0015806
0.0489454
-0.0010654
0.0493097
-0.000535101
0.049738
7.94593e-06
0.0502302
0.00056123
0.00112177
0.0468965
-0.00315012
-0.047156
0.0466919
-0.0027902
0.0465479
-0.00240497
0.0464699
-0.00199901
0.0464638
-0.00157453
0.0465333
-0.00113487
0.0466807
-0.000682496
0.046908
-0.00021941
0.047217
0.000252295
0.000730361
0.0455753
-0.00277333
-0.0459521
0.0452563
-0.00247125
0.0449988
-0.00214743
0.0448062
-0.00180641
0.0446818
-0.00145013
0.0446279
-0.00108097
0.0446464
-0.000700999
0.0447391
-0.000312167
0.0449079
8.35134e-05
0.00048395
0.0446559
-0.00235125
-0.045078
0.0442875
-0.0021029
0.0439775
-0.00183739
0.0437289
-0.00155782
0.0435446
-0.00126581
0.0434268
-0.000963209
0.0433775
-0.000651739
0.0433985
-0.000333097
0.043491
-9.0261e-06
0.000318682
0.0439851
-0.00190156
-0.0444348
0.0435874
-0.00170515
0.0432454
-0.00149542
0.0429623
-0.00127464
0.0427405
-0.00104405
0.0425823
-0.000805057
0.0424896
-0.000559043
0.0424639
-0.000307399
0.0425065
-5.15547e-05
0.000207026
0.0435553
-0.00143687
-0.04402
0.043141
-0.00129082
0.0427806
-0.00113505
0.042477
-0.000971069
0.0422328
-0.000799791
0.0420499
-0.000622232
0.0419303
-0.000439425
0.0418753
-0.000252423
0.0418861
-6.2311e-05
0.000129804
0.0432766
-0.000962085
-0.0437514
0.0428512
-0.000865431
0.0424786
-0.000762387
0.0421614
-0.000653891
0.0419021
-0.000540547
0.0417029
-0.000423017
0.0415655
-0.000301984
0.0414912
-0.000178151
0.0414811
-5.22425e-05
7.49987e-05
0.043116
-0.000481854
-0.0435962
0.0426844
-0.000433849
0.0423047
-0.000382674
0.0419796
-0.00032877
0.0417114
-0.000272438
0.0415024
-0.000213998
0.0413542
-0.00015379
0.0412682
-9.21625e-05
0.0412455
-2.94762e-05
3.38974e-05
0.0430421
-0.043524
0.0426083
0.0422256
0.0418968
0.0416244
0.0414104
0.0412566
0.0411644
0.041135
0.0429487
0.000174092
-0.000193909
0.042995
0.000519768
-0.000565999
0.0430725
0.000870756
-0.000948279
0.0431986
0.00123464
-0.00136077
0.0434031
0.00161669
-0.00182118
0.0437292
0.00202108
-0.00234719
0.0442353
0.00244991
-0.00295601
0.0449928
0.00290558
-0.00366299
0.0460953
0.00336402
-0.00446658
0.00391342
-0.00539311
0.0429655
0.000137546
0.0430721
0.000413095
0.0432529
0.000690042
0.043518
0.000969547
0.0438822
0.00125241
0.0443645
0.00153887
0.0449864
0.00182801
0.0457719
0.00211999
0.0467367
0.00239926
0.00273223
0.0429664
0.000100039
0.0430775
0.000302069
0.0432619
0.000505564
0.0435239
0.000707563
0.0438691
0.000907183
0.0443049
0.00110312
0.0448396
0.00129328
0.0454837
0.00147593
0.0462419
0.00164106
0.00181808
0.0429586
7.03586e-05
0.0430475
0.000213218
0.0431956
0.000357391
0.0434039
0.000499299
0.0436733
0.000637759
0.044005
0.000771485
0.0443993
0.000898904
0.0448564
0.00101882
0.0453713
0.00112622
0.00123732
0.0429506
4.87378e-05
0.0430159
0.000147857
0.0431254
0.000247871
0.0432788
0.000345885
0.0434757
0.000440859
0.0437155
0.00053175
0.043997
0.000617413
0.0443189
0.000696916
0.0446776
0.00076746
0.000836992
0.0429445
3.31896e-05
0.0429916
0.000100699
0.0430707
0.000168784
0.0431812
0.000235394
0.0433223
0.000299765
0.0434929
0.000361165
0.0436915
0.000418852
0.0439161
0.000472232
0.0441638
0.000519833
0.000565925
0.0429403
2.18327e-05
0.0429748
6.62309e-05
0.0430326
0.000110988
0.0431132
0.000154745
0.043216
0.000196988
0.0433399
0.000237232
0.0434838
0.000274999
0.0436461
0.000309898
0.0438248
0.000341101
0.000370768
0.0429375
1.32209e-05
0.0429637
4.0095e-05
0.0430075
6.71754e-05
0.0430686
9.36507e-05
0.0431464
0.000119212
0.04324
0.00014357
0.0433486
0.000166449
0.0434708
0.000187624
0.0436053
0.000206659
0.000224659
0.0429359
6.23327e-06
0.0429571
1.88991e-05
0.0429926
3.16591e-05
0.0430421
4.41343e-05
0.0431052