1.45 	0 	0 	-0.00749214 	-0.00260422 	3.84964e-21
2.35 	0 	0 	0.0628778 	-0.00668301 	2.37694e-21
