1.45 	0 	0 	-0.1982
2.35 	0 	0 	0.0114834
