1.275 	2.15223e-18 	-2.76991e-20 	-0.0325608 	-0.00049721 	-2.03052e-22
1.825 	2.15223e-18 	-1.39322e-20 	-0.00728832 	-0.00291399 	1.81565e-21
2.375 	2.15223e-18 	-2.66896e-23 	0.12562 	-0.00355353 	-7.54417e-22
