1.275 	2.15223e-18 	-2.76991e-20 	-0.304474
1.825 	2.15223e-18 	-1.39322e-20 	-0.192556
2.375 	2.15223e-18 	-2.66896e-23 	-0.164054
