/*--------------------------------*- C++ -*----------------------------------*\
  =========                 |
  \\      /  F ield         | OpenFOAM: The Open Source CFD Toolbox
   \\    /   O peration     | Website:  https://openfoam.org
    \\  /    A nd           | Version:  6.0
     \\/     M anipulation  |
\*---------------------------------------------------------------------------*/
FoamFile
{
    version     2.0;
    format      ascii;
    class       surfaceScalarField;
    location    "0.2";
    object      phi;
}
// * * * * * * * * * * * * * * * * * * * * * * * * * * * * * * * * * * * * * //

dimensions      [0 3 -1 0 0 0 0];

internalField   nonuniform List<scalar> 
3120
(
2.53953e-09
-2.53972e-09
4.09484e-09
-1.55538e-09
2.24947e-09
1.84533e-09
-3.5583e-09
5.80771e-09
-1.31385e-08
9.5803e-09
-2.59829e-08
1.28445e-08
-4.14523e-08
1.54697e-08
-5.88712e-08
1.74188e-08
-7.75719e-08
1.87007e-08
-9.69181e-08
1.93462e-08
-1.16316e-07
1.93976e-08
-1.35219e-07
1.89033e-08
-1.53134e-07
1.79144e-08
-1.69617e-07
1.64836e-08
-1.84281e-07
1.46641e-08
-1.96791e-07
1.25097e-08
-2.06865e-07
1.00745e-08
-2.14279e-07
7.41366e-09
-2.18862e-07
4.58331e-09
-2.20504e-07
1.64134e-09
-2.19151e-07
-1.35246e-09
-2.14815e-07
-4.336e-09
-2.0757e-07
-7.24488e-09
-1.97557e-07
-1.00125e-08
-1.84987e-07
-1.25706e-08
-1.70137e-07
-1.48496e-08
-1.53357e-07
-1.678e-08
-1.35064e-07
-1.82934e-08
-1.15739e-07
-1.93242e-08
-9.59279e-08
-1.98115e-08
-7.62268e-08
-1.97011e-08
-5.72785e-08
-1.89482e-08
-3.97575e-08
-1.7521e-08
-2.43509e-08
-1.54065e-08
-1.17305e-08
-1.26204e-08
-2.5019e-09
-9.22861e-09
2.89112e-09
-5.39303e-09
4.35289e-09
-1.46175e-09
2.55897e-09
1.79393e-09
2.55899e-09
1.61605e-09
-4.15539e-09
-1.17228e-09
1.2328e-09
-1.17158e-08
1.23891e-08
-3.10698e-08
2.51615e-08
-5.90329e-08
3.75432e-08
-9.4662e-08
4.84735e-08
-1.36609e-07
5.74162e-08
-1.83334e-07
6.41441e-08
-2.33239e-07
6.86057e-08
-2.84743e-07
7.08506e-08
-3.36334e-07
7.0988e-08
-3.86594e-07
6.91632e-08
-4.34222e-07
6.55432e-08
-4.78047e-07
6.03081e-08
-5.17029e-07
5.36465e-08
-5.50272e-07
4.57525e-08
-5.77023e-07
3.68255e-08
-5.96679e-07
2.70693e-08
-6.08789e-07
1.66934e-08
-6.13061e-07
5.91348e-09
-6.09365e-07
-5.04773e-09
-5.97741e-07
-1.596e-08
-5.784e-07
-2.65858e-08
-5.51732e-07
-3.66812e-08
-5.18305e-07
-4.59974e-08
-4.7887e-07
-5.42842e-08
-4.34357e-07
-6.12931e-08
-3.85867e-07
-6.67833e-08
-3.34664e-07
-7.05274e-08
-2.82156e-07
-7.23194e-08
-2.29873e-07
-7.19841e-08
-1.79433e-07
-6.93889e-08
-1.32494e-07
-6.44596e-08
-9.06966e-08
-5.7204e-08
-5.5567e-08
-4.77499e-08
-2.83817e-08
-3.64139e-08
-9.95107e-09
-2.38237e-08
-2.93077e-10
-1.11198e-08
1.85164e-09
-3.50769e-10
4.41056e-09
-1.66746e-09
-2.48822e-09
-1.21149e-08
1.16801e-08
-3.40815e-08
3.43557e-08
-6.84291e-08
5.95095e-08
-1.14745e-07
8.38588e-08
-1.71742e-07
1.05471e-07
-2.3759e-07
1.23264e-07
-3.10153e-07
1.36706e-07
-3.87161e-07
1.45614e-07
-4.66333e-07
1.50022e-07
-5.45448e-07
1.50104e-07
-6.22407e-07
1.46122e-07
-6.95264e-07
1.384e-07
-7.62253e-07
1.27296e-07
-8.21803e-07
1.13197e-07
-8.72554e-07
9.65042e-08
-9.13366e-07
7.76368e-08
-9.43322e-07
5.70252e-08
-9.61742e-07
3.51134e-08
-9.68187e-07
1.23591e-08
-9.62469e-07
-1.07657e-08
-9.44655e-07
-3.37739e-08
-9.15076e-07
-5.61646e-08
-8.74332e-07
-7.74256e-08
-8.23292e-07
-9.70375e-08
-7.63096e-07
-1.1448e-07
-6.95148e-07
-1.29241e-07
-6.21104e-07
-1.40827e-07
-5.42851e-07
-1.4878e-07
-4.62481e-07
-1.5269e-07
-3.82246e-07
-1.52219e-07
-3.04504e-07
-1.47131e-07
-2.31646e-07
-1.37317e-07
-1.65997e-07
-1.22854e-07
-1.09678e-07
-1.04068e-07
-6.44332e-08
-8.1659e-08
-3.13784e-08
-5.68786e-08
-1.06926e-08
-3.18056e-08
-1.23941e-09
-9.80394e-09
3.17105e-09
-5.5674e-09
3.07927e-09
-2.49692e-08
3.10819e-08
-5.96629e-08
6.9049e-08
-1.09824e-07
1.0967e-07
-1.74562e-07
1.48597e-07
-2.52171e-07
1.83081e-07
-3.4038e-07
2.11474e-07
-4.36574e-07
2.32899e-07
-5.37962e-07
2.47003e-07
-6.41719e-07
2.53779e-07
-7.45075e-07
2.5346e-07
-8.45391e-07
2.46438e-07
-9.40207e-07
2.33216e-07
-1.02728e-06
2.14371e-07
-1.10462e-06
1.90531e-07
-1.17047e-06
1.62361e-07
-1.22339e-06
1.30558e-07
-1.26221e-06
9.58417e-08
-1.28605e-06
5.89573e-08
-1.29437e-06
2.06733e-08
-1.28692e-06
-1.82177e-08
-1.26379e-06
-5.68995e-08
-1.22542e-06
-9.45346e-08
-1.17258e-06
-1.30269e-07
-1.10637e-06
-1.6324e-07
-1.02827e-06
-1.92587e-07
-9.40043e-07
-2.17466e-07
-8.43799e-07
-2.37071e-07
-7.41922e-07
-2.50657e-07
-6.37042e-07
-2.5757e-07
-5.31978e-07
-2.57283e-07
-4.29668e-07
-2.4944e-07
-3.33073e-07
-2.33912e-07
-2.45055e-07
-2.10872e-07
-1.68225e-07
-1.80898e-07
-1.04761e-07
-1.45123e-07
-5.61798e-08
-1.0546e-07
-2.30949e-08
-6.48906e-08
-4.98586e-09
-2.79129e-08
-1.81482e-09
-9.46467e-09
1.25439e-08
-3.81571e-08
5.97745e-08
-8.60372e-08
1.16929e-07
-1.52319e-07
1.75952e-07
-2.35435e-07
2.31713e-07
-3.33149e-07
2.80794e-07
-4.42722e-07
3.21047e-07
-5.6109e-07
3.51268e-07
-6.85019e-07
3.70932e-07
-8.11231e-07
3.79991e-07
-9.36513e-07
3.78741e-07
-1.05779e-06
3.67717e-07
-1.1722e-06
3.47622e-07
-1.27711e-06
3.19279e-07
-1.37017e-06
2.83598e-07
-1.44936e-06
2.4155e-07
-1.51296e-06
1.94153e-07
-1.55959e-06
1.4247e-07
-1.58823e-06
8.75982e-08
-1.59823e-06
3.06733e-08
-1.58931e-06
-2.71351e-08
-1.56158e-06
-8.46237e-08
-1.51556e-06
-1.4056e-07
-1.45214e-06
-1.9369e-07
-1.37263e-06
-2.42748e-07
-1.27874e-06
-2.86477e-07
-1.17256e-06
-3.23648e-07
-1.05654e-06
-3.53093e-07
-9.33456e-07
-3.73736e-07
-8.06383e-07
-3.84643e-07
-6.78597e-07
-3.8507e-07
-5.53508e-07
-3.74528e-07
-4.34556e-07
-3.52864e-07
-3.25075e-07
-3.20353e-07
-2.28144e-07
-2.77829e-07
-1.4641e-07
-2.26856e-07
-8.19109e-08
-1.6996e-07
-3.59015e-08
-1.109e-07
-8.75288e-09
-5.50614e-08
-1.05676e-08
-1.31559e-08
2.56997e-08
-5.10014e-08
9.76202e-08
-1.12037e-07
1.77964e-07
-1.94404e-07
2.58319e-07
-2.9573e-07
3.33039e-07
-4.13151e-07
3.98215e-07
-5.43411e-07
4.51307e-07
-6.82987e-07
4.90844e-07
-8.28222e-07
5.16166e-07
-9.75439e-07
5.27209e-07
-1.12104e-06
5.24347e-07
-1.26161e-06
5.0828e-07
-1.39392e-06
4.79935e-07
-1.51505e-06
4.40411e-07
-1.62238e-06
3.90928e-07
-1.71363e-06
3.32797e-07
-1.78688e-06
2.67399e-07
-1.84058e-06
1.96176e-07
-1.8736e-06
1.20621e-07
-1.88521e-06
4.22797e-08
-1.87509e-06
-3.72584e-08
-1.84335e-06
-1.16357e-07
-1.79057e-06
-1.93344e-07
-1.71774e-06
-2.66516e-07
-1.62633e-06
-3.34162e-07
-1.51823e-06
-3.94579e-07
-1.39577e-06
-4.4611e-07
-1.26168e-06
-4.87179e-07
-1.11907e-06
-5.16343e-07
-9.71368e-07
-5.32348e-07
-8.22234e-07
-5.34204e-07
-6.75497e-07
-5.21266e-07
-5.35031e-07
-4.9333e-07
-4.04628e-07
-4.50755e-07
-2.87855e-07
-3.94602e-07
-1.87896e-07
-3.26815e-07
-1.07411e-07
-2.50444e-07
-4.84307e-08
-1.69881e-07
-1.23306e-08
-9.11615e-08
-2.28981e-08
-1.66015e-08
4.2301e-08
-6.3277e-08
1.44296e-07
-1.372e-07
2.51887e-07
-2.35428e-07
3.56548e-07
-3.54721e-07
4.52332e-07
-4.91517e-07
5.35011e-07
-6.41985e-07
6.01775e-07
-8.02119e-07
6.50978e-07
-9.67837e-07
6.81884e-07
-1.13508e-06
6.94456e-07
-1.29992e-06
6.89188e-07
-1.45862e-06
6.6697e-07
-1.60767e-06
6.28987e-07
-1.7439e-06
5.7664e-07
-1.86446e-06
5.11488e-07
-1.96687e-06
4.35215e-07
-2.04907e-06
3.49592e-07
-2.10937e-06
2.56474e-07
-2.14653e-06
1.57782e-07
-2.15974e-06
5.54992e-08
-2.14868e-06
-4.83277e-08
-2.11344e-06
-1.51598e-07
-2.05462e-06
-2.52162e-07
-1.9733e-06
-3.47835e-07
-1.87104e-06
-4.3642e-07
-1.74989e-06
-5.15731e-07
-1.61236e-06
-5.83643e-07
-1.4614e-06
-6.38131e-07
-1.30041e-06
-6.77342e-07
-1.13309e-06
-6.99666e-07
-9.63464e-07
-7.03826e-07
-7.9575e-07
-6.8898e-07
-6.34245e-07
-6.54835e-07
-4.83215e-07
-6.01786e-07
-3.46752e-07
-5.31065e-07
-2.28645e-07
-4.44923e-07
-1.3226e-07
-3.4683e-07
-6.04714e-08
-2.41669e-07
-1.56809e-08
-1.35952e-07
-3.8579e-08
-1.98306e-08
6.21315e-08
-7.49886e-08
1.99454e-07
-1.61465e-07
3.38363e-07
-2.75266e-07
4.7035e-07
-4.12262e-07
5.89328e-07
-5.68148e-07
6.90897e-07
-7.38477e-07
7.72104e-07
-9.18726e-07
8.31226e-07
-1.10438e-06
8.67534e-07
-1.291e-06
8.8108e-07
-1.47434e-06
8.72525e-07
-1.65036e-06
8.42997e-07
-1.81535e-06
7.9397e-07
-1.96589e-06
7.27183e-07
-2.09897e-06
6.44565e-07
-2.21195e-06
5.48196e-07
-2.30262e-06
4.40267e-07
-2.36921e-06
3.23066e-07
-2.4104e-06
1.98964e-07
-2.42531e-06
7.04107e-08
-2.41356e-06
-6.00725e-08
-2.37527e-06
-1.89894e-07
-2.31103e-06
-3.16404e-07
-2.22195e-06
-4.36907e-07
-2.10968e-06
-5.48689e-07
-1.97636e-06
-6.49051e-07
-1.82465e-06
-7.35358e-07
-1.65768e-06
-8.051e-07
-1.47905e-06
-8.55969e-07
-1.29277e-06
-8.8595e-07
-1.10316e-06
-8.9343e-07
-9.1483e-07
-8.77312e-07
-7.32506e-07
-8.37159e-07
-5.60957e-07
-7.73335e-07
-4.04852e-07
-6.8717e-07
-2.68642e-07
-5.81132e-07
-1.56459e-07
-4.59013e-07
-7.20588e-08
-3.2607e-07
-1.88408e-08
-1.8917e-07
-5.74199e-08
-2.28958e-08
8.50271e-08
-8.6242e-08
2.628e-07
-1.84966e-07
4.37087e-07
-3.1407e-07
5.99454e-07
-4.68532e-07
7.4379e-07
-6.43279e-07
8.65644e-07
-8.33215e-07
9.6204e-07
-1.03327e-06
1.03128e-06
-1.23848e-06
1.07274e-06
-1.44403e-06
1.08663e-06
-1.64535e-06
1.07385e-06
-1.83816e-06
1.0358e-06
-2.0185e-06
9.74315e-07
-2.18281e-06
8.9149e-07
-2.3279e-06
7.8966e-07
-2.45104e-06
6.71326e-07
-2.54989e-06
5.3912e-07
-2.62261e-06
3.95783e-07
-2.66779e-06
2.44151e-07
-2.68453e-06
8.71513e-08
-2.6724e-06
-7.22031e-08
-2.63148e-06
-2.30817e-07
-2.56236e-06
-3.85522e-07
-2.46618e-06
-5.33094e-07
-2.34459e-06
-6.70277e-07
-2.19981e-06
-7.93828e-07
-2.0346e-06
-9.0057e-07
-1.85224e-06
-9.87462e-07
-1.65651e-06
-1.05169e-06
-1.45167e-06
-1.09079e-06
-1.24237e-06
-1.10274e-06
-1.03356e-06
-1.08611e-06
-8.30457e-07
-1.04027e-06
-6.3835e-07
-9.65442e-07
-4.62537e-07
-8.62984e-07
-3.08184e-07
-7.35485e-07
-1.80234e-07
-5.86963e-07
-8.33416e-08
-4.22962e-07
-2.18747e-08
-2.50637e-07
-7.92946e-08
-2.58528e-08
1.1088e-07
-9.71791e-08
3.34126e-07
-2.07924e-07
5.47831e-07
-3.52126e-07
7.43656e-07
-5.23874e-07
9.15539e-07
-7.17313e-07
1.05908e-06
-9.26672e-07
1.1714e-06
-1.14631e-06
1.25093e-06
-1.3708e-06
1.29723e-06
-1.59495e-06
1.31077e-06
-1.81387e-06
1.29277e-06
-2.02304e-06
1.24497e-06
-2.21831e-06
1.16959e-06
-2.39596e-06
1.06914e-06
-2.5527e-06
9.46397e-07
-2.68568e-06
8.04303e-07
-2.7925e-06
6.45949e-07
-2.87126e-06
4.74541e-07
-2.9205e-06
2.93389e-07
-2.93925e-06
1.05905e-07
-2.92705e-06
-8.44037e-08
-2.88394e-06
-2.73931e-07
-2.81048e-06
-4.58983e-07
-2.70778e-06
-6.35792e-07
-2.57751e-06
-8.00546e-07
-2.42191e-06
-9.49428e-07
-2.2438e-06
-1.07868e-06
-2.04656e-06
-1.1847e-06
-1.83414e-06
-1.26411e-06
-1.61103e-06
-1.31391e-06
-1.38216e-06
-1.3316e-06
-1.15291e-06
-1.31537e-06
-9.28923e-07
-1.26425e-06
-7.16094e-07
-1.17827e-06
-5.20383e-07
-1.0587e-06
-3.47723e-07
-9.08145e-07
-2.03908e-07
-7.30777e-07
-9.45137e-08
-5.32356e-07
-2.48536e-08
-3.20297e-07
-1.04148e-07
-2.8754e-08
1.39634e-07
-1.07947e-07
4.13319e-07
-2.30586e-07
6.70471e-07
-3.89768e-07
9.02838e-07
-5.78697e-07
1.10447e-06
-7.90717e-07
1.2711e-06
-1.01936e-06
1.40005e-06
-1.25842e-06
1.48998e-06
-1.50196e-06
1.54077e-06
-1.74441e-06
1.55323e-06
-1.98059e-06
1.52895e-06
-2.20574e-06
1.47012e-06
-2.41555e-06
1.3794e-06
-2.60618e-06
1.25976e-06
-2.77422e-06
1.11445e-06
-2.91679e-06
9.46867e-07
-3.03143e-06
7.6059e-07
-3.11618e-06
5.59292e-07
-3.16955e-06
3.4676e-07
-3.19053e-06
1.26887e-07
-3.17861e-06
-9.63283e-08
-3.13377e-06
-3.18774e-07
-3.05652e-06
-5.3623e-07
-2.94793e-06
-7.44382e-07
-2.80963e-06
-9.38845e-07
-2.64385e-06
-1.11521e-06
-2.45342e-06
-1.26911e-06
-2.24181e-06
-1.39632e-06
-2.01308e-06
-1.49283e-06
-1.77193e-06
-1.55505e-06
-1.5236e-06
-1.57993e-06
-1.27383e-06
-1.56514e-06
-1.02879e-06
-1.50929e-06
-7.94972e-07
-1.41209e-06
-5.7905e-07
-1.27462e-06
-3.87778e-07
-1.09942e-06
-2.27848e-07
-8.90707e-07
-1.05781e-07
-6.54423e-07
-2.7847e-08
-3.98232e-07
-1.31995e-07
-3.16456e-08
1.7128e-07
-1.18683e-07
5.00356e-07
-2.53195e-07
8.04982e-07
-4.27335e-07
1.07698e-06
-6.33412e-07
1.31054e-06
-8.63955e-07
1.50165e-06
-1.11179e-06
1.64788e-06
-1.37009e-06
1.74828e-06
-1.63244e-06
1.80312e-06
-1.89289e-06
1.81368e-06
-2.14596e-06
1.78202e-06
-2.38669e-06
1.71085e-06
-2.61062e-06
1.60333e-06
-2.8138e-06
1.46294e-06
-2.9928e-06
1.29344e-06
-3.14466e-06
1.09873e-06
-3.26693e-06
8.82862e-07
-3.35762e-06
6.49984e-07
-3.41522e-06
4.04354e-07
-3.43867e-06
1.50334e-07
-3.4274e-06
-1.07597e-07
-3.38133e-06
-3.64836e-07
-3.30092e-06
-6.16647e-07
-3.18713e-06
-8.58171e-07
-3.04153e-06
-1.08445e-06
-2.86628e-06
-1.29046e-06
-2.66421e-06
-1.47119e-06
-2.43879e-06
-1.62173e-06
-2.1942e-06
-1.73742e-06
-1.9353e-06
-1.81396e-06
-1.66761e-06
-1.84763e-06
-1.39726e-06
-1.83549e-06
-1.13094e-06
-1.7756e-06
-8.75775e-07
-1.66725e-06
-6.39217e-07
-1.51117e-06
-4.28884e-07
-1.30975e-06
-2.52422e-07
-1.06717e-06
-1.17348e-07
-7.89497e-07
-3.09199e-08
-4.8466e-07
-1.62915e-07
-3.45676e-08
2.05847e-07
-1.29514e-07
5.95303e-07
-2.75974e-07
9.51443e-07
-4.65141e-07
1.26615e-06
-6.88402e-07
1.5338e-06
-9.37446e-07
1.75069e-06
-1.20436e-06
1.91479e-06
-1.48171e-06
2.02563e-06
-1.76258e-06
2.08399e-06
-2.04064e-06
2.09174e-06
-2.31015e-06
2.05152e-06
-2.56593e-06
1.96664e-06
-2.80344e-06
1.84083e-06
-3.01866e-06
1.67817e-06
-3.20814e-06
1.48292e-06
-3.36893e-06
1.25952e-06
-3.49858e-06
1.01251e-06
-3.59511e-06
7.46513e-07
-3.65699e-06
4.66233e-07
-3.68314e-06
1.76485e-07
-3.67294e-06
-1.17799e-07
-3.62623e-06
-4.11547e-07
-3.54335e-06
-6.99529e-07
-3.42516e-06
-9.76355e-07
-3.27312e-06
-1.23649e-06
-3.08928e-06
-1.47429e-06
-2.87639e-06
-1.68408e-06
-2.6379e-06
-1.86022e-06
-2.37804e-06
-1.99729e-06
-2.10178e-06
-2.09021e-06
-1.81492e-06
-2.13449e-06
-1.52397e-06
-2.12644e-06
-1.23615e-06
-2.06343e-06
-9.59253e-07
-1.94415e-06
-7.01537e-07
-1.76889e-06
-4.71559e-07
-1.53973e-06
-2.77986e-07
-1.26074e-06
-1.29406e-07
-9.38078e-07
-3.41328e-08
-5.79933e-07
-1.97048e-07
-3.75553e-08
2.43403e-07
-1.40552e-07
6.98299e-07
-2.99129e-07
1.11002e-06
-5.03473e-07
1.47049e-06
-7.44006e-07
1.77434e-06
-1.01154e-06
2.01823e-06
-1.29741e-06
2.20066e-06
-1.59355e-06
2.32176e-06
-1.89254e-06
2.38299e-06
-2.18768e-06
2.38688e-06
-2.47298e-06
2.33682e-06
-2.74313e-06
2.23679e-06
-2.99349e-06
2.09119e-06
-3.22004e-06
1.90472e-06
-3.41936e-06
1.68224e-06
-3.58855e-06
1.42871e-06
-3.7252e-06
1.14916e-06
-3.82737e-06
8.48682e-07
-3.89354e-06
5.32405e-07
-3.92261e-06
2.05563e-07
-3.91392e-06
-1.26495e-07
-3.8672e-06
-4.58264e-07
-3.78268e-06
-7.84054e-07
-3.66106e-06
-1.09797e-06
-3.50363e-06
-1.39392e-06
-3.31229e-06
-1.66563e-06
-3.08964e-06
-1.90673e-06
-2.83904e-06
-2.11081e-06
-2.56471e-06
-2.27162e-06
-2.27172e-06
-2.3832e-06
-1.96605e-06
-2.44015e-06
-1.65461e-06
-2.43789e-06
-1.34511e-06
-2.37292e-06
-1.04608e-06
-2.24319e-06
-7.66616e-07
-2.04835e-06
-5.16291e-07
-1.79005e-06
-3.04881e-07
-1.47215e-06
-1.42139e-07
-1.10082e-06
-3.7542e-08
-6.84529e-07
-2.3459e-07
-4.06408e-08
2.84044e-07
-1.519e-07
8.09559e-07
-3.22846e-07
1.28097e-06
-5.42586e-07
1.69023e-06
-8.00519e-07
2.03227e-06
-1.08654e-06
2.30425e-06
-1.39117e-06
2.5053e-06
-1.7057e-06
2.63629e-06
-2.02224e-06
2.69952e-06
-2.33372e-06
2.69837e-06
-2.63394e-06
2.63704e-06
-2.91749e-06
2.52034e-06
-3.17971e-06
2.35341e-06
-3.41662e-06
2.14164e-06
-3.62489e-06
1.89051e-06
-3.80172e-06
1.60554e-06
-3.9448e-06
1.29224e-06
-4.05226e-06
9.56145e-07
-4.12264e-06
6.0278e-07
-4.15483e-06
2.37751e-07
-4.1481e-06
-1.33226e-07
-4.1021e-06
-5.04265e-07
-4.01689e-06
-8.69264e-07
-3.89299e-06
-1.22187e-06
-3.73147e-06
-1.55544e-06
-3.534e-06
-1.86311e-06
-3.30296e-06
-2.13777e-06
-3.04155e-06
-2.37222e-06
-2.75388e-06
-2.55929e-06
-2.44505e-06
-2.69203e-06
-2.12121e-06
-2.764e-06
-1.78955e-06
-2.76954e-06
-1.45835e-06
-2.70412e-06
-1.13682e-06
-2.56472e-06
-8.34998e-07
-2.35017e-06
-5.63534e-07
-2.06152e-06
-3.33424e-07
-1.70226e-06
-1.5572e-07
-1.27853e-06
-4.12009e-08
-7.99048e-07
-2.75791e-07
-4.38544e-08
3.27898e-07
-1.63657e-07
9.29361e-07
-3.47301e-07
1.46461e-06
-5.82716e-07
1.92564e-06
-8.58192e-07
2.30775e-06
-1.16263e-06
2.60868e-06
-1.48573e-06
2.82839e-06
-1.81811e-06
2.96867e-06
-2.15138e-06
3.0328e-06
-2.47818e-06
3.02517e-06
-2.79213e-06
2.95099e-06
-3.08776e-06
2.81597e-06
-3.36048e-06
2.62613e-06
-3.60644e-06
2.38759e-06
-3.82244e-06
2.10651e-06
-4.00586e-06
1.78896e-06
-4.15455e-06
1.44093e-06
-4.26677e-06
1.06836e-06
-4.34112e-06
6.77135e-07
-4.37654e-06
2.73166e-07
-4.37224e-06
-1.37526e-07
-4.32776e-06
-5.48745e-07
-4.24298e-06
-9.54042e-07
-4.11819e-06
-1.34665e-06
-3.95417e-06
-1.71946e-06
-3.75228e-06
-2.06499e-06
-3.51462e-06
-2.37543e-06
-3.24411e-06
-2.64273e-06
-2.94466e-06
-2.85873e-06
-2.62129e-06
-3.0154e-06
-2.28022e-06
-3.10507e-06
-1.92894e-06
-3.12082e-06
-1.57619e-06
-3.05687e-06
-1.23193e-06
-2.90898e-06
-9.07155e-07
-2.67495e-06
-6.137e-07
-2.35497e-06
-3.63918e-07
-1.95205e-06
-1.70317e-07
-1.47213e-06
-4.51618e-08
-9.24203e-07
-3.20953e-07
-4.7228e-08
3.75126e-07
-1.75925e-07
1.05806e-06
-3.72672e-07
1.66136e-06
-6.24091e-07
2.17706e-06
-9.17252e-07
2.60091e-06
-1.23998e-06
2.93142e-06
-1.58109e-06
3.1695e-06
-1.93053e-06
3.3181e-06
-2.27943e-06
3.3817e-06
-2.62015e-06
3.36589e-06
-2.9462e-06
3.27704e-06
-3.25217e-06
3.12194e-06
-3.53359e-06
2.90755e-06
-3.78682e-06
2.64082e-06
-4.00892e-06
2.3286e-06
-4.19751e-06
1.97754e-06
-4.35066e-06
1.59409e-06
-4.46684e-06
1.18454e-06
-4.54477e-06
7.55064e-07
-4.58343e-06
3.11824e-07
-4.58201e-06
-1.38945e-07
-4.53993e-06
-5.90823e-07
-4.45687e-06
-1.0371e-06
-4.33283e-06
-1.47069e-06
-4.16825e-06
-1.88405e-06
-3.96409e-06
-2.26915e-06
-3.72203e-06
-2.61749e-06
-3.44463e-06
-2.92014e-06
-3.13547e-06
-3.16789e-06
-2.79938e-06
-3.3515e-06
-2.44253e-06
-3.46192e-06
-2.07259e-06
-3.49076e-06
-1.69876e-06
-3.4307e-06
-1.33172e-06
-3.27603e-06
-9.83482e-07
-3.02318e-06
-6.67172e-07
-2.67128e-06
-3.96654e-07
-2.22256e-06
-1.86096e-07
-1.68268e-06
-4.94772e-08
-1.06082e-06
-3.7043e-07
-5.07969e-08
4.25923e-07
-1.88817e-07
1.19608e-06
-3.99152e-07
1.87169e-06
-6.6695e-07
2.44486e-06
-9.77915e-07
2.91187e-06
-1.3187e-06
3.2722e-06
-1.67715e-06
3.52796e-06
-2.04254e-06
3.68349e-06
-2.40554e-06
3.7447e-06
-2.75832e-06
3.71866e-06
-3.09435e-06
3.61307e-06
-3.40835e-06
3.43595e-06
-3.69611e-06
3.19531e-06
-3.95432e-06
2.89903e-06
-4.18037e-06
2.55465e-06
-4.37224e-06
2.16941e-06
-4.52833e-06
1.75018e-06
-4.64735e-06
1.30356e-06
-4.72821e-06
8.3593e-07
-4.76999e-06
3.53605e-07
-4.77187e-06
-1.37066e-07
-4.73315e-06
-6.29548e-07
-4.65327e-06
-1.11698e-06
-4.53191e-06
-1.59205e-06
-4.36908e-06
-2.04688e-06
-4.16527e-06
-2.47297e-06
-3.92162e-06
-2.86114e-06
-3.64016e-06
-3.2016e-06
-3.32401e-06
-3.48404e-06
-2.97764e-06
-3.69787e-06
-2.60704e-06
-3.83251e-06
-2.21996e-06
-3.87784e-06
-1.82593e-06
-3.82472e-06
-1.43635e-06
-3.66561e-06
-1.0643e-06
-3.39524e-06
-7.24299e-07
-3.01128e-06
-4.31918e-07
-2.51494e-06
-2.03227e-07
-1.91138e-06
-5.42024e-08
-1.20985e-06
-4.24632e-07
-5.46047e-08
4.80528e-07
-2.02468e-07
1.34394e-06
-4.26972e-07
2.0962e-06
-7.11565e-07
2.72945e-06
-1.04041e-06
3.24072e-06
-1.39884e-06
3.63062e-06
-1.77369e-06
3.90282e-06
-2.15352e-06
4.06331e-06
-2.52862e-06
4.1198e-06
-2.89099e-06
4.08103e-06
-3.23422e-06
3.9563e-06
-3.55329e-06
3.75501e-06
-3.84437e-06
3.48639e-06
-4.10459e-06
3.15925e-06
-4.33185e-06
2.78191e-06
-4.52458e-06
2.36214e-06
-4.6816e-06
1.9072e-06
-4.80196e-06
1.42392e-06
-4.88484e-06
9.18809e-07
-4.92944e-06
3.98206e-07
-4.93497e-06
-1.31543e-07
-4.9006e-06
-6.63916e-07
-4.82554e-06
-1.19204e-06
-4.70909e-06
-1.7085e-06
-4.55077e-06
-2.20521e-06
-4.35046e-06
-2.67328e-06
-4.10866e-06
-3.10294e-06
-3.8267e-06
-3.48355e-06
-3.50706e-06
-3.80368e-06
-3.15364e-06
-4.05128e-06
-2.77209e-06
-4.21406e-06
-2.37003e-06
-4.2799e-06
-1.95726e-06
-4.2375e-06
-1.5458e-06
-4.07707e-06
-1.14983e-06
-3.79121e-06
-7.85405e-07
-3.3757e-06
-4.70001e-07
-2.83035e-06
-2.21891e-07
-2.15949e-06
-5.93984e-08
-1.37234e-06
-4.84031e-07
-5.87077e-08
5.39236e-07
-2.17054e-07
1.50229e-06
-4.56418e-07
2.33556e-06
-7.58273e-07
3.03131e-06
-1.105e-06
3.58744e-06
-1.48046e-06
4.00608e-06
-1.8704e-06
4.29276e-06
-2.26266e-06
4.45557e-06
-2.64719e-06
4.50433e-06
-3.01598e-06
4.44982e-06
-3.36285e-06
4.30317e-06
-3.68322e-06
4.07538e-06
-3.97379e-06
3.77697e-06
-4.23233e-06
3.41779e-06
-4.45735e-06
3.00693e-06
-4.64789e-06
2.55268e-06
-4.80329e-06
2.06261e-06
-4.92306e-06
1.54369e-06
-5.00668e-06
1.00244e-06
-5.05358e-06
4.45098e-07
-5.06299e-06
-1.22131e-07
-5.03401e-06
-6.92898e-07
-4.96558e-06
-1.26047e-06
-4.85658e-06
-1.81749e-06
-4.70596e-06
-2.35582e-06
-4.51292e-06
-2.86632e-06
-4.27713e-06
-3.33873e-06
-3.99906e-06
-3.76162e-06
-3.68033e-06
-4.12241e-06
-3.32406e-06
-4.40755e-06
-2.93528e-06
-4.60284e-06
-2.5213e-06
-4.69389e-06
-2.09196e-06
-4.66683e-06
-1.65984e-06
-4.50918e-06
-1.24022e-06
-4.21083e-06
-8.508e-07
-3.76513e-06
-5.11213e-07
-3.16994e-06
-2.4229e-07
-2.42841e-06
-6.51348e-08
-1.54949e-06
-5.49165e-07
-6.31813e-08
6.02417e-07
-2.32805e-07
1.67191e-06
-4.87869e-07
2.59062e-06
-8.07504e-07
3.35094e-06
-1.17201e-06
3.95195e-06
-1.5636e-06
4.39767e-06
-1.96683e-06
4.69599e-06
-2.36885e-06
4.85759e-06
-2.75937e-06
4.89485e-06
-3.13053e-06
4.82098e-06
-3.47656e-06
4.64921e-06
-3.79351e-06
4.39233e-06
-4.07885e-06
4.06231e-06
-4.33113e-06
3.67007e-06
-4.54967e-06
3.22547e-06
-4.73424e-06
2.73725e-06
-4.88487e-06
2.21323e-06
-5.00158e-06
1.6604e-06
-5.08429e-06
1.08515e-06
-5.13267e-06
4.93479e-07
-5.14608e-06
-1.0873e-07
-5.12351e-06
-7.15468e-07
-5.06365e-06
-1.32032e-06
-4.96495e-06
-1.9162e-06
-4.82571e-06
-2.49507e-06
-4.64431e-06
-3.04771e-06
-4.4195e-06
-3.56355e-06
-4.15067e-06
-4.03045e-06
-3.83831e-06
-4.43476e-06
-3.4845e-06
-4.76136e-06
-3.09336e-06
-4.99399e-06
-2.67157e-06
-5.11569e-06
-2.22879e-06
-5.10961e-06
-1.778e-06
-4.95997e-06
-1.33551e-06
-4.65332e-06
-9.20783e-07
-4.17985e-06
-5.55895e-07
-3.53482e-06
-2.64661e-07
-2.71964e-06
-7.14958e-08
-1.74266e-06
-6.20661e-07
-6.81288e-08
6.70546e-07
-2.50034e-07
1.85382e-06
-5.21829e-07
2.86242e-06
-8.59823e-07
3.68894e-06
-1.24187e-06
4.334e-06
-1.6483e-06
4.80409e-06
-2.0624e-06
5.1101e-06
-2.47069e-06
5.26588e-06
-2.86279e-06
5.28696e-06
-3.23118e-06
5.18936e-06
-3.57077e-06
4.9888e-06
-3.8785e-06
4.70005e-06
-4.15281e-06
4.33662e-06
-4.39328e-06
3.91055e-06
-4.60021e-06
3.43239e-06
-4.77428e-06
2.91132e-06
-4.9163e-06
2.35525e-06
-5.02695e-06
1.77106e-06
-5.10665e-06
1.16485e-06
-5.1554e-06
5.42228e-07
-5.1727e-06
-9.14301e-08
-5.15752e-06
-7.3065e-07
-5.10829e-06
-1.36955e-06
-5.023e-06
-2.00149e-06
-4.89926e-06
-2.6188e-06
-4.73456e-06
-3.21241e-06
-4.52653e-06
-3.77158e-06
-4.2733e-06
-4.28368e-06
-3.97399e-06
-4.73407e-06
-3.62927e-06
-5.10608e-06
-3.242e-06
-5.38126e-06
-2.81786e-06
-5.53983e-06
-2.366e-06
-5.56147e-06
-1.89949e-06
-5.42647e-06
-1.43561e-06
-5.11721e-06
-9.95655e-07
-4.61981e-06
-6.04445e-07
-3.92603e-06
-2.89291e-07
-3.0348e-06
-7.85864e-08
-1.95336e-06
-6.99248e-07
-7.36934e-08
7.44239e-07
-2.69168e-07
2.04929e-06
-5.58974e-07
3.15223e-06
-9.15974e-07
4.04594e-06
-1.31511e-06
4.73314e-06
-1.73456e-06
5.22354e-06
-2.1563e-06
5.53184e-06
-2.56631e-06
5.67589e-06
-2.95437e-06
5.67501e-06
-3.31357e-06
5.54857e-06
-3.63984e-06
5.31506e-06
-3.93127e-06
4.99148e-06
-4.18759e-06
4.59294e-06
-4.40963e-06
4.13259e-06
-4.59887e-06
3.62164e-06
-4.75707e-06
3.06952e-06
-4.88594e-06
2.48412e-06
-4.98694e-06
1.87205e-06
-5.06106e-06
1.23897e-06
-5.1087e-06
5.89873e-07
-5.12959e-06
-7.05495e-08
-5.12267e-06
-7.37564e-07
-5.08618e-06
-1.40604e-06
-5.01763e-06
-2.07004e-06
-4.91394e-06
-2.7225e-06
-4.77161e-06
-3.35473e-06
-4.58705e-06
-3.95614e-06
-4.35689e-06
-4.51383e-06
-4.07861e-06
-5.01235e-06
-3.75112e-06
-5.43357e-06
-3.37557e-06
-5.75682e-06
-2.95617e-06
-5.95923e-06
-2.50108e-06
-6.01656e-06
-2.02312e-06
-5.90443e-06
-1.54028e-06
-5.60005e-06
-1.07573e-06
-5.08436e-06
-6.57345e-07
-4.34442e-06
-3.16545e-07
-3.3756e-06
-8.6543e-08
-2.18337e-06
-7.85791e-07
-8.00753e-08
8.24314e-07
-2.90792e-07
2.26001e-06
-6.00214e-07
3.46165e-06
-9.76923e-07
4.42264e-06
-1.39237e-06
5.14859e-06
-1.82229e-06
5.65346e-06
-2.24736e-06
5.9569e-06
-2.65322e-06
6.08175e-06
-3.0301e-06
6.05189e-06
-3.37216e-06
5.89063e-06
-3.67668e-06
5.61959e-06
-3.94334e-06
5.25813e-06
-4.17343e-06
4.82303e-06
-4.36929e-06
4.32846e-06
-4.5338e-06
3.78615e-06
-4.66993e-06
3.20564e-06
-4.78042e-06
2.59462e-06
-4.8676e-06
1.95923e-06
-4.9331e-06
1.30447e-06
-4.9778e-06
6.34572e-07
-5.00167e-06
-4.6676e-08
-5.00375e-06
-7.35489e-07
-4.98207e-06
-1.42771e-06
-4.93374e-06
-2.11837e-06
-4.85497e-06
-2.80127e-06
-4.74126e-06
-3.46844e-06
-4.58766e-06
-4.10974e-06
-4.38918e-06
-4.71231e-06
-4.14134e-06
-5.26019e-06
-3.8409e-06
-5.73402e-06
-3.48679e-06
-6.11093e-06
-3.08119e-06
-6.36483e-06
-2.63064e-06
-6.46711e-06
-2.14716e-06
-6.38791e-06
-1.64907e-06
-6.09814e-06
-1.16133e-06
-5.57209e-06
-7.15195e-07
-4.79056e-06
-3.46901e-07
-3.74389e-06
-9.55479e-08
-2.43472e-06
-8.81339e-07
-8.75559e-08
9.1187e-07
-3.15712e-07
2.48816e-06
-6.46762e-07
3.7927e-06
-1.0439e-06
4.81978e-06
-1.47437e-06
5.57907e-06
-1.91121e-06
6.09029e-06
-2.33384e-06
6.37953e-06
-2.72793e-06
6.47585e-06
-3.08468e-06
6.40864e-06
-3.39979e-06
6.20574e-06
-3.67245e-06
5.89225e-06
-3.90429e-06
5.48998e-06
-4.09856e-06
5.0173e-06
-4.25937e-06
4.48927e-06
-4.39116e-06
3.91793e-06
-4.49824e-06
3.31272e-06
-4.58451e-06
2.68088e-06
-4.65316e-06
2.02788e-06
-4.70657e-06
1.35789e-06
-4.74612e-06
6.74119e-07
-4.77211e-06
-2.06911e-08
-4.78368e-06
-7.2392e-07
-4.77878e-06
-1.43261e-06
-4.75415e-06
-2.143e-06
-4.70537e-06
-2.85005e-06
-4.62694e-06
-3.54688e-06
-4.51254e-06
-4.22414e-06
-4.35541e-06
-4.86945e-06
-4.14885e-06
-5.46675e-06
-3.8871e-06
-5.99577e-06
-3.56631e-06
-6.43172e-06
-3.1859e-06
-6.74524e-06
-2.75002e-06
-6.90299e-06
-2.2691e-06
-6.86883e-06
-1.7612e-06
-6.60604e-06
-1.2528e-06
-6.08049e-06
-7.78763e-07
-5.26459e-06
-3.81e-07
-4.14165e-06
-1.05852e-07
-2.70987e-06
-9.87191e-07
-9.65347e-08
1.00841e-06
-3.45038e-07
2.73667e-06
-7.00224e-07
4.14788e-06
-1.11842e-06
5.23798e-06
-1.56183e-06
6.02247e-06
-2.00054e-06
6.529e-06
-2.41301e-06
6.792e-06
-2.78552e-06
6.84835e-06
-3.1109e-06
6.73402e-06
-3.38712e-06
6.48196e-06
-3.61587e-06
6.12099e-06
-3.80124e-06
5.67535e-06
-3.94877e-06
5.16483e-06
-4.06459e-06
4.60509e-06
-4.15485e-06
4.00819e-06
-4.2253e-06
3.38317e-06
-4.28098e-06
2.73656e-06
-4.32603e-06
2.07294e-06
-4.36354e-06
1.39539e-06
-4.39542e-06
7.05998e-07
-4.42233e-06
6.22549e-09
-4.44362e-06
-7.02628e-07
-4.45723e-06
-1.419e-06
-4.45964e-06
-2.14058e-06
-4.44591e-06
-2.86379e-06
-4.40963e-06
-3.58315e-06
-4.34319e-06
-4.29058e-06
-4.23798e-06
-4.97466e-06
-4.08494e-06
-5.61978e-06
-3.87538e-06
-6.20532e-06
-3.60213e-06
-6.70497e-06
-3.26103e-06
-7.08634e-06
-2.85284e-06
-7.31117e-06
-2.38535e-06
-7.33632e-06
-1.87539e-06
-7.116e-06
-1.35044e-06
-6.60545e-06
-8.49037e-07
-5.76599e-06
-4.19717e-07
-4.57097e-06
-1.1781e-07
-3.01177e-06
-1.105e-06
-1.07587e-07
1.11599e-06
-3.80304e-07
3.00939e-06
-7.62698e-07
4.53028e-06
-1.20228e-06
5.67757e-06
-1.65523e-06
6.47542e-06
-2.08863e-06
6.96241e-06
-2.48059e-06
7.18396e-06
-2.81884e-06
7.18661e-06
-3.09887e-06
7.01405e-06
-3.32181e-06
6.7049e-06
-3.49253e-06
6.29171e-06
-3.61815e-06
5.80097e-06
-3.70682e-06
5.25349e-06
-3.76686e-06
4.66513e-06
-3.80622e-06
4.04756e-06
-3.83208e-06
3.40903e-06
-3.8506e-06
2.75508e-06
-3.86678e-06
2.08912e-06
-3.88439e-06
1.413e-06
-3.90587e-06
7.27474e-07
-3.93226e-06
3.26209e-08
-3.96317e-06
-6.71723e-07
-3.99663e-06
-1.38554e-06
-4.02905e-06
-2.10816e-06
-4.05512e-06
-2.83772e-06
-4.06777e-06
-3.5705e-06
-4.0582e-06
-4.30015e-06
-4.01607e-06
-5.01679e-06
-3.92992e-06
-5.70594e-06
-3.78787e-06
-6.34737e-06
-3.57885e-06
-6.91399e-06
-3.29427e-06
-7.37093e-06
-2.9303e-06
-7.67515e-06
-2.49065e-06
-7.77597e-06
-1.98956e-06
-7.61709e-06
-1.45442e-06
-7.14058e-06
-9.27292e-07
-6.29312e-06
-4.64274e-07
-5.03399e-06
-1.31936e-07
-3.34411e-06
-1.23694e-06
-1.21553e-07
1.23754e-06
-4.23639e-07
3.31147e-06
-8.36882e-07
4.94352e-06
-1.2974e-06
6.13809e-06
-1.75437e-06
6.93238e-06
-2.17219e-06
7.38023e-06
-2.52964e-06
7.54141e-06
-2.81737e-06
7.47433e-06
-3.03481e-06
7.23149e-06
-3.18734e-06
6.85744e-06
-3.28388e-06
6.38825e-06
-3.33503e-06
5.85212e-06
-3.35181e-06
5.27027e-06
-3.34484e-06
4.65816e-06
-3.3238e-06
4.02652e-06
-3.29717e-06
3.3824e-06
-3.27208e-06
2.72999e-06
-3.25427e-06
2.07131e-06
-3.24807e-06
1.4068e-06
-3.25636e-06
7.35765e-07
-3.28057e-06
5.68353e-08
-3.32061e-06
-6.31682e-07
-3.37476e-06
-1.3314e-06
-3.43952e-06
-2.0434e-06
-3.50951e-06
-2.76773e-06
-3.57726e-06
-3.50275e-06
-3.63314e-06
-4.24428e-06
-3.66533e-06
-4.98459e-06
-3.66012e-06
-5.71116e-06
-3.60237e-06
-6.40511e-06
-3.4767e-06
-7.03966e-06
-3.26921e-06
-7.57842e-06
-2.97011e-06
-7.97424e-06
-2.57724e-06
-8.16884e-06
-2.1002e-06
-8.09413e-06
-1.56458e-06
-7.6762e-06
-1.01513e-06
-6.84257e-06
-5.16387e-07
-5.53274e-06
-1.48992e-07
-3.71151e-06
-1.38593e-06
-1.39694e-07
1.37724e-06
-4.78012e-07
3.64979e-06
-9.26146e-07
5.39166e-06
-1.40553e-06
6.61747e-06
-1.85755e-06
7.3844e-06
-2.24495e-06
7.76763e-06
-2.54908e-06
7.84555e-06
-2.76549e-06
7.69074e-06
-2.89935e-06
7.36535e-06
-2.96159e-06
6.91967e-06
-2.96593e-06
6.3926e-06
-2.92689e-06
5.81308e-06
-2.85846e-06
5.20185e-06
-2.77343e-06
4.57312e-06
-2.68298e-06
3.93607e-06
-2.59662e-06
3.29604e-06
-2.52218e-06
2.65555e-06
-2.46586e-06
2.01499e-06
-2.43235e-06
1.37329e-06
-2.42486e-06
7.28275e-07
-2.44515e-06
7.71176e-08
-2.49345e-06
-5.83376e-07
-2.56843e-06
-1.25642e-06
-2.66693e-06
-1.94489e-06
-2.78383e-06
-2.65084e-06
-2.91169e-06
-3.37489e-06
-3.04052e-06
-4.11544e-06
-3.15758e-06
-4.86754e-06
-3.24727e-06
-5.62147e-06
-3.29146e-06
-6.36092e-06
-3.2703e-06
-7.06082e-06
-3.16388e-06
-7.68484e-06
-2.95503e-06
-8.18309e-06
-2.63349e-06
-8.49037e-06
-2.20146e-06
-8.52616e-06
-1.67992e-06
-8.19774e-06
-1.11449e-06
-7.408e-06
-5.78494e-07
-6.06874e-06
-1.70146e-07
-4.11985e-06
-1.55608e-06
-1.6395e-07
1.54119e-06
-5.47574e-07
4.03341e-06
-1.03447e-06
5.87855e-06
-1.52741e-06
7.11041e-06
-1.95997e-06
7.81696e-06
-2.29554e-06
8.1032e-06
-2.52112e-06
8.07112e-06
-2.64002e-06
7.80963e-06
-2.6653e-06
7.39064e-06
-2.6148e-06
6.86917e-06
-2.50773e-06
6.28553e-06
-2.36266e-06
5.668e-06
-2.19635e-06
5.03554e-06
-2.02337e-06
4.40014e-06
-1.85594e-06
3.76865e-06
-1.70412e-06