/*--------------------------------*- C++ -*----------------------------------*\
  =========                 |
  \\      /  F ield         | OpenFOAM: The Open Source CFD Toolbox
   \\    /   O peration     | Website:  https://openfoam.org
    \\  /    A nd           | Version:  6.0
     \\/     M anipulation  |
\*---------------------------------------------------------------------------*/
FoamFile
{
    version     2.0;
    format      ascii;
    class       volVectorField;
    location    "0.2";
    object      U;
}
// * * * * * * * * * * * * * * * * * * * * * * * * * * * * * * * * * * * * * //

dimensions      [0 1 -1 0 0 0 0];

internalField   nonuniform List<vector> 
1600
(
(6.05846e-05 -6.03542e-05 0)
(0.000155953 -5.699e-05 0)
(0.000156752 -6.89326e-06 0)
(6.41836e-06 5.26254e-05 0)
(-0.000303467 0.000108191 0)
(-0.000756553 0.00015509 0)
(-0.00132838 0.000191957 0)
(-0.001992 0.000218827 0)
(-0.00272019 0.000236277 0)
(-0.0034867 0.00024505 0)
(-0.0042668 0.000245937 0)
(-0.00503762 0.000239724 0)
(-0.00577833 0.000227172 0)
(-0.00647017 0.000209015 0)
(-0.00709651 0.000185965 0)
(-0.00764286 0.000158713 0)
(-0.00809692 0.000127941 0)
(-0.00844852 9.43313e-05 0)
(-0.00868977 5.85747e-05 0)
(-0.00881501 2.13808e-05 0)
(-0.00882096 -1.65151e-05 0)
(-0.00870677 -5.43449e-05 0)
(-0.00847411 -9.13043e-05 0)
(-0.0081273 -0.000126553 0)
(-0.00767333 -0.000159217 0)
(-0.00712199 -0.000188399 0)
(-0.00648583 -0.000213183 0)
(-0.0057802 -0.000232653 0)
(-0.00502311 -0.00024591 0)
(-0.00423517 -0.000252085 0)
(-0.00343928 -0.000250366 0)
(-0.00266037 -0.000240011 0)
(-0.00192494 -0.000220386 0)
(-0.00126049 -0.00019101 0)
(-0.000694557 -0.000151687 0)
(-0.000253387 -0.00010284 0)
(4.05306e-05 -4.6351e-05 0)
(0.000174058 1.2544e-05 0)
(0.000160183 6.01217e-05 0)
(6.02197e-05 5.99833e-05 0)
(5.86661e-05 -0.000156629 0)
(7.25037e-05 -6.91903e-05 0)
(-0.000178492 0.000182532 0)
(-0.000772624 0.000477054 0)
(-0.00172436 0.00076104 0)
(-0.00300715 0.00100935 0)
(-0.00457246 0.00121069 0)
(-0.00636092 0.00136114 0)
(-0.00830879 0.00146062 0)
(-0.0103519 0.00151101 0)
(-0.0124279 0.00151528 0)
(-0.0144781 0.001477 0)
(-0.0164479 0.00140004 0)
(-0.0182877 0.00128845 0)
(-0.0199532 0.00114635 0)
(-0.0214057 0.000977959 0)
(-0.0226122 0.000787525 0)
(-0.0235455 0.000579384 0)
(-0.0241844 0.000357969 0)
(-0.0245141 0.000127842 0)
(-0.024526 -0.000106283 0)
(-0.0242184 -0.000339519 0)
(-0.0235962 -0.000566808 0)
(-0.0226713 -0.00078293 0)
(-0.021463 -0.00098254 0)
(-0.0199976 -0.00116022 0)
(-0.0183087 -0.00131057 0)
(-0.0164372 -0.00142828 0)
(-0.0144304 -0.00150831 0)
(-0.012342 -0.00154599 0)
(-0.010231 -0.00153725 0)
(-0.00816078 -0.0014788 0)
(-0.00619736 -0.00136848 0)
(-0.00440749 -0.00120574 0)
(-0.00285554 -0.00099247 0)
(-0.00159924 -0.000734729 0)
(-0.000683028 -0.000446061 0)
(-0.000127077 -0.000153612 0)
(9.1805e-05 8.82093e-05 0)
(6.16734e-05 0.000160578 0)
(1.13593e-05 -0.000162453 0)
(-0.000171964 0.000178656 0)
(-0.000803768 0.000813854 0)
(-0.00193033 0.00153592 0)
(-0.00355243 0.00223792 0)
(-0.00563412 0.00286043 0)
(-0.00811064 0.00337187 0)
(-0.0109005 0.00375787 0)
(-0.0139143 0.00401425 0)
(-0.01706 0.00414297 0)
(-0.020247 0.00414971 0)
(-0.0233884 0.00404245 0)
(-0.026403 0.00383061 0)
(-0.0292163 0.0035245 0)
(-0.0317615 0.00313504 0)
(-0.0339798 0.00267351 0)
(-0.0358212 0.00215157 0)
(-0.0372444 0.00158115 0)
(-0.0382174 0.000974539 0)
(-0.0387178 0.0003444 0)
(-0.0387329 -0.000296204 0)
(-0.0382603 -0.000933781 0)
(-0.0373079 -0.00155443 0)
(-0.0358942 -0.0021439 0)
(-0.0340486 -0.00268769 0)
(-0.0318113 -0.00317124 0)
(-0.0292334 -0.00358015 0)
(-0.0263762 -0.00390049 0)
(-0.0233107 -0.00411918 0)
(-0.0201169 -0.00422447 0)
(-0.0168821 -0.00420649 0)
(-0.0136993 -0.00405798 0)
(-0.0106641 -0.00377524 0)
(-0.00787209 -0.00335956 0)
(-0.00541362 -0.00281934 0)
(-0.00336814 -0.00217394 0)
(-0.00179531 -0.00145997 0)
(-0.000723041 -0.000741146 0)
(-0.000139018 -0.000126614 0)
(1.75556e-05 0.000179812 0)
(-4.55629e-05 -2.17396e-05 0)
(-0.00046434 0.000767994 0)
(-0.00153467 0.00194088 0)
(-0.00324026 0.0032255 0)
(-0.00555187 0.00446631 0)
(-0.00841851 0.00556853 0)
(-0.0117593 0.00647717 0)
(-0.0154742 0.00716415 0)
(-0.0194537 0.00761885 0)
(-0.0235844 0.00784194 0)
(-0.0277534 0.00784155 0)
(-0.0318521 0.0076307 0)
(-0.035778 0.00722563 0)
(-0.0394368 0.00664473 0)
(-0.0427435 0.00590786 0)
(-0.0456231 0.00503595 0)
(-0.0480117 0.00405071 0)
(-0.0498565 0.00297461 0)
(-0.0511167 0.00183084 0)
(-0.0517638 0.000643291 0)
(-0.0517818 -0.000563371 0)
(-0.0511676 -0.00176374 0)
(-0.0499317 -0.0029317 0)
(-0.0480981 -0.00404059 0)
(-0.0457045 -0.00506342 0)
(-0.0428023 -0.00597321 0)
(-0.0394564 -0.00674343 0)
(-0.0357449 -0.00734866 0)
(-0.0317577 -0.0077653 0)
(-0.0275956 -0.00797246 0)
(-0.0233682 -0.00795314 0)
(-0.0191915 -0.00769556 0)
(-0.0151845 -0.00719501 0)
(-0.011465 -0.00645626 0)
(-0.00814413 -0.0054972 0)
(-0.00531992 -0.00435427 0)
(-0.00306771 -0.00309098 0)
(-0.00142938 -0.00180946 0)
(-0.000420105 -0.000669563 0)
(-3.68503e-05 5.95461e-05 0)
(-0.00010069 0.000278725 0)
(-0.00076104 0.00172868 0)
(-0.00228856 0.00359064 0)
(-0.00459109 0.00555371 0)
(-0.00759893 0.00742533 0)
(-0.01124 0.00908047 0)
(-0.0154148 0.0104423 0)
(-0.0200052 0.0114686 0)
(-0.0248836 0.0121417 0)
(-0.0299187 0.0124604 0)
(-0.0349799 0.0124351 0)
(-0.0399406 0.0120841 0)
(-0.0446816 0.0114314 0)
(-0.0490925 0.0105047 0)
(-0.0530738 0.00933441 0)
(-0.0565376 0.00795286 0)
(-0.0594086 0.00639396 0)
(-0.0616249 0.00469289 0)
(-0.0631386 0.00288606 0)
(-0.063916 0.00101103 0)
(-0.0639385 -0.000893435 0)
(-0.0632026 -0.00278746 0)
(-0.0617205 -0.00463016 0)
(-0.0595206 -0.00637989 0)
(-0.0566471 -0.00799461 0)
(-0.0531603 -0.00943247 0)
(-0.0491363 -0.0106525 0)
(-0.0446662 -0.0116157 0)
(-0.0398552 -0.012286 0)
(-0.0348206 -0.0126321 0)
(-0.0296902 -0.0126287 0)
(-0.0245986 -0.0122592 0)
(-0.019684 -0.0115182 0)
(-0.0150833 -0.0104145 0)
(-0.0109264 -0.00897671 0)
(-0.00732993 -0.00725902 0)
(-0.00438798 -0.00535098 0)
(-0.00216265 -0.00338889 0)
(-0.000707177 -0.00157301 0)
(-8.98264e-05 -0.000214856 0)
(-0.00015098 0.00073251 0)
(-0.00104563 0.00306144 0)
(-0.00302785 0.0057704 0)
(-0.00592717 0.00852789 0)
(-0.00962825 0.0111159 0)
(-0.0140332 0.0133863 0)
(-0.0190208 0.0152439 0)
(-0.0244535 0.0166347 0)
(-0.0301864 0.0175342 0)
(-0.0360717 0.01794 0)
(-0.0419632 0.0178651 0)
(-0.0477197 0.0173339 0)
(-0.0532078 0.0163789 0)
(-0.0583043 0.0150382 0)
(-0.0628979 0.013354 0)
(-0.0668903 0.0113716 0)
(-0.0701974 0.00913881 0)
(-0.0727497 0.00670524 0)
(-0.0744936 0.00412239 0)
(-0.0753914 0.00144346 0)
(-0.075422 -0.00127671 0)
(-0.0745815 -0.00398175 0)
(-0.0728834 -0.00661394 0)
(-0.0703589 -0.00911457 0)
(-0.0670574 -0.0114245 0)
(-0.0630461 -0.013485 0)
(-0.0584096 -0.0152387 0)
(-0.0532496 -0.0166312 0)
(-0.0476833 -0.0176125 0)
(-0.0418417 -0.0181393 0)
(-0.0358676 -0.0181771 0)
(-0.0299118 -0.0177036 0)
(-0.0241294 -0.0167121 0)
(-0.0186752 -0.0152156 0)
(-0.0136978 -0.0132523 0)
(-0.00933446 -0.0108932 0)
(-0.00570113 -0.00825065 0)
(-0.00288524 -0.00548925 0)
(-0.000983485 -0.00283942 0)
(-0.00013815 -0.000637714 0)
(-0.000196337 0.00132928 0)
(-0.00131377 0.00475486 0)
(-0.00373878 0.00847251 0)
(-0.00722539 0.0121424 0)
(-0.011611 0.015531 0)
(-0.016769 0.0184738 0)
(-0.0225535 0.0208627 0)
(-0.0288061 0.0226343 0)
(-0.0353638 0.02376 0)
(-0.0420631 0.0242373 0)
(-0.0487432 0.024083 0)
(-0.0552499 0.0233286 0)
(-0.0614381 0.0220159 0)
(-0.0671737 0.0201948 0)
(-0.072336 0.0179204 0)
(-0.0768182 0.0152523 0)
(-0.0805291 0.0122534 0)
(-0.0833934 0.0089892 0)
(-0.0853528 0.00552784 0)
(-0.0863661 0.00193957 0)
(-0.0864102 -0.00170315 0)
(-0.0854805 -0.0053259 0)
(-0.083591 -0.0088525 0)
(-0.0807751 -0.0122056 0)
(-0.0770856 -0.0153072 0)
(-0.0725947 -0.0180801 0)
(-0.0673938 -0.0204489 0)
(-0.0615925 -0.022342 0)
(-0.0553182 -0.0236939 0)
(-0.0487132 -0.0244478 0)
(-0.0419333 -0.0245589 0)
(-0.0351441 -0.0239977 0)
(-0.0285169 -0.022755 0)
(-0.0222242 -0.0208463 0)
(-0.0164349 -0.0183181 0)
(-0.0113085 -0.0152552 0)
(-0.00698624 -0.0117891 0)
(-0.00358436 -0.00810637 0)
(-0.0012449 -0.00445949 0)
(-0.000181703 -0.00119934 0)
(-0.000237695 0.00205934 0)
(-0.00156669 0.00679441 0)
(-0.00442031 0.0116836 0)
(-0.00848161 0.0163859 0)
(-0.0135411 0.0206594 0)
(-0.0194415 0.0243301 0)
(-0.0260107 0.0272818 0)
(-0.0330676 0.0294458 0)
(-0.0404304 0.0307921 0)
(-0.0479193 0.0313203 0)
(-0.05536 0.0310529 0)
(-0.062586 0.0300297 0)
(-0.0694418 0.0283035 0)
(-0.0757844 0.0259369 0)
(-0.081485 0.0229992 0)
(-0.0864302 0.0195654 0)
(-0.0905232 0.0157146 0)
(-0.093684 0.0115294 0)
(-0.0958503 0.00709539 0)
(-0.0969784 0.00250115 0)
(-0.0970431 -0.00216218 0)
(-0.0960387 -0.00680097 0)
(-0.0939793 -0.0113194 0)
(-0.0908994 -0.0156202 0)
(-0.0868537 -0.0196053 0)
(-0.081918 -0.0231774 0)
(-0.0761884 -0.0262416 0)
(-0.0697811 -0.0287077 0)
(-0.0628313 -0.0304929 0)
(-0.0554914 -0.0315252 0)
(-0.0479291 -0.0317473 0)
(-0.0403238 -0.0311212 0)
(-0.0328631 -0.0296329 0)
(-0.0257383 -0.0272983 0)
(-0.0191396 -0.0241695 0)
(-0.0132513 -0.0203417 0)
(-0.00824267 -0.0159612 0)
(-0.00426077 -0.0112316 0)
(-0.00149325 -0.00642155 0)
(-0.000221502 -0.00189087 0)
(-0.000276195 0.00291493 0)
(-0.00180774 0.00916676 0)
(-0.0050774 0.0153901 0)
(-0.00970157 0.0212464 0)
(-0.015425 0.0264907 0)
(-0.0220588 0.0309449 0)
(-0.0294033 0.0344893 0)
(-0.0372535 0.0370546 0)
(-0.0454077 0.0386126 0)
(-0.0536698 0.0391677 0)
(-0.0618515 0.0387505 0)
(-0.0697753 0.0374112 0)
(-0.0772759 0.0352151 0)
(-0.0842026 0.0322387 0)
(-0.0904202 0.0285669 0)
(-0.09581 0.0242911 0)
(-0.10027 0.0195076 0)
(-0.103718 0.0143168 0)
(-0.106088 0.00882265 0)
(-0.107333 0.00313263 0)
(-0.107427 -0.00264265 0)
(-0.106362 -0.00838959 0)
(-0.104153 -0.0139919 0)
(-0.100833 -0.0193314 0)
(-0.096458 -0.024289 0)
(-0.0911059 -0.0287459 0)
(-0.0848761 -0.0325864 0)
(-0.0778893 -0.0356999 0)
(-0.0702875 -0.0379845 0)
(-0.0622318 -0.0393511 0)
(-0.0539008 -0.0397276 0)
(-0.0454879 -0.0390648 0)
(-0.0371972 -0.0373413 0)
(-0.0292398 -0.0345705 0)
(-0.0218291 -0.0308067 0)
(-0.0151763 -0.026152 0)
(-0.00948071 -0.0207635 0)
(-0.00492193 -0.014858 0)
(-0.00173283 -0.00871619 0)
(-0.000258845 -0.00270579 0)
(-0.000312891 0.00389056 0)
(-0.0020408 0.0118617 0)
(-0.00571736 0.0195812 0)
(-0.0108955 0.0267141 0)
(-0.0172751 0.0330164 0)
(-0.0246357 0.0383101 0)
(-0.0327486 0.0424769 0)
(-0.0413842 0.0454507 0)
(-0.05032 0.047209 0)
(-0.0593431 0.0477647 0)
(-0.0682515 0.047159 0)
(-0.0768566 0.0454547 0)
(-0.0849847 0.0427315 0)
(-0.0924782 0.0390818 0)
(-0.0991966 0.0346071 0)
(-0.105017 0.0294161 0)
(-0.109835 0.0236231 0)
(-0.113563 0.0173469 0)
(-0.116135 0.0107105 0)
(-0.117502 0.00384055 0)
(-0.117635 -0.00313253 0)
(-0.116526 -0.0100747 0)
(-0.114186 -0.0168489 0)
(-0.110649 -0.0233151 0)
(-0.10597 -0.0293324 0)
(-0.100227 -0.0347597 0)
(-0.0935223 -0.0394587 0)
(-0.0859786 -0.0432969 0)
(-0.0777435 -0.0461512 0)
(-0.0689859 -0.0479127 0)
(-0.0598948 -0.0484921 0)
(-0.0506773 -0.0478258 0)
(-0.0415547 -0.0458818 0)
(-0.0327591 -0.0426672 0)
(-0.0245289 -0.0382348 0)
(-0.0171041 -0.03269 0)
(-0.010716 -0.0261971 0)
(-0.00557816 -0.0189828 0)
(-0.00196869 -0.0113385 0)
(-0.000294992 -0.00364043 0)
(-0.000348687 0.00498298 0)
(-0.00226968 0.0148727 0)
(-0.00634806 0.0242496 0)
(-0.0120751 0.0327825 0)
(-0.0191066 0.0402306 0)
(-0.0271897 0.0464202 0)
(-0.0360664 0.0512383 0)
(-0.0454814 0.0546264 0)
(-0.0551908 0.0565719 0)
(-0.0649644 0.0570996 0)
(-0.0745868 0.0562645 0)
(-0.0838588 0.054145 0)
(-0.0925988 0.0508373 0)
(-0.100644 0.0464511 0)
(-0.107848 0.0411062 0)
(-0.114087 0.0349296 0)
(-0.119253 0.0280542 0)
(-0.123258 0.0206176 0)
(-0.126033 0.0127618 0)
(-0.127528 0.00463303 0)
(-0.127712 -0.0036186 0)
(-0.126574 -0.0118386 0)
(-0.124124 -0.0198688 0)
(-0.120394 -0.0275473 0)
(-0.115437 -0.0347105 0)
(-0.10933 -0.041194 0)
(-0.102174 -0.0468357 0)
(-0.094096 -0.0514792 0)
(-0.0852456 -0.0549779 0)
(-0.0757986 -0.0572005 0)
(-0.0659541 -0.058037 0)
(-0.0559325 -0.0574057 0)
(-0.0459731 -0.0552602 0)
(-0.0363299 -0.0515972 0)
(-0.0272679 -0.0464639 0)
(-0.0190583 -0.039965 0)
(-0.0119662 -0.0322687 0)
(-0.00624072 -0.0236095 0)
(-0.00220596 -0.0142889 0)
(-0.000331087 -0.00469396 0)
(-0.000384334 0.00619089 0)
(-0.0024978 0.0181971 0)
(-0.00697707 0.0293924 0)
(-0.0132522 0.0394488 0)
(-0.0209347 0.0481308 0)
(-0.0297386 0.0552719 0)
(-0.0393761 0.0607689 0)
(-0.0495651 0.0645753 0)
(-0.0600401 0.0666924 0)
(-0.0705533 0.0671611 0)
(-0.080876 0.0660537 0)
(-0.0907992 0.0634671 0)
(-0.100134 0.0595168 0)
(-0.108713 0.0543317 0)
(-0.116389 0.0480511 0)
(-0.123033 0.0408214 0)
(-0.128538 0.0327945 0)
(-0.132814 0.0241272 0)
(-0.135793 0.0149804 0)
(-0.137422 0.00551926 0)
(-0.137668 -0.00408638 0)
(-0.13652 -0.0136621 0)
(-0.133983 -0.0230286 0)
(-0.130086 -0.0320023 0)
(-0.12488 -0.0403963 0)
(-0.118438 -0.0480224 0)
(-0.11086 -0.0546931 0)
(-0.102273 -0.0602262 0)
(-0.0928275 -0.0644491 0)
(-0.0827059 -0.0672049 0)
(-0.0721157 -0.0683591 0)
(-0.0612908 -0.0678076 0)
(-0.0504884 -0.0654851 0)
(-0.0399857 -0.0613732 0)
(-0.0300761 -0.0555088 0)
(-0.0210635 -0.047992 0)
(-0.0132495 -0.0389917 0)
(-0.00692088 -0.0287483 0)
(-0.00244951 -0.0175734 0)
(-0.000368147 -0.00586829 0)
(-0.000420458 0.00751476 0)
(-0.00272819 0.0218358 0)
(-0.00761135 0.0350107 0)
(-0.0144377 0.046714 0)
(-0.0227734 0.056717 0)
(-0.0322989 0.0648639 0)
(-0.0426947 0.0710651 0)
(-0.053652 0.0752906 0)
(-0.0648827 0.0775605 0)
(-0.0761219 0.0779359 0)
(-0.0871276 0.0765107 0)
(-0.097682 0.0734035 0)
(-0.107591 0.0687516 0)
(-0.116682 0.0627058 0)
(-0.124808 0.055426 0)
(-0.131841 0.0470789 0)
(-0.137671 0.0378361 0)
(-0.142212 0.0278731 0)
(-0.145394 0.0173695 0)
(-0.147163 0.00650892 0)
(-0.147485 -0.00452003 0)
(-0.146346 -0.0155235 0)
(-0.143748 -0.0263021 0)
(-0.139715 -0.0366504 0)
(-0.134293 -0.0463587 0)
(-0.127552 -0.0552136 0)
(-0.119587 -0.0630017 0)
(-0.110521 -0.0695126 0)
(-0.100508 -0.0745451 0)
(-0.0897317 -0.0779129 0)
(-0.0784081 -0.0794529 0)
(-0.0667833 -0.079034 0)
(-0.0551329 -0.0765661 0)
(-0.043758 -0.0720105 0)
(-0.0329817 -0.0653889 0)
(-0.0231435 -0.056792 0)
(-0.0145837 -0.0463861 0)
(-0.00762947 -0.0344158 0)
(-0.00270395 -0.0212035 0)
(-0.000407084 -0.00716785 0)
(-0.000457592 0.00895654 0)
(-0.00296356 0.0257931 0)
(-0.00825719 0.0411095 0)
(-0.0156417 0.0545825 0)
(-0.0246358 0.0659919 0)
(-0.0348846 0.0751957 0)
(-0.0460365 0.0821225 0)
(-0.0577541 0.0867635 0)
(-0.0697272 0.0891626 0)
(-0.0816734 0.0894063 0)
(-0.0933387 0.0876141 0)
(-0.104497 0.0839304 0)
(-0.114951 0.0785174 0)
(-0.124526 0.0715496 0)
(-0.133075 0.0632095 0)
(-0.140471 0.0536848 0)
(-0.14661 0.0431668 0)
(-0.151403 0.0318497 0)
(-0.154783 0.0199308 0)
(-0.156697 0.00761143 0)
(-0.157109 -0.00490247 0)
(-0.156001 -0.0173989 0)
(-0.153371 -0.029659 0)
(-0.149239 -0.0414569 0)
(-0.143642 -0.0525598 0)
(-0.136644 -0.0627293 0)
(-0.128334 -0.0717245 0)
(-0.118832 -0.0793053 0)
(-0.108287 -0.0852387 0)
(-0.0968856 -0.0893052 0)
(-0.0848483 -0.0913082 0)
(-0.0724331 -0.0910838 0)
(-0.0599332 -0.0885114 0)
(-0.0476743 -0.0835255 0)
(-0.036011 -0.0761265 0)
(-0.0253205 -0.0663907 0)
(-0.0159853 -0.0544781 0)
(-0.00837676 -0.0406353 0)
(-0.00297358 -0.0251958 0)
(-0.000448736 -0.00859938 0)
(-0.00049621 0.0105195 0)
(-0.00320636 0.0300759 0)
(-0.00892037 0.0476973 0)
(-0.0168731 0.0630618 0)
(-0.0265332 0.0759601 0)
(-0.037508 0.0862673 0)
(-0.0494119 0.093935 0)
(-0.0618785 0.0989815 0)
(-0.0745747 0.10148 0)
(-0.0872015 0.101548 0)
(-0.0994937 0.0993347 0)
(-0.111219 0.0950155 0)
(-0.122177 0.0887804 0)
(-0.132196 0.0808303 0)
(-0.141131 0.0713716 0)
(-0.148858 0.0606139 0)
(-0.155277 0.0487682 0)
(-0.160304 0.0360466 0)
(-0.163874 0.0226632 0)
(-0.165934 0.00883517 0)
(-0.166449 -0.00521565 0)
(-0.165395 -0.0192609 0)
(-0.162768 -0.0330641 0)
(-0.158578 -0.0463798 0)
(-0.152856 -0.0589531 0)
(-0.145656 -0.0705209 0)
(-0.137058 -0.0808138 0)
(-0.127173 -0.0895601 0)
(-0.116146 -0.0964919 0)
(-0.10416 -0.101352 0)
(-0.09144 -0.103906 0)
(-0.0782528 -0.10395 0)
(-0.0649084 -0.101326 0)
(-0.0517573 -0.0959339 0)
(-0.039187 -0.0877463 0)
(-0.0276151 -0.0768186 0)
(-0.0174702 -0.0632996 0)
(-0.00917251 -0.0474359 0)
(-0.0032625 -0.0295719 0)
(-0.000493894 -0.0101718 0)
(-0.000536767 0.0122082 0)
(-0.00345895 0.0346943 0)
(-0.00960641 0.0547857 0)
(-0.0181406 0.0721621 0)
(-0.0284758 0.086627 0)
(-0.040179 0.0980775 0)
(-0.0528281 0.106493 0)
(-0.0660267 0.111926 0)
(-0.0794186 0.114486 0)
(-0.0926889 0.114325 0)
(-0.105563 0.111632 0)
(-0.117805 0.106614 0)
(-0.129214 0.0994946 0)
(-0.139622 0.0905029 0)
(-0.14889 0.079871 0)
(-0.156902 0.067831 0)
(-0.163564 0.0546132 0)
(-0.168797 0.0404467 0)
(-0.172541 0.0255608 0)
(-0.174745 0.0101864 0)
(-0.175374 -0.00544094 0)
(-0.174401 -0.021079 0)
(-0.171815 -0.0364758 0)
(-0.167618 -0.0513685 0)
(-0.161832 -0.0654815 0)
(-0.154496 -0.0785272 0)
(-0.145681 -0.0902077 0)
(-0.135483 -0.100218 0)
(-0.12404 -0.108252 0)
(-0.111527 -0.114012 0)
(-0.0981705 -0.117216 0)
(-0.0842427 -0.117616 0)
(-0.0700688 -0.115008 0)
(-0.0560237 -0.109248 0)
(-0.0425289 -0.100273 0)
(-0.0300457 -0.0881087 0)
(-0.0190531 -0.0728877 0)
(-0.0100261 -0.0548525 0)
(-0.00357472 -0.0343582 0)
(-0.000543342 -0.0118962 0)
(-0.000579734 0.0140284 0)
(-0.00372377 0.0396608 0)
(-0.010321 0.0623895 0)
(-0.0194527 0.0818956 0)
(-0.0304735 0.0979988 0)
(-0.0429058 0.110623 0)
(-0.0562889 0.119783 0)
(-0.0701946 0.125572 0)
(-0.0842437 0.128142 0)
(-0.0981067 0.127692 0)
(-0.111502 0.12445 0)
(-0.124191 0.118666 0)
(-0.135979 0.110598 0)
(-0.146705 0.100507 0)
(-0.156238 0.0886515 0)
(-0.164473 0.0752873 0)
(-0.171325 0.0606632 0)
(-0.176725 0.0450239 0)
(-0.180619 0.0286115 0)
(-0.182959 0.0116682 0)
(-0.183711 -0.0055598 0)
(-0.182846 -0.0228194 0)
(-0.180344 -0.0398463 0)
(-0.1762 -0.0563628 0)
(-0.170421 -0.0720748 0)
(-0.163033 -0.0866718 0)
(-0.154088 -0.099827 0)
(-0.143668 -0.111201 0)
(-0.131895 -0.120448 0)
(-0.118936 -0.127222 0)
(-0.105008 -0.131192 0)
(-0.0903886 -0.132053 0)
(-0.0754142 -0.129546 0)
(-0.0604832 -0.123476 0)
(-0.046052 -0.113729 0)
(-0.0326286 -0.100296 0)
(-0.0207479 -0.0832833 0)
(-0.0109467 -0.0629251 0)
(-0.00391427 -0.0395855 0)
(-0.000597885 -0.0137857 0)
(-0.000625648 0.0159871 0)
(-0.0040036 0.0449909 0)
(-0.0110703 0.0705263 0)
(-0.0208184 0.0922764 0)
(-0.032536 0.110081 0)
(-0.0456959 0.123897 0)
(-0.0597951 0.133783 0)
(-0.0743724 0.139881 0)
(-0.089026 0.142398 0)
(-0.103413 0.141583 0)
(-0.117248 0.137716 0)
(-0.130296 0.131092 0)
(-0.142369 0.122008 0)
(-0.153317 0.110761 0)
(-0.163025 0.0976384 0)
(-0.171401 0.0829175 0)
(-0.178375 0.0668655 0)
(-0.183889 0.0497405 0)
(-0.187896 0.0317949 0)
(-0.190358 0.0132789 0)
(-0.191238 -0.00555464 0)
(-0.190507 -0.0244453 0)
(-0.18814 -0.0431207 0)
(-0.184117 -0.0612915 0)
(-0.178431 -0.0786485 0)
(-0.17109 -0.09486 0)
(-0.162125 -0.109572 0)
(-0.151597 -0.12241 0)
(-0.139608 -0.132985 0)
(-0.126306 -0.1409 0)
(-0.111898 -0.145765 0)
(-0.0966586 -0.147212 0)
(-0.080932 -0.144915 0)
(-0.0651376 -0.138613 0)
(-0.049767 -0.128133 0)
(-0.0353783 -0.113415 0)
(-0.0225682 -0.0945304 0)
(-0.0119437 -0.0716986 0)
(-0.00428537 -0.0452892 0)
(-0.000658395 -0.0158555 0)
(-0.000675176 0.0180929 0)
(-0.00430177 0.0507034 0)
(-0.011862 0.0792174 0)
(-0.0222487 0.10332 0)
(-0.0346744 0.122877 0)
(-0.0485563 0.137886 0)
(-0.0633451 0.14846 0)
(-0.0785449 0.154803 0)
(-0.0937318 0.157183 0)
(-0.108553 0.155914 0)
(-0.122722 0.151333 0)
(-0.136012 0.143786 0)
(-0.148248 0.133619 0)
(-0.159298 0.121162 0)
(-0.169066 0.106735 0)
(-0.177479 0.0906364 0)
(-0.184484 0.07315 0)
(-0.190041 0.0545449 0)
(-0.194113 0.0350803 0)
(-0.196671 0.0150103 0)
(-0.197681 -0.00540986 0)
(-0.197112 -0.0259176 0)
(-0.194931 -0.0462368 0)
(-0.191107 -0.0660716 0)
(-0.185615 -0.0851014 0)
(-0.17844 -0.102977 0)
(-0.169589 -0.119319 0)
(-0.159095 -0.133718 0)
(-0.147032 -0.14574 0)
(-0.133524 -0.154932 0)
(-0.118759 -0.16084 0)
(-0.103 -0.16302 0)
(-0.086595 -0.161069 0)
(-0.0699794 -0.154643 0)
(-0.05368 -0.143494 0)
(-0.0383074 -0.127497 0)
(-0.0245272 -0.106675 0)
(-0.013027 -0.0812221 0)
(-0.00469263 -0.0515092 0)
(-0.000725856 -0.0181232 0)
(-0.000729195 0.0203563 0)
(-0.00462265 0.0568213 0)
(-0.0127056 0.0884878 0)
(-0.0237569 0.115045 0)
(-0.0369021 0.136389 0)
(-0.0514949 0.152572 0)
(-0.066935 0.163772 0)
(-0.0826902 0.170268 0)
(-0.0983161 0.172405 0)
(-0.113453 0.170572 0)
(-0.12782 0.165174 0)
(-0.141204 0.156617 0)
(-0.15345 0.145294 0)
(-0.16445 0.131578 0)
(-0.174133 0.115818 0)
(-0.182452 0.0983351 0)
(-0.189376 0.0794264 0)
(-0.194884 0.059369 0)
(-0.198957 0.0384245 0)
(-0.201574 0.0168464 0)
(-0.202708 -0.00511327 0)
(-0.202327 -0.0271953 0)
(-0.200389 -0.0491256 0)
(-0.196852 -0.0706076 0)
(-0.191669 -0.0913147 0)
(-0.184801 -0.110885 0)
(-0.176224 -0.128916 0)
(-0.165937 -0.144967 0)
(-0.153978 -0.158556 0)
(-0.140438 -0.169173 0)
(-0.125477 -0.176289 0)
(-0.109336 -0.179377 0)
(-0.0923583 -0.177937 0)
(-0.0749902 -0.17153 0)
(-0.0577911 -0.159812 0)
(-0.0414268 -0.14257 0)
(-0.0266388 -0.119765 0)
(-0.0142073 -0.0915494 0)
(-0.00514136 -0.0582907 0)
(-0.000801434 -0.020609 0)
(-0.000788892 0.0227906 0)
(-0.00497202 0.0633728 0)
(-0.0136138 0.0983681 0)
(-0.0253604 0.12747 0)
(-0.039236 0.150616 0)
(-0.0545211 0.167924 0)
(-0.0705587 0.179656 0)
(-0.0867796 0.186184 0)
(-0.102721 0.187945 0)
(-0.118022 0.185416 0)
(-0.132414 0.179082 0)
(-0.145706 0.169415 0)
(-0.157771 0.156864 0)
(-0.168533 0.141845 0)
(-0.177954 0.124735 0)
(-0.186017 0.105878 0)
(-0.19272 0.0855813 0)
(-0.198067 0.0641252 0)
(-0.202057 0.0417695 0)
(-0.204684 0.0187609 0)
(-0.205927 -0.00465759 0)
(-0.205755 -0.0282368 0)
(-0.204121 -0.0517117 0)
(-0.200966 -0.0747917 0)
(-0.196223 -0.0971511 0)
(-0.189825 -0.118421 0)
(-0.181711 -0.138182 0)
(-0.171839 -0.155963 0)
(-0.160203 -0.171238 0)
(-0.14685 -0.183434 0)
(-0.131898 -0.191942 0)
(-0.115559 -0.19614 0)
(-0.0981552 -0.195417 0)
(-0.080138 -0.189213 0)
(-0.062094 -0.177066 0)
(-0.0447456 -0.158653 0)
(-0.0289177 -0.133845 0)
(-0.0154972 -0.102738 0)
(-0.00563788 -0.0656842 0)
(-0.000886566 -0.023336 0)
(-0.000855917 0.0254123 0)
(-0.00535781 0.0703933 0)
(-0.0146034 0.108895 0)
(-0.0270824 0.140618 0)
(-0.0416983 0.165551 0)
(-0.0576463 0.1839 0)
(-0.0742075 0.196031 0)
(-0.0907747 0.202429 0)
(-0.106872 0.203647 0)
(-0.122144 0.200264 0)
(-0.136344 0.192856 0)
(-0.149313 0.181972 0)
(-0.160963 0.16812 0)
(-0.171259 0.15176 0)
(-0.180201 0.1333 0)
(-0.187813 0.1131 0)
(-0.194127 0.0914751 0)
(-0.199175 0.0687049 0)
(-0.202979 0.0450405 0)
(-0.20555 0.0207158 0)
(-0.206879 -0.00404214 0)
(-0.206934 -0.0290016 0)
(-0.205663 -0.0539146 0)
(-0.202995 -0.0785044 0)
(-0.198838 -0.102454 0)
(-0.193094 -0.125396 0)
(-0.185661 -0.146902 0)
(-0.176451 -0.166473 0)
(-0.165402 -0.183544 0)
(-0.152505 -0.197478 0)
(-0.137823 -0.207581 0)
(-0.121522 -0.213121 0)
(-0.103892 -0.21336 0)
(-0.0853741 -0.207595 0)
(-0.0665744 -0.195213 0)
(-0.0482711 -0.175751 0)
(-0.0313804 -0.148958 0)
(-0.0169118 -0.114851 0)
(-0.00619009 -0.0737471 0)
(-0.000983091 -0.0263311 0)
(-0.000932599 0.0282429 0)
(-0.00579097 0.077928 0)
(-0.0156978 0.120114 0)
(-0.0289536 0.154512 0)
(-0.0443172 0.181182 0)
(-0.0608844 0.200439 0)
(-0.0778678 0.212785 0)
(-0.0946241 0.218847 0)
(-0.11067 0.219313 0)
(-0.12567 0.214886 0)
(-0.139408 0.206248 0)
(-0.151772 0.194031 0)
(-0.162724 0.178807 0)
(-0.172279 0.161081 0)
(-0.180488 0.141288 0)
(-0.187419 0.119802 0)
(-0.193144 0.0969409 0)
(-0.197729 0.0729759 0)
(-0.201224 0.0481442 0)
(-0.203659 0.0226596 0)
(-0.205035 -0.00327467 0)
(-0.205328 -0.0294522 0)
(-0.204481 -0.0556504 0)
(-0.202408 -0.0816159 0)
(-0.198996 -0.10705 0)
(-0.194111 -0.131597 0)
(-0.187608 -0.154825 0)
(-0.179344 -0.176221 0)
(-0.169194 -0.195183 0)
(-0.15708 -0.211011 0)
(-0.142994 -0.222924 0)
(-0.127034 -0.230071 0)
(-0.109442 -0.231566 0)
(-0.0906278 -0.226535 0)
(-0.0712074 -0.214178 0)
(-0.052009 -0.193852 0)
(-0.0340462 -0.165145 0)
(-0.0184699 -0.127955 0)
(-0.00680822 -0.0825447 0)
(-0.00109344 -0.029626 0)
(-0.00102225 0.0313105 0)
(-0.00628672 0.0860352 0)
(-0.0169282 0.132083 0)
(-0.0310148 0.169181 0)
(-0.047129 0.197485 0)
(-0.0642503 0.217456 0)
(-0.0815176 0.229771 0)
(-0.0982562 0.23523 0)
(-0.113988 0.23469 0)
(-0.128409 0.228999 0)
(-0.141355 0.218955 0)
(-0.152773 0.205284 0)
(-0.162689 0.188623 0)
(-0.171181 0.169521 0)
(-0.178359 0.148437 0)
(-0.184343 0.125753 0)
(-0.18925 0.101783 0)
(-0.193183 0.076783 0)
(-0.196224 0.0509686 0)
(-0.198423 0.024526 0)
(-0.199799 -0.00237296 0)
(-0.200332 -0.0295559 0)
(-0.199964 -0.0568347 0)
(-0.198597 -0.0839891 0)
(-0.196096 -0.11075 0)
(-0.192293 -0.136782 0)
(-0.186997 -0.161667 0)
(-0.180003 -0.184886 0)
(-0.171116 -0.205806 0)
(-0.160174 -0.223677 0)
(-0.147079 -0.237625 0)
(-0.131843 -0.246673 0)
(-0.11463 -0.249767 0)
(-0.0957995 -0.245833 0)
(-0.0759536 -0.233843 0)
(-0.0559617 -0.212918 0)
(-0.0369384 -0.182433 0)
(-0.0201959 -0.14212 0)
(-0.00750587 -0.0921527 0)
(-0.00122093 -0.0332586 0)
(-0.00112963 0.0346528 0)
(-0.00686636 0.0947908 0)
(-0.0183375 0.144873 0)
(-0.0333197 0.184653 0)
(-0.0501782 0.214421 0)
(-0.0677571 0.234834 0)
(-0.0851195 0.24679 0)
(-0.101569 0.251314 0)
(-0.11665 0.249462 0)
(-0.130111 0.242249 0)
(-0.141862 0.230608 0)
(-0.151926 0.215361 0)
(-0.160411 0.197212 0)
(-0.16747 0.176748 0)
(-0.173278 0.154446 0)
(-0.178014 0.13069 0)
(-0.181845 0.105779 0)
(-0.184915 0.0799478 0)
(-0.187338 0.0533827 0)
(-0.189188 0.0262339 0)
(-0.190501 -0.00136617 0)
(-0.191266 -0.0292874 0)
(-0.191426 -0.0573853 0)
(-0.190873 -0.0854831 0)
(-0.189454 -0.113353 0)
(-0.186968 -0.140694 0)
(-0.183177 -0.167112 0)
(-0.177814 -0.192099 0)
(-0.170603 -0.215009 0)
(-0.161286 -0.235046 0)
(-0.14966 -0.251252 0)
(-0.135621 -0.262519 0)
(-0.119225 -0.26761 0)
(-0.100749 -0.265214 0)
(-0.0807529 -0.254028 0)
(-0.060127 -0.232874 0)
(-0.0400852 -0.200841 0)
(-0.0221219 -0.157425 0)
(-0.00830171 -0.10266 0)
(-0.00137022 -0.0372752 0)
(-0.00126171 0.0383205 0)
(-0.00755994 0.104295 0)
(-0.019984 0.158574 0)
(-0.0359374 0.200957 0)
(-0.0535163 0.231926 0)
(-0.0714096 0.252404 0)
(-0.0886075 0.263581 0)
(-0.10441 0.266756 0)
(-0.118412 0.263228 0)
(-0.130444 0.254205 0)
(-0.140514 0.240764 0)
(-0.148747 0.223828 0)
(-0.155346 0.204162 0)
(-0.160552 0.182383 0)
(-0.164614 0.158977 0)
(-0.167774 0.134318 0)
(-0.17025 0.108682 0)
(-0.172229 0.0822734 0)
(-0.173855 0.0552396 0)
(-0.175229 0.0276882 0)
(-0.176405 -0.000295539 0)
(-0.177382 -0.0286314 0)
(-0.178107 -0.0572273 0)
(-0.178469 -0.0859597 0)
(-0.178298 -0.114653 0)
(-0.177368 -0.143057 0)
(-0.175394 -0.170818 0)
(-0.172049 -0.197456 0)
(-0.166973 -0.222329 0)
(-0.159801 -0.244616 0)
(-0.150204 -0.263287 0)
(-0.137937 -0.277105 0)
(-0.122913 -0.284638 0)
(-0.10528 -0.284307 0)
(-0.0855136 -0.274477 0)
(-0.0644939 -0.253594 0)
(-0.0435214 -0.220363 0)
(-0.0242914 -0.17395 0)
(-0.00922191 -0.114174 0)
(-0.00154806 -0.0417339 0)
(-0.00142889 0.0423836 0)
(-0.00841021 0.114682 0)
(-0.0219463 0.173298 0)
(-0.0389551 0.218116 0)
(-0.0571978 0.249897 0)
(-0.075191 0.269932 0)
(-0.0918657 0.279787 0)
(-0.106551 0.281112 0)
(-0.118932 0.275489 0)
(-0.128959 0.264343 0)
(-0.136772 0.248903 0)
(-0.142622 0.230186 0)
(-0.146825 0.20901 0)
(-0.149718 0.18601 0)
(-0.15163 0.161664 0)
(-0.152868 0.136323 0)
(-0.1537 0.110231 0)
(-0.15435 0.0835501 0)
(-0.154995 0.0563814 0)
(-0.155759 0.0287827 0)
(-0.156713 0.000785939 0)
(-0.15787 -0.027585 0)
(-0.159184 -0.0562975 0)
(-0.160545 -0.0852903 0)
(-0.161776 -0.114452 0)
(-0.162629 -0.143595 0)
(-0.162785 -0.172427 0)
(-0.161859 -0.200515 0)
(-0.15941 -0.227251 0)
(-0.154961 -0.251808 0)
(-0.14804 -0.27311 0)
(-0.138234 -0.289806 0)
(-0.125268 -0.300264 0)
(-0.109111 -0.302614 0)
(-0.090095 -0.294827 0)
(-0.0690344 -0.274876 0)
(-0.047288 -0.240961 0)
(-0.0267632 -0.191782 0)
(-0.010304 -0.126826 0)
(-0.0017645 -0.04671 0)
(-0.00164707 0.0469397 0)
(-0.00947893 0.126129 0)
(-0.0243313 0.18918 0)
(-0.0424792 0.236133 0)
(-0.0612693 0.268166 0)
(-0.0790384 0.287077 0)
(-0.094692 0.294934 0)
(-0.107642 0.293812 0)
(-0.117718 0.285625 0)
(-0.125045 0.272034 0)
(-0.129928 0.254417 0)
(-0.132773 0.233873 0)
(-0.134024 0.21125 0)
(-0.134119 0.187183 0)
(-0.133469 0.162123 0)
(-0.132438 0.136384 0)
(-0.131339 0.110161 0)
(-0.130431 0.0835663 0)
(-0.129915 0.056647 0)
(-0.129935 0.0294051 0)
(-0.130578 0.00181523 0)
(-0.131872 -0.0261595 0)
(-0.13378 -0.0545507 0)
(-0.136202 -0.0833659 0)
(-0.13896 -0.112567 0)
(-0.141798 -0.142044 0)
(-0.144376 -0.171583 0)
(-0.146264 -0.200824 0)
(-0.146947 -0.229219 0)
(-0.14584 -0.255976 0)
(-0.14232 -0.280005 0)
(-0.135778 -0.299868 0)
(-0.125712 -0.313753 0)
(-0.111842 -0.319477 0)
(-0.0942775 -0.314566 0)
(-0.0736879 -0.296411 0)
(-0.0514302 -0.262544 0)
(-0.0296175 -0.211007 0)
(-0.0116031 -0.14078 0)
(-0.00203509 -0.0523033 0)
(-0.00194139 0.052127 0)
(-0.0108567 0.138874 0)
(-0.027282 0.206377 0)
(-0.0466312 0.254969 0)
(-0.0657458 0.286458 0)
(-0.0827991 0.303356 0)
(-0.0967382 0.308379 0)
(-0.107141 0.304123 0)
(-0.114063 0.292877 0)
(-0.117861 0.276539 0)
(-0.119051 0.256619 0)
(-0.118215 0.234272 0)
(-0.115933 0.210348 0)
(-0.112745 0.185448 0)
(-0.109133 0.159978 0)
(-0.105511 0.13419 0)
(-0.102225 0.108222 0)
(-0.0995559 0.0821242 0)
(-0.0977201 0.0558842 0)
(-0.0968752 0.0294454 0)
(-0.0971206 0.00272284 0)
(-0.0984973 -0.0243818 0)
(-0.100984 -0.0519657 0)
(-0.104494 -0.0801084 0)
(-0.108863 -0.108852 0)
(-0.113843 -0.138173 0)
(-0.119088 -0.167955 0)
(-0.124145 -0.197937 0)
(-0.128447 -0.227665 0)
(-0.131313 -0.256423 0)
(-0.131973 -0.283158 0)
(-0.129609 -0.306399 0)
(-0.123447 -0.324187 0)
(-0.112888 -0.33404 0)
(-0.0977138 -0.33299 0)
(-0.0783307 -0.317731 0)
(-0.0559887 -0.28493 0)
(-0.0329628 -0.231703 0)
(-0.0132014 -0.156245 0)
(-0.00238473 -0.0586513 0)
(-0.00235305 0.0581462 0)
(-0.0126788 0.153232 0)
(-0.0309878 0.225057 0)
(-0.0515326 0.274497 0)
(-0.0705623 0.30433 0)
(-0.0861528 0.318065 0)
(-0.0974146 0.319256 0)