1.45 	0 	0 	-0.308331
2.35 	0 	0 	-0.118129
