1.45 	0 	0 	-0.292123
2.35 	0 	0 	-0.127435
