/*--------------------------------*- C++ -*----------------------------------*\
  =========                 |
  \\      /  F ield         | OpenFOAM: The Open Source CFD Toolbox
   \\    /   O peration     | Website:  https://openfoam.org
    \\  /    A nd           | Version:  6.0
     \\/     M anipulation  |
\*---------------------------------------------------------------------------*/
FoamFile
{
    version     2.0;
    format      ascii;
    class       volVectorField;
    location    "14";
    object      U;
}
// * * * * * * * * * * * * * * * * * * * * * * * * * * * * * * * * * * * * * //

dimensions      [0 1 -1 0 0 0 0];

internalField   nonuniform List<vector> 
2000
(
(-0.00199157 0.00173753 3.43635e-20)
(-0.00761308 0.00329842 3.64915e-20)
(-0.0153043 0.00365199 -3.3476e-20)
(-0.022283 0.0033208 -6.60444e-20)
(-0.0275945 0.00261598 -4.47942e-20)
(-0.0310882 0.00174111 5.81498e-20)
(-0.0328653 0.000842097 3.31131e-20)
(-0.033196 2.63039e-05 -1.31246e-20)
(-0.0325031 -0.000626505 -3.21938e-20)
(-0.0310871 -0.00105323 1.89317e-20)
(-0.00248934 0.0051188 -8.51605e-20)
(-0.00836059 0.00967288 1.05127e-19)
(-0.0156963 0.0106676 1.00916e-20)
(-0.0219699 0.00964683 -5.6661e-20)
(-0.0263645 0.00752598 2.63204e-19)
(-0.0288058 0.00490327 -1.12878e-19)
(-0.029443 0.00220856 -1.19382e-19)
(-0.0285731 -0.000237898 1.41124e-19)
(-0.026637 -0.00219261 -1.3675e-19)
(-0.0240098 -0.00346505 5.56632e-20)
(-0.00343402 0.00822102 1.41456e-20)
(-0.00971485 0.0153889 4.48378e-21)
(-0.0162666 0.0168365 3.03091e-19)
(-0.0210771 0.0150562 1.02793e-19)
(-0.023605 0.011513 1.97848e-20)
(-0.0239273 0.00716069 1.59546e-19)
(-0.0222857 0.00268778 -2.96222e-19)
(-0.019027 -0.00137979 6.29444e-21)
(-0.0146252 -0.00462284 -1.68672e-19)
(-0.00961073 -0.00671952 1.50307e-19)
(-0.00472031 0.0108633 -2.65946e-20)
(-0.0113854 0.0200323 1.36769e-19)
(-0.0165738 0.0216502 -3.83566e-19)
(-0.0190526 0.0190324 -4.79668e-20)
(-0.0186933 0.0140998 -2.65075e-19)
(-0.0157962 0.0080929 2.67512e-19)
(-0.0107363 0.00191008 -2.77374e-19)
(-0.00392478 -0.00373546 1.90926e-19)
(0.00412453 -0.00823173 7.88493e-20)
(0.0126327 -0.0111188 -7.2277e-20)
(-0.00618077 0.0128701 -2.95708e-19)
(-0.0129157 0.023223 2.35714e-21)
(-0.0159259 0.0246796 4.72258e-19)
(-0.0150279 0.021195 1.36963e-19)
(-0.0106414 0.0150123 -4.22758e-19)
(-0.00336126 0.00755628 2.56138e-19)
(0.00626634 -0.000145447 2.83942e-19)
(0.017761 -0.00723484 -2.48121e-19)
(0.0305789 -0.0128938 1.73841e-19)
(0.0435865 -0.0165179 3.46989e-20)
(-0.00757433 0.0140703 4.04384e-20)
(-0.0136633 0.0246253 6.69982e-21)
(-0.0133565 0.0255973 -6.03443e-19)
(-0.00778494 0.021336 -3.2654e-19)
(0.00195208 0.0142387 3.78282e-19)
(0.0148911 0.00578137 -4.31717e-19)
(0.0302714 -0.00300167 4.83733e-19)
(0.0475443 -0.0111969 -4.08772e-20)
(0.0661756 -0.0177977 -1.31063e-19)
(0.0845666 -0.022064 -3.11215e-19)
(-0.00857451 0.0143014 -8.77827e-20)
(-0.0127885 0.0239617 -1.4344e-19)
(-0.0076193 0.024191 -1.69653e-19)
(0.00425237 0.0194284 3.50153e-19)
(0.0209293 0.0120404 6.30924e-19)
(0.040999 0.00340565 -1.2703e-19)
(0.0634214 -0.0056025 -3.0258e-19)
(0.0875638 -0.01419 9.0431e-20)
(0.112985 -0.021267 -5.60047e-19)
(0.137551 -0.0260044 5.04719e-19)
(-0.0087655 0.0134233 5.36782e-19)
(-0.00927021 0.0210383 -2.61972e-19)
(0.00276845 0.0203724 4.92795e-19)
(0.0229557 0.0156022 -7.78681e-19)
(0.0485079 0.0088971 -3.61454e-19)
(0.0774765 0.00141828 -4.88008e-19)
(0.108433 -0.00630167 1.38534e-19)
(0.140584 -0.013859 -3.78762e-19)
(0.173711 -0.0203174 8.10326e-19)
(0.20526 -0.0249279 1.87277e-19)
(-0.00765745 0.0113483 3.92113e-20)
(-0.00196693 0.0157876 4.26764e-19)
(0.0194151 0.0141827 8.16408e-19)
(0.0503441 0.0100753 2.41522e-19)
(0.0871155 0.00534247 6.94045e-19)
(0.127152 0.000945294 3.71076e-20)
(0.168446 -0.00292062 -5.42327e-22)
(0.209776 -0.00632013 2.61444e-19)
(0.251163 -0.00864687 2.08137e-19)
(0.2902 -0.0101818 -5.6167e-19)
(-0.00473671 0.00808757 -3.17427e-19)
(0.0102518 0.00832853 -4.75937e-19)
(0.0438523 0.00578992 -6.66339e-19)
(0.0883496 0.00298172 1.50488e-20)
(0.139259 0.00144582 -3.19258e-19)
(0.193476 0.00214488 4.90431e-19)
(0.248423 0.00540266 -1.32056e-18)
(0.302146 0.0114106 5.81343e-19)
(0.353956 0.0207216 2.15116e-19)
(0.401271 0.0294269 5.66348e-19)
(0.000434684 0.00381036 1.58867e-19)
(0.0282589 -0.00093612 -5.43795e-19)
(0.0770806 -0.00442812 4.67506e-19)
(0.138007 -0.00568667 -1.7552e-19)
(0.206178 -0.00373795 1.85387e-19)
(0.278625 0.0023415 3.93639e-19)
(0.353502 0.0132839 -5.16603e-19)
(0.430392 0.0300098 6.59134e-20)
(0.510296 0.051829 -2.38614e-19)
(0.595685 0.0689938 4.21016e-19)
(0.00812224 -0.00110686 2.27189e-19)
(0.0524468 -0.0111612 -4.92662e-19)
(0.119103 -0.0154915 6.4646e-19)
(0.198298 -0.0152392 -3.89597e-19)
(0.284803 -0.0105557 -1.38763e-19)
(0.375557 -0.00130265 8.00685e-20)
(0.46874 0.0124283 4.04721e-20)
(0.563777 0.0303245 5.38713e-19)
(0.660359 0.0497501 1.52385e-19)
(0.756236 0.0620707 5.70135e-19)
(0.0184338 -0.00610168 -2.02618e-19)
(0.0828542 -0.0209923 6.3663e-19)
(0.169441 -0.02543 -5.1168e-19)
(0.267719 -0.0230433 -5.80835e-19)
(0.371978 -0.0153554 7.89127e-19)
(0.478716 -0.00316252 -5.85122e-19)
(0.585526 0.0126024 1.51049e-19)
(0.690847 0.0308305 -8.7813e-19)
(0.792933 0.0489032 6.46143e-19)
(0.887837 0.0614789 2.84753e-20)
(0.0313751 -0.0105455 -2.63843e-19)
(0.119281 -0.0288698 -2.28339e-19)
(0.227398 -0.0319493 -4.68192e-19)
(0.344845 -0.0260886 5.48775e-19)
(0.465467 -0.0142657 -2.69731e-20)
(0.585293 0.00181879 3.36214e-19)
(0.701378 0.020563 5.99936e-19)
(0.811476 0.040471 -1.80685e-19)
(0.913241 0.0594909 -6.28034e-19)
(1.0027 0.0746036 1.0971e-18)
(0.0468761 -0.0138295 -1.36268e-19)
(0.161283 -0.0332894 -1.45531e-19)
(0.291967 -0.0329353 2.52428e-19)
(0.428012 -0.0218373 -4.54013e-19)
(0.563023 -0.00445047 7.52392e-20)
(0.692784 0.0166705 6.53745e-20)
(0.814164 0.0393778 2.80554e-20)
(0.924807 0.0619665 -4.3444e-21)
(1.02253 0.0829532 -6.61415e-20)
(1.104 0.100719 -9.28225e-19)
(0.0647776 -0.0153909 5.53275e-19)
(0.208126 -0.0329248 -3.45536e-19)
(0.361709 -0.026672 4.25366e-21)
(0.515059 -0.00847562 -4.9065e-19)
(0.661897 0.015765 -1.70734e-19)
(0.79813 0.0427203 1.55451e-19)
(0.920918 0.0698196 1.18248e-19)
(1.02836 0.0952712 -4.12959e-19)
(1.11899 0.118107 3.31895e-19)
(1.1905 0.137523 -3.82755e-19)
(0.0847996 -0.0147178 2.38642e-19)
(0.258744 -0.0266847 -1.89929e-19)
(0.434721 -0.0119383 7.59956e-19)
(0.603326 0.0150097 7.5093e-20)
(0.758876 0.0469323 1.67375e-19)
(0.897897 0.0798729 7.27968e-19)
(1.01836 0.111017 -1.0865e-19)
(1.11933 0.138658 9.75446e-20)
(1.20047 0.162364 3.97782e-20)
(1.26073 0.181829 -4.26456e-20)
(0.106511 -0.0113594 1.66643e-19)
(0.311725 -0.0137545 3.58973e-19)
(0.508687 0.0119523 -3.70479e-19)
(0.68979 0.0488534 -1.21509e-19)
(0.850543 0.088639 -1.45823e-19)
(0.988658 0.126981 2.20111e-19)
(1.10343 0.161092 -1.12112e-19)
(1.19532 0.189588 2.95757e-19)
(1.26536 0.212674 9.80243e-20)
(1.31393 0.230397 -1.39599e-19)
(0.129317 -0.00495176 -1.7963e-19)
(0.365347 0.00635581 1.42986e-19)
(0.580994 0.0451303 -2.9384e-19)
(0.771278 0.092568 1.2267e-19)
(0.933576 0.13969 -1.23674e-19)
(1.06735 0.182177 -1.50591e-19)
(1.17368 0.217623 -1.18449e-19)
(1.25471 0.245257 1.29856e-19)
(1.31294 0.266049 -2.41091e-19)
(1.35019 0.280366 1.26837e-19)
(0.152463 0.00474484 -6.40078e-20)
(0.417643 0.0337568 -1.12184e-19)
(0.648886 0.0871552 5.14142e-20)
(0.844706 0.145013 3.03954e-21)
(1.00502 0.198279 4.01219e-20)
(1.13156 0.243138 5.37678e-20)
(1.22751 0.277974 4.88327e-20)
(1.2968 0.302923 -6.34457e-20)
(1.34337 0.319832 5.32698e-20)
(1.37036 0.329403 -7.22602e-20)
(0.175067 0.0178051 -3.70766e-20)
(0.466509 0.068129 -1.24631e-20)
(0.709644 0.137017 4.77835e-20)
(0.907291 0.204478 -2.12419e-20)
(1.0625 0.262154 5.51872e-20)
(1.17966 0.307304 -6.94763e-20)
(1.26417 0.339519 1.57141e-20)
(1.32174 0.360086 1.65336e-20)
(1.35756 0.371802 -6.87508e-21)
(1.37583 0.375714 2.23456e-20)
(0.196163 0.0341031 -4.00073e-20)
(0.509829 0.108693 -1.62213e-19)
(0.760767 0.193167 -1.08699e-20)
(0.956739 0.268784 3.14442e-21)
(1.10436 0.328771 -1.9142e-19)
(1.21083 0.372051 2.45771e-20)
(1.28376 0.399783 -2.05097e-20)
(1.33039 0.414576 -4.88197e-20)
(1.35689 0.420173 1.00544e-19)
(1.36828 0.417965 -1.57036e-19)
(0.214758 0.0532878 -1.93699e-20)
(0.545615 0.154209 3.2888e-19)
(0.800131 0.253577 5.09805e-20)
(0.99137 0.335406 -2.69792e-19)
(1.12968 0.395444 -2.12953e-20)
(1.22504 0.434818 -2.46013e-19)
(1.28702 0.456526 1.7673e-19)
(1.32411 0.464559 -6.33182e-20)
(1.34308 0.463536 1.10551e-19)
(1.3495 0.455167 -6.93959e-20)
(0.2299 0.0747742 -1.22082e-19)
(0.572145 0.203009 1.04914e-19)
(0.826129 0.315836 -7.29048e-20)
(1.0102 0.401604 5.30448e-19)
(1.13832 0.459473 2.54918e-19)
(1.22296 0.493204 -5.78582e-20)
(1.27528 0.507776 1.91342e-19)
(1.3046 0.508514 -1.23719e-19)
(1.318 0.500778 -3.43652e-20)
(1.32133 0.486565 1.90106e-19)
(0.240741 0.0977521 -2.11674e-19)
(0.588079 0.253066 2.41927e-19)
(0.837759 0.377269 -4.58342e-19)
(1.01296 0.464557 6.25834e-20)
(1.13082 0.518252 1.36583e-19)
(1.20583 0.545022 -2.02827e-19)
(1.25024 0.551825 -2.3469e-19)
(1.27378 0.545176 1.01986e-19)
(1.28359 0.530995 -1.21717e-19)
(1.28554 0.511546 1.25373e-19)
(0.246601 0.121213 -5.34332e-20)
(0.592552 0.302093 -2.46288e-19)
(0.834675 0.435075 1.30804e-19)
(1.00006 0.521494 2.14652e-19)
(1.10832 0.569359 -1.24898e-19)
(1.17533 0.588327 -9.16832e-20)
(1.21389 0.587207 -5.31843e-20)
(1.23373 0.573473 -2.58394e-20)
(1.2418 0.553401 3.95895e-21)
(1.24388 0.529538 4.90575e-20)
(0.247026 0.143995 4.01421e-20)
(0.58524 0.347666 -2.09524e-19)
(0.817182 0.48648 3.37182e-19)
(0.972523 0.569829 -1.92722e-19)
(1.07242 0.610636 5.50563e-20)
(1.13344 0.621446 -7.5379e-20)
(1.16834 0.612673 7.96015e-20)
(1.18651 0.592465 1.93228e-20)
(1.19454 0.567227 -2.18674e-20)
(1.19802 0.539864 3.61671e-20)
(0.241832 0.164847 -1.06189e-19)
(0.56639 0.387367 1.8669e-19)
(0.786203 0.52889 -7.4555e-21)
(0.931873 0.60727 -3.89478e-20)
(1.02507 0.640262 -9.69744e-20)
(1.08233 0.643013 1.29448e-20)
(1.11586 0.627227 1.75057e-20)
(1.13436 0.601401 -5.8848e-20)
(1.14394 0.571772 6.65616e-20)
(1.15004 0.541736 4.94383e-20)
(0.231144 0.182516 3.10139e-20)
(0.536811 0.418945 -4.49247e-20)
(0.743193 0.560036 7.38314e-21)
(0.87999 0.631915 1.90197e-20)
(0.96834 0.656751 2.42444e-20)
(1.02413 0.651881 -5.93285e-20)
(1.05866 0.629971 -1.28162e-19)
(1.0797 0.599559 -5.21493e-20)
(1.09296 0.566384 -6.61345e-20)
(1.10326 0.53451 4.42284e-20)
(0.215407 0.195845 5.65803e-20)
(0.49784 0.44049 -8.24653e-20)
(0.690033 0.578146 7.6987e-20)
(0.818915 0.642369 -1.45182e-19)
(0.904112 0.658977 3.37391e-20)
(0.960399 0.646888 2.29384e-19)
(0.997985 0.619319 -6.89652e-20)
(1.02386 0.584563 7.90632e-20)
(1.04337 0.547707 1.14938e-19)
(1.05957 0.514584 3.37493e-19)
(0.195394 0.203896 3.8793e-19)
(0.451305 0.450622 -2.34674e-19)
(0.628983 0.58217 5.52675e-19)
(0.750821 0.638127 -9.13126e-20)
(0.833981 0.64688 4.46954e-19)
(0.891668 0.628068 2.73182e-19)
(0.932928 0.594654 -6.26669e-19)
(0.964135 0.553739 9.34264e-19)
(0.989922 0.507674 -1.94666e-19)
(1.0071 0.460273 3.44103e-19)
(0.172167 0.206019 -2.14551e-19)
(0.399474 0.44854 -1.37982e-19)
(0.562767 0.571798 1.29814e-19)
(0.678383 0.619668 -3.06677e-19)
(0.760152 0.622101 -9.30367e-19)
(0.819206 0.598985 -3.65285e-19)
(0.863198 0.56309 -3.20784e-19)
(0.897562 0.521589 1.53069e-19)
(0.92553 0.477947 1.24747e-18)
(0.943399 0.436823 -2.33218e-19)
(0.146989 0.201839 1.14128e-19)
(0.344937 0.433892 -4.1437e-19)
(0.494533 0.547005 8.74542e-20)
(0.60503 0.587289 -6.1594e-19)
(0.686453 0.58509 1.30792e-18)
(0.747696 0.559918 -1.48155e-19)
(0.794976 0.523991 6.79428e-19)
(0.832756 0.484121 -9.52867e-19)
(0.863652 0.443775 2.94044e-19)
(0.885274 0.407021 4.11504e-20)
(0.121196 0.191247 8.42516e-20)
(0.290324 0.40675 4.56528e-19)
(0.427337 0.508089 -1.29203e-18)
(0.533872 0.541359 6.07258e-19)
(0.615944 0.536044 -1.52722e-21)
(0.680204 0.510608 -1.93875e-19)
(0.731506 0.476361 2.39041e-19)
(0.773484 0.439519 -2.32224e-19)
(0.808395 0.403209 -7.82862e-19)
(0.83473 0.370531 -1.9342e-19)
(0.0961162 0.174402 2.76658e-19)
(0.238155 0.367634 2.77644e-19)
(0.364012 0.455776 1.10247e-18)
(0.467638 0.482621 -5.93087e-19)
(0.551075 0.475552 1.18656e-18)
(0.618812 0.451351 -2.48881e-19)
(0.674445 0.42009 -2.56847e-19)
(0.720887 0.387222 2.97618e-19)
(0.760103 0.355414 1.90344e-19)
(0.791228 0.326897 6.21631e-19)
(0.0730067 0.151718 -2.81283e-19)
(0.190758 0.317501 8.22915e-20)
(0.307097 0.39124 2.15281e-20)
(0.408702 0.412238 6.05207e-19)
(0.493893 0.404633 -1.46627e-18)
(0.565182 0.382958 2.42841e-19)
(0.625045 0.355789 5.23313e-19)
(0.675765 0.327698 -6.19846e-19)
(0.719064 0.300845 2.14288e-19)
(0.754646 0.276757 -8.96711e-19)
(0.0530067 0.123858 5.99865e-20)
(0.150188 0.257717 2.89309e-19)
(0.258794 0.316072 1.08209e-19)
(0.359073 0.33176 1.41867e-19)
(0.446091 0.324671 2.63663e-19)
(0.520656 0.306616 7.64315e-19)
(0.584299 0.284469 -9.14293e-19)
(0.638778 0.261847 -5.04347e-19)
(0.685626 0.240401 8.20892e-20)
(0.725064 0.221117 5.8206e-19)
(0.0370916 0.0917106 -3.62854e-19)
(0.118172 0.190015 -3.85167e-20)
(0.22092 0.232229 -3.10859e-19)
(0.320388 0.24307 4.28369e-20)
(0.40903 0.23736 -2.496e-19)
(0.486308 0.223808 -2.77607e-19)
(0.553011 0.207432 -4.04197e-19)
(0.610492 0.190847 1.06682e-18)
(0.660153 0.17521 1.80624e-19)
(0.702651 0.161112 -2.48359e-19)
(0.0260335 0.056353 1.95612e-19)
(0.0960563 0.116429 2.31203e-19)
(0.194876 0.141968 8.75044e-20)
(0.293894 0.148321 -4.56949e-19)
(0.383743 0.14463 -2.06435e-19)
(0.46295 0.136232 -4.33186e-20)
(0.531799 0.12618 8.26531e-20)
(0.591365 0.116055 6.50402e-20)
(0.64297 0.106541 -4.93519e-19)
(0.687588 0.097944 2.55519e-19)
(0.0203675 0.0190085 -1.01879e-19)
(0.0847638 0.0392175 -1.03646e-19)
(0.181613 0.0477657 7.94342e-20)
(0.280434 0.0498573 6.81627e-20)
(0.370925 0.0485825 6.7805e-20)
(0.451133 0.0457381 1.00977e-19)
(0.521085 0.0423495 -5.21093e-21)
(0.581718 0.0389448 -1.2677e-19)
(0.634315 0.0357511 1.18212e-19)
(0.680017 0.0328617 -1.6045e-19)
(0.0203675 -0.0190085 -1.02546e-19)
(0.0847638 -0.0392174 -9.87616e-20)
(0.181613 -0.0477656 8.7539e-20)
(0.280434 -0.0498572 1.65634e-19)
(0.370925 -0.0485823 1.07089e-19)
(0.451133 -0.045738 -1.37445e-19)
(0.521085 -0.0423494 -7.29347e-20)
(0.581718 -0.0389446 3.11906e-20)
(0.634315 -0.0357509 6.88076e-20)
(0.680017 -0.0328616 -3.69624e-20)
(0.0260335 -0.0563529 2.4468e-19)
(0.0960563 -0.116428 -2.78032e-19)
(0.194876 -0.141968 -2.21969e-20)
(0.293894 -0.148321 1.43226e-19)
(0.383743 -0.14463 -6.28328e-19)
(0.46295 -0.136232 2.61479e-19)
(0.531799 -0.12618 2.63649e-19)
(0.591365 -0.116054 -3.04928e-19)
(0.64297 -0.106541 2.85988e-19)
(0.687588 -0.0979438 -1.13305e-19)
(0.0370916 -0.0917105 -4.23065e-20)
(0.118172 -0.190015 -4.78861e-21)
(0.22092 -0.232229 -7.22054e-19)
(0.320388 -0.24307 -2.21877e-19)
(0.40903 -0.23736 -2.25425e-20)
(0.486308 -0.223807 -3.45124e-19)
(0.553011 -0.207432 6.28292e-19)
(0.610492 -0.190846 -2.1708e-20)
(0.660153 -0.17521 3.45157e-19)
(0.702651 -0.161112 -2.73518e-19)
(0.0530067 -0.123858 7.14172e-20)
(0.150188 -0.257717 -2.95369e-19)
(0.258794 -0.316072 8.74747e-19)
(0.359073 -0.331759 1.19719e-19)
(0.446091 -0.324671 5.70726e-19)
(0.520656 -0.306616 -5.43265e-19)
(0.584299 -0.284469 5.57264e-19)
(0.638778 -0.261847 -3.93782e-19)
(0.685626 -0.240401 -1.69951e-19)
(0.725064 -0.221117 1.29919e-19)
(0.0730067 -0.151718 6.36936e-19)
(0.190758 -0.317501 1.49416e-21)
(0.307097 -0.39124 -9.20842e-19)
(0.408702 -0.412238 -2.58132e-19)
(0.493893 -0.404633 8.32384e-19)
(0.565182 -0.382957 -4.74978e-19)
(0.625045 -0.355789 -5.3733e-19)
(0.675765 -0.327698 4.73767e-19)
(0.719064 -0.300845 -3.16631e-19)
(0.754646 -0.276756 -6.14931e-20)
(0.0961162 -0.174402 -9.51286e-20)
(0.238155 -0.367634 -3.93805e-21)
(0.364012 -0.455776 9.97978e-19)
(0.467638 -0.482621 5.53224e-19)
(0.551075 -0.475552 -6.33128e-19)
(0.618812 -0.451351 7.47009e-19)
(0.674445 -0.42009 -7.91521e-19)
(0.720887 -0.387222 7.73808e-20)
(0.760102 -0.355414 2.272e-19)
(0.791228 -0.326897 4.72198e-19)
(0.121196 -0.191247 1.08468e-19)
(0.290323 -0.40675 1.55959e-19)
(0.427337 -0.508089 1.62818e-19)
(0.533872 -0.541359 -5.08843e-19)
(0.615944 -0.536043 -8.79179e-19)
(0.680204 -0.510608 1.8044e-19)
(0.731506 -0.476361 5.10985e-19)
(0.773484 -0.439519 -1.43234e-19)
(0.808395 -0.403209 8.45351e-19)
(0.83473 -0.370531 -7.42182e-19)
(0.146989 -0.201839 -6.13446e-19)
(0.344937 -0.433892 2.09669e-19)
(0.494533 -0.547005 -5.47195e-19)
(0.60503 -0.587289 8.54894e-19)
(0.686453 -0.585089 4.15084e-19)
(0.747696 -0.559918 5.7095e-19)
(0.794976 -0.523991 -1.28652e-19)
(0.832756 -0.484121 4.98926e-19)
(0.863652 -0.443775 -1.03702e-18)
(0.885274 -0.407021 -2.43101e-19)
(0.172167 -0.206019 3.70153e-20)
(0.399474 -0.44854 -3.67092e-19)
(0.562767 -0.571798 -5.62611e-19)
(0.678383 -0.619668 -2.31749e-19)
(0.760152 -0.622101 -6.35178e-19)
(0.819206 -0.598985 -6.34623e-20)
(0.863198 -0.56309 5.34785e-20)
(0.897562 -0.521589 -2.31226e-19)
(0.92553 -0.477947 -2.53686e-19)
(0.943399 -0.436823 6.02212e-19)
(0.195394 -0.203896 1.91961e-19)
(0.451304 -0.450622 2.38222e-19)
(0.628983 -0.58217 4.12478e-19)
(0.750821 -0.638127 1.82717e-20)
(0.83398 -0.64688 2.5965e-19)
(0.891668 -0.628068 -3.45095e-19)
(0.932928 -0.594654 1.03166e-18)
(0.964135 -0.553739 -4.45947e-19)
(0.989922 -0.507674 -2.15413e-19)
(1.0071 -0.460273 -5.84247e-19)
(0.215407 -0.195845 -7.50241e-20)
(0.49784 -0.44049 1.14137e-19)
(0.690033 -0.578145 -1.13374e-19)
(0.818915 -0.642369 6.00407e-20)
(0.904112 -0.658977 -6.91256e-20)
(0.960399 -0.646888 -1.73517e-19)
(0.997985 -0.619319 2.22873e-19)
(1.02386 -0.584562 -7.30775e-20)
(1.04337 -0.547707 1.08779e-19)
(1.05957 -0.514584 -1.91755e-19)
(0.231144 -0.182516 -1.17053e-21)
(0.53681 -0.418945 -6.3153e-20)
(0.743193 -0.560036 2.07042e-20)
(0.87999 -0.631915 6.42854e-20)
(0.96834 -0.656751 -3.32245e-20)
(1.02413 -0.651881 9.41203e-21)
(1.05866 -0.62997 -7.13624e-21)
(1.0797 -0.599559 -1.59936e-19)
(1.09296 -0.566384 -7.44727e-20)
(1.10326 -0.53451 -1.87574e-19)
(0.241832 -0.164847 -5.90866e-20)
(0.56639 -0.387367 1.87149e-19)
(0.786203 -0.52889 -1.14218e-19)
(0.931873 -0.60727 -4.64147e-20)
(1.02507 -0.640262 2.88155e-20)
(1.08233 -0.643013 2.31519e-20)
(1.11586 -0.627227 -6.38719e-22)
(1.13436 -0.601401 1.13695e-19)
(1.14394 -0.571772 -9.82456e-20)
(1.15004 -0.541736 -7.3026e-22)
(0.247026 -0.143995 -1.42207e-19)
(0.58524 -0.347666 -8.10636e-20)
(0.817181 -0.48648 -1.92875e-19)
(0.972523 -0.569829 2.12655e-19)
(1.07242 -0.610636 -1.50186e-20)
(1.13344 -0.621446 6.83645e-20)
(1.16834 -0.612673 7.95847e-20)
(1.18651 -0.592465 -2.77976e-20)
(1.19454 -0.567227 1.09808e-20)
(1.19802 -0.539864 -3.74493e-20)
(0.246601 -0.121213 -9.61062e-20)
(0.592552 -0.302093 -1.10449e-19)
(0.834674 -0.435075 1.61049e-19)
(1.00006 -0.521494 -2.35469e-19)
(1.10832 -0.569359 4.00529e-20)
(1.17533 -0.588327 2.02362e-20)
(1.21389 -0.587207 4.20573e-20)
(1.23373 -0.573473 -2.66317e-20)
(1.2418 -0.553401 -3.27033e-20)
(1.24388 -0.529538 -1.02312e-19)
(0.240741 -0.097752 4.00651e-19)
(0.588079 -0.253066 -2.80158e-19)
(0.837759 -0.377269 1.24594e-20)
(1.01296 -0.464557 -3.35891e-19)
(1.13082 -0.518252 -9.54049e-20)
(1.20583 -0.545022 7.46017e-20)
(1.25024 -0.551825 5.38095e-20)
(1.27378 -0.545176 -1.76288e-19)
(1.28359 -0.530995 7.89914e-20)
(1.28554 -0.511546 -1.17499e-19)
(0.2299 -0.0747742 1.9828e-19)
(0.572145 -0.203009 -1.75538e-19)
(0.826129 -0.315836 6.08132e-19)
(1.0102 -0.401604 4.7267e-20)
(1.13832 -0.459473 1.29725e-19)
(1.22296 -0.493204 4.53974e-19)
(1.27528 -0.507776 -9.14493e-20)
(1.30459 -0.508514 2.34034e-20)
(1.318 -0.500778 -1.15132e-20)
(1.32133 -0.486565 -1.89426e-20)
(0.214758 -0.0532878 1.52589e-19)
(0.545615 -0.154209 3.10937e-19)
(0.800131 -0.253577 -3.0561e-19)
(0.99137 -0.335406 -9.01496e-20)
(1.12968 -0.395444 -9.30541e-20)
(1.22504 -0.434818 1.7754e-19)
(1.28702 -0.456526 -8.22615e-20)
(1.32411 -0.464559 1.90864e-19)
(1.34308 -0.463536 4.5912e-20)
(1.3495 -0.455167 -6.82876e-20)
(0.196163 -0.0341031 -1.64877e-19)
(0.509829 -0.108693 1.36974e-19)
(0.760767 -0.193167 -2.70961e-19)
(0.956739 -0.268784 1.09847e-19)
(1.10436 -0.328771 -1.07032e-19)
(1.21083 -0.372051 -1.24302e-19)
(1.28376 -0.399783 -9.45835e-20)
(1.33039 -0.414576 1.0243e-19)
(1.35689 -0.420173 -1.75849e-19)
(1.36828 -0.417965 9.51691e-20)
(0.175066 -0.0178051 -6.17178e-20)
(0.466509 -0.068129 -1.08519e-19)
(0.709644 -0.137017 4.91382e-20)
(0.907291 -0.204477 3.47565e-21)
(1.0625 -0.262154 3.6805e-20)
(1.17966 -0.307304 5.14861e-20)
(1.26417 -0.339519 4.30406e-20)
(1.32174 -0.360086 -5.70314e-20)
(1.35756 -0.371802 4.59277e-20)
(1.37583 -0.375714 -6.25124e-20)
(0.152463 -0.00474485 -3.88881e-20)
(0.417643 -0.0337568 -1.40336e-20)
(0.648885 -0.0871552 5.04112e-20)
(0.844706 -0.145013 -2.19677e-20)
(1.00502 -0.198279 5.98751e-20)
(1.13156 -0.243138 -7.38115e-20)
(1.22751 -0.277974 1.8482e-20)
(1.2968 -0.302923 1.56046e-20)
(1.34337 -0.319832 -5.56335e-21)
(1.37036 -0.329403 2.19176e-20)
(0.129317 0.00495176 -4.66202e-20)
(0.365347 -0.00635582 -1.77153e-19)
(0.580993 -0.0451303 -1.37665e-20)
(0.771278 -0.092568 5.31564e-21)
(0.933576 -0.13969 -2.22666e-19)
(1.06735 -0.182177 2.29137e-20)
(1.17368 -0.217623 -2.37236e-20)
(1.25471 -0.245257 -6.34567e-20)
(1.31294 -0.266049 1.38348e-19)
(1.35019 -0.280366 -2.19235e-19)
(0.106511 0.0113594 -2.64443e-20)
(0.311725 0.0137545 3.80081e-19)
(0.508687 -0.0119524 4.88865e-20)
(0.689789 -0.0488534 -3.19783e-19)
(0.850543 -0.0886391 -3.70879e-20)
(0.988658 -0.126981 -3.41953e-19)
(1.10343 -0.161092 2.60137e-19)
(1.19532 -0.189588 -1.03736e-19)
(1.26536 -0.212674 1.93097e-19)
(1.31393 -0.230397 -1.49246e-19)
(0.0847996 0.0147178 -1.49644e-19)
(0.258744 0.0266847 1.56173e-19)
(0.434721 0.0119383 -1.05059e-19)
(0.603326 -0.0150098 7.02137e-19)
(0.758876 -0.0469323 3.61284e-19)
(0.897897 -0.0798729 -9.22983e-20)
(1.01836 -0.111018 3.50876e-19)
(1.11933 -0.138658 -2.25134e-19)
(1.20047 -0.162365 -7.15014e-20)
(1.26073 -0.181829 4.5145e-19)
(0.0647776 0.0153909 -2.76814e-19)
(0.208126 0.0329248 3.70053e-19)
(0.361709 0.026672 -6.75936e-19)
(0.515059 0.0084756 1.13202e-19)
(0.661896 -0.015765 2.74453e-19)
(0.798129 -0.0427203 -3.35962e-19)
(0.920918 -0.0698197 -5.82433e-19)
(1.02836 -0.0952713 3.06083e-19)
(1.11899 -0.118107 -3.91579e-19)
(1.1905 -0.137523 5.50844e-19)
(0.0468761 0.0138295 -6.84006e-20)
(0.161283 0.0332894 -3.72623e-19)
(0.291967 0.0329353 1.76978e-19)
(0.428011 0.0218372 4.28858e-19)
(0.563023 0.00445042 -2.23637e-19)
(0.692783 -0.0166705 -2.15314e-19)
(0.814163 -0.0393779 -3.57256e-19)
(0.924807 -0.0619666 -1.60584e-19)
(1.02253 -0.0829533 -3.79861e-20)
(1.104 -0.100719 5.50945e-19)
(0.0313751 0.0105455 1.15045e-19)
(0.119281 0.0288698 -5.0654e-19)
(0.227397 0.0319493 8.34394e-19)
(0.344844 0.0260886 -4.49249e-19)
(0.465466 0.0142657 2.8307e-19)
(0.585293 -0.00181886 -3.43269e-19)
(0.701378 -0.0205631 3.73824e-19)
(0.811476 -0.0404712 3.20159e-19)
(0.913241 -0.059491 6.87259e-19)
(1.0027 -0.0746038 -9.99729e-19)
(0.0184338 0.00610168 -3.57422e-19)
(0.0828542 0.0209923 6.42859e-19)
(0.169441 0.02543 8.3715e-21)
(0.267718 0.0230433 -2.15552e-19)
(0.371978 0.0153553 -1.11007e-19)
(0.478715 0.00316245 8.67681e-20)
(0.585526 -0.0126025 -6.02136e-19)
(0.690846 -0.0308306 4.56008e-19)
(0.792932 -0.0489034 -5.77405e-19)
(0.887837 -0.0614791 -2.31544e-19)
(0.00812224 0.00110687 6.15552e-19)
(0.0524468 0.0111613 -1.71838e-19)
(0.119103 0.0154915 -3.10677e-19)
(0.198298 0.0152393 8.16034e-19)
(0.284803 0.0105557 -7.78714e-19)
(0.375557 0.00130261 4.24243e-19)
(0.46874 -0.0124284 4.41954e-19)
(0.563777 -0.0303246 1.18575e-19)
(0.660358 -0.0497503 1.21053e-19)
(0.756236 -0.0620709 -1.50601e-19)
(0.000434693 -0.00381034 -5.89045e-19)
(0.0282589 0.000936155 5.01313e-19)
(0.0770806 0.00442817 -4.27135e-19)
(0.138007 0.00568671 5.18573e-19)
(0.206178 0.00373797 -1.50416e-19)
(0.278624 -0.00234152 -5.09688e-19)
(0.353501 -0.013284 1.42833e-19)
(0.430391 -0.0300099 -2.30965e-19)
(0.510296 -0.0518291 -2.68511e-19)
(0.595685 -0.068994 -7.3013e-19)
(-0.0047367 -0.00808755 -7.36657e-19)
(0.0102518 -0.00832847 5.24155e-19)
(0.0438523 -0.00578984 -9.88946e-19)
(0.0883496 -0.00298164 1.71074e-19)
(0.139259 -0.00144576 -6.4385e-19)
(0.193476 -0.00214484 -3.76574e-19)
(0.248423 -0.00540267 8.81254e-19)
(0.302146 -0.0114107 -1.18146e-18)
(0.353955 -0.0207217 2.23629e-19)
(0.401271 -0.0294271 -3.09543e-19)
(-0.00765743 -0.0113482 3.62987e-19)
(-0.0019669 -0.0157875 1.37702e-19)
(0.0194151 -0.0141826 -3.96075e-20)
(0.050344 -0.0100752 3.6361e-19)
(0.0871154 -0.00534236 1.03739e-18)
(0.127152 -0.000945208 3.49147e-19)
(0.168445 0.00292067 3.52836e-19)
(0.209776 0.00632013 -1.19503e-19)
(0.251162 0.00864681 -1.09769e-18)
(0.2902 0.0101816 2.31513e-19)
(-0.00876548 -0.0134232 -1.02651e-19)
(-0.00927017 -0.0210381 2.92344e-19)
(0.00276846 -0.0203722 -7.3739e-20)
(0.0229557 -0.015602 5.03391e-19)
(0.0485078 -0.00889694 -1.13013e-18)
(0.0774763 -0.00141814 9.36298e-20)
(0.108433 0.00630176 -5.12757e-19)
(0.140584 0.013859 7.40173e-19)
(0.17371 0.0203173 -2.12369e-19)
(0.205259 0.0249278 -2.50895e-20)
(-0.00857448 -0.0143013 -6.98411e-20)
(-0.0127885 -0.0239615 -3.51569e-19)
(-0.00761927 -0.0241908 8.51482e-19)
(0.00425236 -0.0194282 -4.34012e-19)
(0.0209292 -0.0120402 2.95285e-20)
(0.0409989 -0.00340546 1.3181e-19)
(0.0634212 0.00560264 -1.17999e-19)
(0.0875635 0.0141901 1.50132e-19)
(0.112985 0.021267 5.11555e-19)
(0.137551 0.0260043 1.09911e-19)
(-0.0075743 -0.0140702 -1.56866e-19)
(-0.0136632 -0.0246251 -1.56143e-19)
(-0.0133565 -0.025597 -6.66929e-19)
(-0.00778494 -0.0213357 3.43481e-19)
(0.00195202 -0.0142384 -6.87998e-19)
(0.014891 -0.00578113 1.52263e-19)
(0.0302712 0.00300185 1.674e-19)
(0.047544 0.011197 -1.73612e-19)
(0.0661753 0.0177977 -1.10392e-19)
(0.0845662 0.0220639 -4.05027e-19)
(-0.00618074 -0.01287 1.22689e-19)
(-0.0129157 -0.0232228 -2.58394e-20)
(-0.0159259 -0.0246793 4.57825e-22)
(-0.0150279 -0.0211947 -3.1015e-19)
(-0.0106414 -0.015012 7.62247e-19)
(-0.00336134 -0.007556 -1.15862e-19)
(0.00626619 0.000145672 -2.82733e-19)
(0.0177608 0.00723499 3.39179e-19)
(0.0305786 0.0128938 -1.17139e-19)
(0.0435861 0.0165178 5.26701e-19)
(-0.00472028 -0.0108632 -2.30408e-20)
(-0.0113854 -0.0200321 -1.20813e-19)
(-0.0165738 -0.0216499 -4.58914e-20)
(-0.0190526 -0.0190321 -5.6692e-20)
(-0.0186933 -0.0140995 -1.18305e-19)
(-0.0157962 -0.00809258 -3.62086e-19)
(-0.0107364 -0.00190982 4.42746e-19)
(-0.00392495 0.00373564 2.53567e-19)
(0.00412431 0.00823181 -4.45945e-20)
(0.0126324 0.0111188 -3.21985e-19)
(-0.003434 -0.00822089 1.30879e-19)
(-0.00971481 -0.0153886 2.04312e-20)
(-0.0162666 -0.0168362 1.33187e-19)
(-0.0210771 -0.0150558 -1.47703e-20)
(-0.023605 -0.0115126 1.1384e-19)
(-0.0239273 -0.00716034 1.2518e-19)
(-0.0222858 -0.0026875 1.83503e-19)
(-0.0190271 0.00137999 -5.09475e-19)
(-0.0146253 0.00462295 -9.23988e-20)
(-0.00961093 0.00671951 1.3389e-19)
(-0.00248933 -0.00511866 -6.61087e-20)
(-0.00836056 -0.00967259 -8.40264e-20)
(-0.0156963 -0.0106672 -3.88802e-20)
(-0.0219699 -0.00964642 1.83905e-19)
(-0.0263645 -0.00752558 8.66646e-20)
(-0.0288059 -0.0049029 1.7321e-20)
(-0.029443 -0.00220825 -3.67004e-20)
(-0.0285731 0.000238116 -2.7911e-20)
(-0.0266371 0.00219273 2.35373e-19)
(-0.0240099 0.00346506 -1.29388e-19)
(-0.00199157 -0.00173739 3.3706e-20)
(-0.00761307 -0.00329812 3.74993e-20)
(-0.0153043 -0.0036516 -3.07655e-20)
(-0.022283 -0.00332038 -2.72058e-20)
(-0.0275945 -0.00261557 -2.73869e-20)
(-0.0310882 -0.00174074 -4.25885e-20)
(-0.0328654 -0.000841786 1.33169e-21)
(-0.0331961 -2.60769e-05 5.66107e-20)
(-0.0325031 0.00062663 -5.58468e-20)
(-0.0310872 0.00105324 8.19548e-20)
(-0.00711332 -0.00263267 3.87851e-21)
(0.0641186 -0.00672183 2.40873e-21)
(0.282622 -0.00685045 3.44562e-22)
(0.385512 -0.00454281 -2.33091e-22)
(0.492098 -0.00392842 -1.73197e-23)
(0.574012 -0.00291481 4.53506e-23)
(0.631854 -0.00270818 6.23178e-23)
(0.706492 -0.00206603 -1.32012e-23)
(0.73305 -0.00213147 -1.1044e-24)
(0.813596 -0.00161275 1.04552e-22)
(0.0097686 -0.00820254 6.11501e-21)
(0.0794849 -0.0199994 2.29132e-22)
(0.294205 -0.020395 -4.39796e-21)
(0.394363 -0.0135295 3.757e-21)
(0.498893 -0.0117109 2.53561e-22)
(0.579278 -0.00869161 -2.15008e-22)
(0.636175 -0.00807821 2.59133e-22)
(0.70973 -0.0061617 2.80306e-23)
(0.735903 -0.00636118 5.30623e-23)
(0.815475 -0.00481858 -9.58069e-23)
(0.0432283 -0.0146584 6.39447e-21)
(0.10973 -0.0327934 -8.7175e-21)
(0.316932 -0.0334761 4.48728e-21)
(0.41174 -0.0222115 -3.16925e-21)
(0.512236 -0.0192577 2.47823e-22)
(0.58963 -0.0143092 -1.98674e-22)
(0.644676 -0.0133178 -1.00173e-22)
(0.716113 -0.0101655 1.68279e-24)
(0.741532 -0.0105081 -4.03776e-23)
(0.819191 -0.00796626 -1.3983e-22)
(0.0926462 -0.0224798 -9.8702e-21)
(0.153906 -0.0448019 -1.20915e-20)
(0.349944 -0.0458058 -5.80242e-21)
(0.43701 -0.0304024 3.23852e-21)
(0.531647 -0.0264235 -4.27497e-21)
(0.604722 -0.0196692 1.29113e-21)
(0.65709 -0.0183458 -8.19202e-23)
(0.725456 -0.01402 4.97972e-23)
(0.749791 -0.01452 -5.15055e-23)
(0.824662 -0.0110188 5.2034e-23)
(0.157066 -0.0319404 2.78542e-20)
(0.210653 -0.0557358 1.80188e-20)
(0.392023 -0.0571179 6.62563e-21)
(0.469271 -0.0379376 -6.46241e-21)
(0.556448 -0.0330796 3.541e-21)
(0.624061 -0.0246841 1.06151e-21)
(0.673031 -0.023089 8.53129e-22)
(0.737496 -0.0176735 9.87508e-23)
(0.760467 -0.0183486 1.15757e-22)
(0.831767 -0.013942 -2.75703e-22)
(0.235177 -0.0429772 -1.25853e-20)
(0.278258 -0.0652834 9.48607e-21)
(0.44165 -0.0671588 1.19963e-21)
(0.507405 -0.044672 7.42559e-21)
(0.585796 -0.0391151 -1.7455e-21)
(0.647034 -0.0292792 -1.31964e-21)
(0.692022 -0.0274839 -8.83671e-22)
(0.751904 -0.0210815 -6.4939e-23)
(0.773291 -0.0219512 -6.33581e-23)
(0.840353 -0.0167049 2.96666e-22)
(0.325317 -0.0553183 -9.70724e-21)
(0.354714 -0.0731808 -2.57835e-20)
(0.497095 -0.0757243 -4.51922e-21)
(0.550139 -0.0504882 -4.0904e-21)
(0.61874 -0.0444431 2.14973e-21)
(0.672944 -0.0333947 -6.23131e-22)
(0.713515 -0.0314792 9.28882e-22)
(0.768299 -0.0242071 1.84854e-22)
(0.787955 -0.025292 -1.90679e-23)
(0.850238 -0.0192805 1.14295e-22)