1.275 	2.15223e-18 	-2.76991e-20 	-0.0341803 	-0.000447905 	-1.97164e-22
1.825 	2.15223e-18 	-1.39322e-20 	-0.0089513 	-0.00276794 	1.76658e-21
2.375 	2.15223e-18 	-2.66896e-23 	0.116771 	-0.00325159 	-7.37469e-22
