1.275 	2.15223e-18 	-2.76991e-20 	-0.0343016 	-0.000451383 	-1.9534e-22
1.825 	2.15223e-18 	-1.39322e-20 	-0.00917277 	-0.00277646 	1.74372e-21
2.375 	2.15223e-18 	-2.66896e-23 	0.116136 	-0.00325181 	-7.27845e-22
