1.275 	2.15223e-18 	-2.76991e-20 	-0.304151
1.825 	2.15223e-18 	-1.39322e-20 	-0.192247
2.375 	2.15223e-18 	-2.66896e-23 	-0.163754
