/*--------------------------------*- C++ -*----------------------------------*\
  =========                 |
  \\      /  F ield         | OpenFOAM: The Open Source CFD Toolbox
   \\    /   O peration     | Website:  https://openfoam.org
    \\  /    A nd           | Version:  6.0
     \\/     M anipulation  |
\*---------------------------------------------------------------------------*/
FoamFile
{
    version     2.0;
    format      ascii;
    class       volScalarField;
    location    "46";
    object      p;
}
// * * * * * * * * * * * * * * * * * * * * * * * * * * * * * * * * * * * * * //

dimensions      [0 2 -2 0 0 0 0];

internalField   nonuniform List<scalar> 
2000
(
-0.348054
-0.35396
-0.355649
-0.35498
-0.35312
-0.350443
-0.347228
-0.343766
-0.340346
-0.33665
-0.350772
-0.356259
-0.357607
-0.356636
-0.354489
-0.351537
-0.348059
-0.344337
-0.340662
-0.336846
-0.356227
-0.360855
-0.361513
-0.359933
-0.357204
-0.353697
-0.349683
-0.345424
-0.341221
-0.337161
-0.364462
-0.36775
-0.367345
-0.364839
-0.361228
-0.356875
-0.352038
-0.346935
-0.341885
-0.337435
-0.375534
-0.37694
-0.375074
-0.371315
-0.36652
-0.361025
-0.355056
-0.348755
-0.342455
-0.337412
-0.389509
-0.388411
-0.384659
-0.379322
-0.373048
-0.366122
-0.358704
-0.350799
-0.342723
-0.336764
-0.40642
-0.40212
-0.396041
-0.388818
-0.380806
-0.372207
-0.363077
-0.353186
-0.342687
-0.33523
-0.426212
-0.41797
-0.409128
-0.399742
-0.389779
-0.379323
-0.368288
-0.356046
-0.342103
-0.33166
-0.448671
-0.435786
-0.423805
-0.412052
-0.400007
-0.387563
-0.374323
-0.358762
-0.338677
-0.321365
-0.473364
-0.455305
-0.439973
-0.425898
-0.412112
-0.398416
-0.384052
-0.366387
-0.341347
-0.31737
-0.499605
-0.4761
-0.457361
-0.441191
-0.426462
-0.41355
-0.402796
-0.394839
-0.394976
-0.414509
-0.526568
-0.497594
-0.475353
-0.456822
-0.440486
-0.426803
-0.41625
-0.409886
-0.412842
-0.430113
-0.553532
-0.51933
-0.493676
-0.472674
-0.45431
-0.438948
-0.426955
-0.419049
-0.418341
-0.426159
-0.579846
-0.540834
-0.512017
-0.488573
-0.467937
-0.450293
-0.435802
-0.424716
-0.418514
-0.417176
-0.604763
-0.561441
-0.529753
-0.503876
-0.480663
-0.460098
-0.442139
-0.426664
-0.414094
-0.404467
-0.627294
-0.580215
-0.545938
-0.517575
-0.491432
-0.467359
-0.445233
-0.424743
-0.405721
-0.388933
-0.646154
-0.595948
-0.559342
-0.528388
-0.498957
-0.470906
-0.444198
-0.418527
-0.393475
-0.370821
-0.659783
-0.607184
-0.568504
-0.534831
-0.501808
-0.469481
-0.438067
-0.407413
-0.377067
-0.349892
-0.66642
-0.612284
-0.571802
-0.535312
-0.498509
-0.461829
-0.425879
-0.390737
-0.356037
-0.325649
-0.664198
-0.60951
-0.56754
-0.528218
-0.48763
-0.446779
-0.406746
-0.367861
-0.329868
-0.297502
-0.651261
-0.597119
-0.554049
-0.512022
-0.467879
-0.423326
-0.379939
-0.338259
-0.298114
-0.264918
-0.625875
-0.57347
-0.529793
-0.485385
-0.438197
-0.390711
-0.344954
-0.301594
-0.260486
-0.227525
-0.586566
-0.537155
-0.493493
-0.447269
-0.397846
-0.348485
-0.301562
-0.257772
-0.216921
-0.185189
-0.532237
-0.487116
-0.444239
-0.397022
-0.346473
-0.296548
-0.249844
-0.206974
-0.167623
-0.13805
-0.462285
-0.422755
-0.381582
-0.334449
-0.284131
-0.235152
-0.190176
-0.149649
-0.113067
-0.0865354
-0.376709
-0.344036
-0.305615
-0.259839
-0.211283
-0.164857
-0.12316
-0.0864157
-0.0538892
-0.0312689
-0.276195
-0.251565
-0.21702
-0.173992
-0.128786
-0.0865073
-0.0495659
-0.0179739
0.00918961
0.0269225
-0.162184
-0.146628
-0.117082
-0.0781969
-0.0378756
-0.00124213
0.0295482
0.0545587
0.074628
0.086009
-0.0368862
-0.0312002
-0.00765137
0.0258732
0.0600639
0.0898854
0.113324
0.129969
0.139903
0.142274
0.0967439
0.0920781
0.108859
0.136188
0.16371
0.186699
0.203187
0.211554
0.21052
0.203791
0.23513
0.219941
0.229347
0.249854
0.270604
0.287718
0.299922
0.305404
0.304357
0.318275
0.374378
0.348743
0.350198
0.363017
0.376038
0.386012
0.392065
0.393307
0.392229
0.405153
0.510542
0.474813
0.468005
0.472557
0.47721
0.479289
0.478226
0.473605
0.467912
0.473015
0.639778
0.594541
0.579476
0.575574
0.571675
0.565687
0.557351
0.546517
0.535259
0.532417
0.758422
0.704489
0.681516
0.669407
0.657241
0.643493
0.628182
0.611345
0.594675
0.584728
0.86309
0.801489
0.771307
0.751663
0.731954
0.711178
0.689591
0.667379
0.645864
0.629708
0.950765
0.882734
0.846362
0.820226
0.794063
0.767314
0.740435
0.713724
0.688148
0.66679
1.01889
0.945856
0.904586
0.873311
0.842065
0.810639
0.779643
0.749455
0.720735
0.695319
1.06547
0.989003
0.944344
0.909512
0.874764
0.840128
0.80632
0.773769
0.742904
0.714703
1.08911
1.0109
0.96451
0.927861
0.891326
0.855059
0.819825
0.78608
0.754128
0.724509
1.08911
1.0109
0.96451
0.927861
0.891326
0.855059
0.819825
0.78608
0.754128
0.724509
1.06547
0.989003
0.944344
0.909512
0.874764
0.840128
0.80632
0.773769
0.742904
0.714703
1.01889
0.945856
0.904586
0.873311
0.842065
0.810639
0.779643
0.749455
0.720735
0.695319
0.950765
0.882734
0.846361
0.820226
0.794063
0.767314
0.740435
0.713724
0.688148
0.66679
0.86309
0.801489
0.771307
0.751663
0.731954
0.711178
0.689591
0.667379
0.645864
0.629708
0.758422
0.704489
0.681516
0.669407
0.657241
0.643493
0.628182
0.611345
0.594675
0.584728
0.639778
0.594541
0.579476
0.575574
0.571675
0.565687
0.557351
0.546517
0.535259
0.532417
0.510542
0.474813
0.468005
0.472557
0.47721
0.479289
0.478226
0.473605
0.467912
0.473015
0.374378
0.348743
0.350198
0.363017
0.376038
0.386011
0.392064
0.393307
0.392229
0.405152
0.23513
0.219941
0.229346
0.249854
0.270604
0.287717
0.299922
0.305404
0.304357
0.318275
0.0967437
0.0920778
0.108859
0.136188
0.163709
0.186699
0.203186
0.211554
0.210519
0.20379
-0.0368864
-0.0312005
-0.00765165
0.0258729
0.0600637
0.0898852
0.113324
0.129968
0.139902
0.142273
-0.162185
-0.146629
-0.117083
-0.0781972
-0.0378759
-0.0012424
0.0295479
0.0545584
0.0746278
0.0860088
-0.276196
-0.251565
-0.217021
-0.173992
-0.128786
-0.0865076
-0.0495662
-0.0179742
0.00918935
0.0269223
-0.376709
-0.344036
-0.305616
-0.25984
-0.211284
-0.164858
-0.12316
-0.0864161
-0.0538895
-0.0312692
-0.462286
-0.422755
-0.381583
-0.334449
-0.284132
-0.235152
-0.190176
-0.149649
-0.113067
-0.0865357
-0.532238
-0.487117
-0.444239
-0.397023
-0.346473
-0.296548
-0.249844
-0.206974
-0.167623
-0.138051
-0.586566
-0.537156
-0.493494
-0.447269
-0.397847
-0.348485
-0.301562
-0.257772
-0.216921
-0.185189
-0.625875
-0.57347
-0.529793
-0.485386
-0.438198
-0.390712
-0.344954
-0.301594
-0.260487
-0.227526
-0.651262
-0.597119
-0.55405
-0.512023
-0.46788
-0.423327
-0.37994
-0.33826
-0.298115
-0.264918
-0.664198
-0.609511
-0.567541
-0.528219
-0.487631
-0.44678
-0.406746
-0.367862
-0.329869
-0.297503
-0.666421
-0.612285
-0.571802
-0.535313
-0.49851
-0.46183
-0.425879
-0.390738
-0.356037
-0.32565
-0.659784
-0.607185
-0.568505
-0.534832
-0.501809
-0.469482
-0.438068
-0.407414
-0.377068
-0.349893
-0.646154
-0.595949
-0.559343
-0.528389
-0.498958
-0.470907
-0.444198
-0.418527
-0.393475
-0.370822
-0.627295
-0.580216
-0.545939
-0.517576
-0.491433
-0.46736
-0.445234
-0.424743
-0.405722
-0.388934
-0.604764
-0.561441
-0.529754
-0.503877
-0.480664
-0.460099
-0.44214
-0.426665
-0.414095
-0.404468
-0.579847
-0.540835
-0.512018
-0.488574
-0.467938
-0.450294
-0.435803
-0.424717
-0.418515
-0.417177
-0.553532
-0.51933
-0.493677
-0.472675
-0.454311
-0.438949
-0.426956
-0.41905
-0.418342
-0.426159
-0.526569
-0.497595
-0.475354
-0.456823
-0.440486
-0.426804
-0.416251
-0.409887
-0.412843
-0.430114
-0.499606
-0.476101
-0.457362
-0.441192
-0.426463
-0.413551
-0.402797
-0.39484
-0.394977
-0.41451
-0.473365
-0.455306
-0.439974
-0.425899
-0.412113
-0.398417
-0.384053
-0.366388
-0.341348
-0.317371
-0.448672
-0.435787
-0.423806
-0.412053
-0.400007
-0.387564
-0.374323
-0.358763
-0.338678
-0.321366
-0.426212
-0.417971
-0.409129
-0.399742
-0.389779
-0.379324
-0.368289
-0.356047
-0.342104
-0.331661
-0.406421
-0.402121
-0.396042
-0.388818
-0.380807
-0.372207
-0.363077
-0.353186
-0.342688
-0.335231
-0.38951
-0.388411
-0.38466
-0.379323
-0.373049
-0.366123
-0.358705
-0.3508
-0.342724
-0.336764
-0.375535
-0.37694
-0.375075
-0.371316
-0.366521
-0.361026
-0.355057
-0.348756
-0.342456
-0.337413
-0.364462
-0.36775
-0.367345
-0.364839
-0.361229
-0.356876
-0.352039
-0.346936
-0.341885
-0.337435
-0.356228
-0.360855
-0.361513
-0.359933
-0.357204
-0.353697
-0.349683
-0.345425
-0.341221
-0.337161
-0.350772
-0.356259
-0.357607
-0.356637
-0.354489
-0.351537
-0.348059
-0.344337
-0.340662
-0.336846
-0.348054
-0.35396
-0.355649
-0.35498
-0.35312
-0.350443
-0.347228
-0.343766
-0.340346
-0.33665
-0.29044
-0.126298
-0.0812327
-0.0303291
-0.0192237
-0.00778989
-0.00434877
-0.000877439
-0.000459038
0.00217096
-0.29167
-0.126846
-0.0815034
-0.0305278
-0.0192916
-0.00784944
-0.00437815
-0.000897987
-0.000468309
0.00215497
-0.294062
-0.127928
-0.082039
-0.0309263
-0.0194271
-0.00796846
-0.00443705
-0.000939273
-0.00048663
0.00212322
-0.297473
-0.129519
-0.0828282
-0.0315267
-0.01963
-0.0081465
-0.00452532
-0.00100117
-0.000513845
0.00207612
-0.301658
-0.131575
-0.0838449
-0.0323271
-0.0198983
-0.00838219
-0.00464248
-0.00108347
-0.000549672
0.00201409
-0.306262
-0.134021
-0.0850397
-0.0333138
-0.020226
-0.00867194
-0.0047873
-0.00118564
-0.000593754
0.00193781
-0.311154
-0.136926
-0.0864179
-0.0344821
-0.0206141
-0.00901302
-0.00495925
-0.00130673
-0.000646293
0.00184882
-0.316857
-0.140941
-0.0882423
-0.0359327
-0.0211056
-0.00941885
-0.00516435
-0.00144705
-0.000708834
0.00174992
-0.321634
-0.146446
-0.0906911
-0.0378308
-0.0217512
-0.00991651
-0.00541178
-0.001612
-0.000779776
0.00163854
-0.31383
-0.148822
-0.0918019
-0.0395324
-0.0222535
-0.0104084
-0.00565642
-0.00180288
-0.000839509
0.00149181
-0.247298
-0.140725
-0.0881807
-0.0427878
-0.0227521
-0.0117398
-0.0063729
-0.00254254
-0.00100514
0.000838443
-0.189203
-0.131716
-0.0821775
-0.044246
-0.0244854
-0.0141321
-0.00822214
-0.00402628
-0.00176646
-3.42158e-06
-0.147787
-0.113859
-0.0727482
-0.0428149
-0.0259112
-0.0163383
-0.0101576
-0.00561806
-0.00270068
-0.000683071
-0.108194
-0.0929574
-0.0633282
-0.0408455
-0.0269608
-0.0181337
-0.0118326
-0.00705327
-0.00359122
-0.00115378
-0.0789562
-0.075685
-0.0565278
-0.0395901
-0.027785
-0.0194791
-0.0131451
-0.00820737
-0.00433837
-0.00145207
-0.0588645
-0.062838
-0.0515678
-0.0385903
-0.0281962
-0.0203263
-0.014072
-0.00906174
-0.00491649
-0.0016455
-0.045839
-0.0535769
-0.047706
-0.0376201
-0.0282842
-0.0208077
-0.0146958
-0.00966995
-0.00534496
-0.00178204
-0.0375946
-0.0471176
-0.044744
-0.036767
-0.0282393
-0.0210774
-0.015104
-0.0100869
-0.0056476
-0.00188078
-0.0327728
-0.0430167
-0.0427365
-0.036164
-0.0281831
-0.0212238
-0.0153489
-0.0103462
-0.00584052
-0.00194533
-0.0305423
-0.0410152
-0.0417255
-0.035867
-0.0281593
-0.0212886
-0.015462
-0.0104682
-0.00593486
-0.00197558
-0.218597
-0.246494
-0.272273
-0.296217
-0.318711
-0.340261
-0.361485
-0.383029
-0.405395
-0.429237
-0.0679518
-0.0780943
-0.0872589
-0.0956888
-0.103691
-0.111647
-0.120013
-0.129329
-0.140175
-0.154342
-0.0451806
-0.0543624
-0.0631585
-0.0715424
-0.0794764
-0.0869157
-0.0938169
-0.100153
-0.105921
-0.111242
-0.0187573
-0.0244773
-0.0299909
-0.0353172
-0.0404779
-0.0454964
-0.0503959
-0.0551984
-0.059904
-0.0643919
-0.0130481
-0.017404
-0.0216352
-0.0257384
-0.0297098
-0.0335452
-0.0372413
-0.040795
-0.0441868
-0.0473852
-0.00799365
-0.0112109
-0.0143688
-0.0174664
-0.020503
-0.0234781
-0.0263913
-0.0292411
-0.0320159
-0.0347192
-0.00687006
-0.00940693
-0.0119075
-0.0143677
-0.016784
-0.0191533
-0.0214732
-0.0237409
-0.0259506
-0.0281156
-0.00606905
-0.00812693
-0.0101683
-0.0121891
-0.0141855
-0.0161541
-0.018092
-0.0199959
-0.0218627
-0.0236996
-0.00598144
-0.00775611
-0.00952283
-0.0112771
-0.0130148
-0.0147319
-0.016425
-0.0180908
-0.0197272
-0.0213355
-0.00592544
-0.00755142
-0.00917477
-0.0107917
-0.0123988
-0.0139927
-0.0155702
-0.0171285
-0.0186662
-0.0201814
0.168002
0.127015
0.0816667
0.0385976
-0.00314073
-0.0440197
-0.083423
-0.120768
-0.155786
-0.188393
0.117533
0.0916177
0.0648259
0.0419872
0.0218671
0.00319337
-0.0141169
-0.0298529
-0.043988
-0.0566373
0.0734127
0.0577147
0.0427617
0.0298497
0.0179984
0.00653179
-0.0046211
-0.0153723
-0.0256988
-0.0356271
0.053157
0.0440841
0.0354551
0.0277447
0.0204784
0.0133859
0.00646932
-0.000212562
-0.00663848
-0.0128156
0.0376205
0.0316692
0.025929
0.0206384
0.0155481
0.0105271
0.00558213
0.000744532
-0.00397317
-0.00857055
0.0273591
0.0234702
0.0196249
0.0159872
0.0124447
0.00892939
0.00544267
0.00200132
-0.00138636
-0.00471834
0.0196566
0.0169282
0.014173
0.0114964
0.00885042
0.00620209
0.00355322
0.00091498
-0.00170477
-0.00430119
0.0144763
0.0124812
0.010436
0.00840291
0.00636546
0.00431
0.00223891
0.00015972
-0.00192122
-0.00399898
0.0111458
0.00955086
0.00790694
0.00624324
0.00455497
0.00283901
0.00109924
-0.000658195
-0.00242754
-0.00420362
0.00954969
0.00812906
0.00666512
0.0051721
0.00364936
0.00209798
0.000522259
-0.00107262
-0.00268182
-0.00430085
0.335417
0.334717
0.333167
0.330293
0.325309
0.316978
0.303528
0.282567
0.25146
0.206843
0.245519
0.244403
0.241767
0.237183
0.230312
0.220727
0.207856
0.19104
0.169533
0.142778
0.174689
0.173559
0.170893
0.166368
0.159878
0.151314
0.140488
0.127184
0.110996
0.0920095
0.123079
0.122193
0.120091
0.116529
0.111489
0.104998
0.097048
0.0876498
0.076725
0.0646088
0.0867455
0.086101
0.0845621
0.081949
0.0782691
0.0735747
0.0679
0.0612831
0.0537044
0.0453727
0.0615666
0.0611032
0.0599946
0.0581125
0.05547
0.0521183
0.0480992
0.0434566
0.038208
0.0324998
0.0444154
0.0440769
0.0432667
0.0418915
0.0399627
0.0375208
0.0345993
0.0312311
0.0274356
0.0232968
0.03313
0.0328732
0.0322587
0.0312156
0.0297533
0.0279033
0.0256923
0.0231454
0.0202831
0.0171572
0.0262943
0.0260858
0.0255871
0.0247407
0.023554
0.0220521
0.0202561
0.0181851
0.0158568
0.0133024
0.0230739
0.0228874
0.0224422
0.0216871
0.0206284
0.0192879
0.0176846
0.0158344
0.0137545
0.0114674
0.485391
0.487143
0.493477
0.504623
0.520474
0.541334
0.567668
0.6
0.638868
0.684516
0.483149
0.484877
0.49113
0.50212
0.517723
0.538205
0.563975
0.595469
0.633089
0.676923
0.478719
0.480401
0.486501
0.497188
0.512305
0.532047
0.556705
0.586547
0.621697
0.661947
0.472199
0.473826
0.479716
0.489971
0.504388
0.523054
0.546091
0.573509
0.605016
0.639993
0.463729
0.465305
0.470946
0.480666
0.494197
0.511493
0.532453
0.556742
0.583509
0.611648
0.453476
0.455025
0.460399
0.4695
0.481991
0.497664
0.516151
0.536697
0.557749
0.577649
0.441637
0.443226
0.448353
0.456791
0.468131
0.481977
0.497655
0.513912
0.52841
0.538861
0.428418
0.430233
0.435248
0.443098
0.453313
0.465282
0.477951
0.489432
0.496496
0.49608
0.413889
0.41618
0.421274
0.42866
0.437855
0.448028
0.457679
0.46409
0.462879
0.4488
0.397687
0.400122
0.404789
0.411046
0.418425
0.425976
0.431924
0.433048
0.424582
0.396879
0.397687
0.400122
0.404789
0.411046
0.418426
0.425976
0.431924
0.433048
0.424582
0.396879
0.413889
0.41618
0.421275
0.42866
0.437856
0.448028
0.457679
0.46409
0.462879
0.4488
0.428418
0.430234
0.435249
0.443098
0.453313
0.465282
0.477951
0.489432
0.496496
0.49608
0.441637
0.443226
0.448353
0.456792
0.468132
0.481977
0.497655
0.513912
0.52841
0.538861
0.453476
0.455025
0.460399
0.4695
0.481991
0.497664
0.516151
0.536697
0.557749
0.577649
0.463729
0.465305
0.470946
0.480666
0.494197
0.511493
0.532453
0.556743
0.583509
0.611648
0.472199
0.473826
0.479716
0.489971
0.504388
0.523054
0.546091
0.573509
0.605016
0.639993
0.478719
0.480401
0.486501
0.497188
0.512305
0.532047
0.556705
0.586547
0.621697
0.661947
0.483149
0.484877
0.49113
0.50212
0.517723
0.538205
0.563975
0.595469
0.633089
0.676923
0.485391
0.487143
0.493477
0.504623
0.520474
0.541334
0.567668
0.6
0.638868
0.684516
0.023074
0.0228875
0.0224423
0.0216872
0.0206284
0.019288
0.0176846
0.0158345
0.0137545
0.0114674
0.0262944
0.0260859
0.0255871
0.0247408
0.0235541
0.0220522
0.0202562
0.0181852
0.0158569
0.0133025
0.03313
0.0328733
0.0322587
0.0312157
0.0297534
0.0279034
0.0256924
0.0231455
0.0202832
0.0171573
0.0444155
0.0440769
0.0432668
0.0418915
0.0399628
0.0375208
0.0345994
0.0312312
0.0274357
0.0232969
0.0615666
0.0611032
0.0599947
0.0581125
0.05547
0.0521184
0.0480993
0.0434566
0.0382081
0.0324999
0.0867455
0.0861011
0.0845621
0.0819491
0.0782691
0.0735747
0.0679
0.0612832
0.0537045
0.0453727
0.123079
0.122194
0.120091
0.116529
0.111489
0.104998
0.0970481
0.0876498
0.076725
0.0646088
0.174689
0.17356
0.170893
0.166368
0.159878
0.151314
0.140488
0.127184
0.110996
0.0920095
0.245519
0.244403
0.241767
0.237183
0.230312
0.220727
0.207856
0.19104
0.169533
0.142778
0.335417
0.334717
0.333168
0.330293
0.325309
0.316978
0.303529
0.282567
0.25146
0.206843
0.0095498
0.0081292
0.00666527
0.00517224
0.0036495
0.0020981
0.000522376
-0.00107251
-0.00268172
-0.00430076
0.0111459
0.00955096
0.00790704
0.00624334
0.00455507
0.00283911
0.00109934
-0.000658092
-0.00242744
-0.00420352
0.0144764
0.0124814
0.0104361
0.00840303
0.00636557
0.00431011
0.00223902
0.000159823
-0.00192112
-0.00399889
0.0196567
0.0169283
0.0141731
0.0114965
0.00885051
0.00620218
0.0035533
0.000915058
-0.00170469
-0.00430112
0.0273591
0.0234702
0.019625
0.0159873
0.0124448
0.00892946
0.00544274
0.00200138
-0.00138631
-0.0047183
0.0376205
0.0316692
0.025929
0.0206384
0.0155482
0.0105272
0.00558215
0.000744543
-0.00397317
-0.00857056
0.053157
0.0440841
0.0354551
0.0277447
0.0204784
0.0133859
0.00646933
-0.000212563
-0.00663849
-0.0128156
0.0734127
0.0577147
0.0427617
0.0298496
0.0179984
0.00653174
-0.00462117
-0.0153724
-0.0256989
-0.0356272
0.117533
0.0916177
0.0648259
0.0419871
0.021867
0.00319326
-0.0141171
-0.0298531
-0.0439881
-0.0566376
0.168002
0.127015
0.0816666
0.0385975
-0.00314094
-0.04402
-0.0834232
-0.120768
-0.155787
-0.188394
-0.00592535
-0.00755131
-0.00917467
-0.0107917
-0.0123988
-0.0139927
-0.0155702
-0.0171286
-0.0186663
-0.0201815
-0.00598135
-0.00775602
-0.00952277
-0.0112771
-0.0130148
-0.0147319
-0.016425
-0.0180908
-0.0197273
-0.0213356
-0.00606897
-0.00812687
-0.0101682
-0.012189
-0.0141855
-0.0161542
-0.018092
-0.019996
-0.0218628
-0.0236996
-0.00686998
-0.00940687
-0.0119074
-0.0143677
-0.016784
-0.0191534
-0.0214732
-0.023741
-0.0259507
-0.0281156
-0.00799363
-0.0112109
-0.0143688
-0.0174664
-0.020503
-0.0234781
-0.0263914
-0.0292412
-0.032016
-0.0347193
-0.0130481
-0.017404
-0.0216352
-0.0257385
-0.0297098
-0.0335453
-0.0372414
-0.0407951
-0.0441869
-0.0473853
-0.0187574
-0.0244774
-0.029991
-0.0353173
-0.040478
-0.0454966
-0.0503961
-0.0551986
-0.0599041
-0.064392
-0.0451807
-0.0543625
-0.0631587
-0.0715425
-0.0794765
-0.0869159
-0.0938171
-0.100153
-0.105921
-0.111242
-0.067952
-0.0780946
-0.0872592
-0.0956891
-0.103691
-0.111647
-0.120013
-0.129329
-0.140175
-0.154342
-0.218598
-0.246495
-0.272274
-0.296218
-0.318712
-0.340262
-0.361486
-0.38303
-0.405396
-0.429238
-0.0305423
-0.0410153
-0.0417256
-0.0358671
-0.0281595
-0.0212891
-0.0154624
-0.0104684
-0.0059349
-0.00197549
-0.0327728
-0.0430168
-0.0427366
-0.036164
-0.0281833
-0.0212242
-0.0153493
-0.0103465
-0.00584056
-0.00194523
-0.0375946
-0.0471176
-0.044744
-0.036767
-0.0282396
-0.0210779
-0.0151045
-0.0100872
-0.00564766
-0.00188064
-0.045839
-0.0535769
-0.047706
-0.0376199
-0.0282845
-0.0208083
-0.0146964
-0.00967038
-0.00534502
-0.00178182
-0.0588645
-0.0628379
-0.0515676
-0.03859
-0.0281966
-0.0203271
-0.0140729
-0.00906241
-0.00491651
-0.00164512
-0.0789561
-0.0756849
-0.0565274
-0.0395895
-0.0277855
-0.0194803
-0.0131463
-0.00820838
-0.00433826
-0.00145143
-0.108194
-0.0929572
-0.0633274
-0.0408445
-0.0269615
-0.0181352
-0.0118344
-0.00705477
-0.00359085
-0.0011527
-0.147787
-0.113858
-0.0727468
-0.0428134
-0.0259121
-0.0163404
-0.0101602
-0.0056202
-0.00269985
-0.000681388
-0.189204
-0.131716
-0.0821752
-0.0442438
-0.0244865
-0.0141348
-0.0082257
-0.0040292
-0.00176508
-1.03817e-06
-0.247299
-0.140724
-0.0881776
-0.0427847
-0.0227529
-0.0117426
-0.00637729
-0.0025461
-0.00100328
0.000841371
-0.313831
-0.148822
-0.091799
-0.0395297
-0.0222542
-0.0104106
-0.00566054
-0.00180625
-0.000837515
0.00149456
-0.321635
-0.146446
-0.0906883
-0.0378283
-0.0217519
-0.00991858
-0.00541567
-0.00161514
-0.000777846
0.00164111
-0.316858
-0.140941
-0.0882396
-0.0359304
-0.0211063
-0.00942076
-0.00516785
-0.00144982
-0.000707081
0.00175219
-0.311155
-0.136925
-0.0864155
-0.03448
-0.0206147
-0.00901474
-0.00496234
-0.00130912
-0.000644743
0.00185078
-0.306263
-0.134021
-0.0850375
-0.033312
-0.0202266
-0.00867345
-0.00478997
-0.00118769
-0.00059241
0.00193946
-0.301659
-0.131575
-0.0838431
-0.0323256
-0.0198988
-0.00838345
-0.0046447
-0.00108516
-0.000548546
0.00201544
-0.297473
-0.129519
-0.0828267
-0.0315255
-0.0196304
-0.0081475
-0.00452707
-0.0010025
-0.00051295
0.00207715
-0.294062
-0.127928
-0.0820379
-0.0309255
-0.0194274
-0.00796917
-0.00443829
-0.000940246
-0.000485978
0.00212393
-0.291671
-0.126846
-0.0815027
-0.0305273
-0.0192917
-0.00784986
-0.00437888
-0.000898596
-0.000467907
0.00215536
-0.29044
-0.126298
-0.0812325
-0.030329
-0.0192238
-0.00779003
-0.004349
-0.000877647
-0.000458892
0.00217108
)
;

boundaryField
{
    inlet
    {
        type            zeroGradient;
    }
    outlet
    {
        type            fixedValue;
        value           uniform 0;
    }
    cylinder
    {
        type            zeroGradient;
    }
    top
    {
        type            symmetryPlane;
    }
    bottom
    {
        type            symmetryPlane;
    }
    defaultFaces
    {
        type            empty;
    }
}


// ************************************************************************* //
