1.45 	0 	0 	-0.207041
2.35 	0 	0 	0.00835019
