1.45 	0 	0 	-0.274096
2.35 	0 	0 	-0.0390487
