1.275 	2.15223e-18 	-2.76991e-20 	-0.0219859 	-0.00217195 	-2.01723e-22
1.825 	2.15223e-18 	-1.39322e-20 	0.0817177 	-0.0065569 	1.24216e-21
2.375 	2.15223e-18 	-2.66896e-23 	0.335941 	-0.00763878 	-4.22961e-22
