1.45 	0 	0 	-0.00771216 	-0.00262959 	1.6693e-20
2.35 	0 	0 	0.0629288 	-0.00663204 	1.01257e-20
