1.45 	0 	0 	-0.292935
2.35 	0 	0 	-0.128715
