/*--------------------------------*- C++ -*----------------------------------*\
  =========                 |
  \\      /  F ield         | OpenFOAM: The Open Source CFD Toolbox
   \\    /   O peration     | Website:  https://openfoam.org
    \\  /    A nd           | Version:  6.0
     \\/     M anipulation  |
\*---------------------------------------------------------------------------*/
FoamFile
{
    version     2.0;
    format      ascii;
    class       volScalarField;
    location    "16";
    object      p;
}
// * * * * * * * * * * * * * * * * * * * * * * * * * * * * * * * * * * * * * //

dimensions      [0 2 -2 0 0 0 0];

internalField   nonuniform List<scalar> 
2000
(
-0.353786
-0.359679
-0.361352
-0.360666
-0.358786
-0.356088
-0.35285
-0.349366
-0.345925
-0.342205
-0.356507
-0.36198
-0.363313
-0.362324
-0.360156
-0.357183
-0.353682
-0.349937
-0.34624
-0.342401
-0.36197
-0.366583
-0.367224
-0.365626
-0.362876
-0.359347
-0.35531
-0.351027
-0.346801
-0.342717
-0.370217
-0.373488
-0.373066
-0.37054
-0.366909
-0.362533
-0.357671
-0.352543
-0.347468
-0.342995
-0.381305
-0.382692
-0.380807
-0.377029
-0.372212
-0.366692
-0.360698
-0.35437
-0.348045
-0.342978
-0.3953
-0.39418
-0.390408
-0.38505
-0.378753
-0.371802
-0.364357
-0.356424
-0.34832
-0.342336
-0.412233
-0.407909
-0.401809
-0.394564
-0.386528
-0.377903
-0.368744
-0.358823
-0.348292
-0.340809
-0.432048
-0.423781
-0.414917
-0.405508
-0.39552
-0.385037
-0.373972
-0.361697
-0.347717
-0.337245
-0.454533
-0.441621
-0.429618
-0.417841
-0.405771
-0.393298
-0.380026
-0.364427
-0.344301
-0.326958
-0.479252
-0.461165
-0.44581
-0.431712
-0.417901
-0.404174
-0.389776
-0.372071
-0.346988
-0.322975
-0.505519
-0.481986
-0.463224
-0.447031
-0.432275
-0.41933
-0.408533
-0.400523
-0.400591
-0.420045
-0.532508
-0.503506
-0.481243
-0.462689
-0.446324
-0.432606
-0.422007
-0.415586
-0.418468
-0.435657
-0.559496
-0.525267
-0.499592
-0.478567
-0.460174
-0.444774
-0.432733
-0.424768
-0.423985
-0.43172
-0.585832
-0.546793
-0.517956
-0.494489
-0.473822
-0.456138
-0.441594
-0.430445
-0.424165
-0.422744
-0.610765
-0.567417
-0.535709
-0.509808
-0.486561
-0.465951
-0.447936
-0.432393
-0.419743
-0.410033
-0.633304
-0.586202
-0.551905
-0.523516
-0.497335
-0.473211
-0.451024
-0.430462
-0.411361
-0.394492
-0.652163
-0.601937
-0.565311
-0.534327
-0.504853
-0.476747
-0.449973
-0.424228
-0.399098
-0.376367
-0.665782
-0.613165
-0.574464
-0.540758
-0.507687
-0.4753
-0.443818
-0.413089
-0.382667
-0.355419
-0.672396
-0.618247
-0.577743
-0.541216
-0.504361
-0.467617
-0.431596
-0.396381
-0.361608
-0.331153
-0.670142
-0.615444
-0.573452
-0.534089
-0.493445
-0.452528
-0.412424
-0.373468
-0.335407
-0.302979
-0.657162
-0.603014
-0.559921
-0.517851
-0.473649
-0.429029
-0.385573
-0.343825
-0.303617
-0.270364
-0.631724
-0.579317
-0.535616
-0.491163
-0.443915
-0.396363
-0.350539
-0.307117
-0.265951
-0.23294
-0.592356
-0.542947
-0.49926
-0.452989
-0.403508
-0.354083
-0.307098
-0.263251
-0.222348
-0.190572
-0.537962
-0.492846
-0.449944
-0.402682
-0.352075
-0.302091
-0.255331
-0.212409
-0.173013
-0.143402
-0.467941
-0.428418
-0.387222
-0.340044
-0.289674
-0.240641
-0.195615
-0.155043
-0.118421
-0.0918572
-0.382294
-0.34963
-0.311188
-0.265371
-0.216767
-0.170294
-0.128553
-0.0917703
-0.05921
-0.0365626
-0.28171
-0.25709
-0.222527
-0.179461
-0.134214
-0.0918944
-0.0549163
-0.0232919
0.00389994
0.021655
-0.167631
-0.152088
-0.122525
-0.0836072
-0.0432504
-0.00658328
0.0242371
0.0492742
0.0693668
0.0807651
-0.0422695
-0.0365963
-0.0130337
0.0205177
0.0547375
0.0845861
0.108049
0.124714
0.134667
0.13705
0.091419
0.08674
0.103532
0.130883
0.158427
0.181438
0.197943
0.206327
0.205305
0.198586
0.229858
0.214655
0.224068
0.244593
0.26536
0.282489
0.294707
0.3002
0.299162
0.31309
0.369151
0.343503
0.344963
0.357794
0.370827
0.380812
0.386874
0.388125
0.387054
0.399988
0.505354
0.469612
0.462806
0.467366
0.472027
0.474113
0.473056
0.46844
0.462752
0.467863
0.634621
0.589372
0.574307
0.57041
0.566515
0.56053
0.552197
0.541366
0.530111
0.527273
0.753292
0.699346
0.676372
0.664264
0.652099
0.638352
0.623041
0.606205
0.589536
0.579592
0.85798
0.796368
0.766182
0.746536
0.726826
0.706048
0.68446
0.662247
0.640731
0.624576
0.94567
0.877628
0.841251
0.815112
0.788946
0.762193
0.735311
0.708598
0.683021
0.661662
1.01381
0.940761
0.899486
0.868206
0.836955
0.805524
0.774524
0.744333
0.71561
0.690194
1.06039
0.983915
0.93925
0.904413
0.869658
0.835017
0.801204
0.76865
0.737782
0.709579
1.08403
1.00582
0.959419
0.922763
0.886223
0.84995
0.814711
0.780961
0.749007
0.719385
1.08403
1.00582
0.959418
0.922763
0.886223
0.84995
0.81471
0.780961
0.749006
0.719385
1.06039
0.983914
0.939249
0.904411
0.869657
0.835016
0.801203
0.768648
0.73778
0.709578
1.01381
0.940759
0.899483
0.868203
0.836953
0.805522
0.774522
0.744331
0.715608
0.690192
0.945666
0.877625
0.841247
0.815109
0.788943
0.76219
0.735308
0.708595
0.683018
0.66166
0.857975
0.796363
0.766177
0.746532
0.726822
0.706044
0.684456
0.662243
0.640727
0.624573
0.753286
0.699341
0.676366
0.664259
0.652094
0.638347
0.623036
0.6062
0.589531
0.579587
0.634615
0.589366
0.5743
0.570403
0.566509
0.560524
0.552191
0.541361
0.530105
0.527268
0.505346
0.469604
0.462799
0.467359
0.47202
0.474106
0.473049
0.468434
0.462746
0.467857
0.369142
0.343494
0.344954
0.357786
0.370819
0.380804
0.386867
0.388117
0.387047
0.399981
0.229848
0.214645
0.224059
0.244584
0.265351
0.282481
0.294699
0.300192
0.299154
0.313083
0.0914083
0.0867292
0.103521
0.130872
0.158417
0.181428
0.197934
0.206318
0.205297
0.198578
-0.0422814
-0.0366082
-0.0130454
0.0205065
0.0547267
0.0845758
0.108039
0.124705
0.134657
0.137041
-0.167644
-0.152101
-0.122538
-0.0836195
-0.0432622
-0.00659459
0.0242262
0.0492637
0.0693567
0.0807553
-0.281724
-0.257105
-0.222541
-0.179475
-0.134227
-0.0919066
-0.054928
-0.0233031
0.00388913
0.0216445
-0.382309
-0.349646
-0.311203
-0.265385
-0.216781
-0.170307
-0.128565
-0.0917823
-0.0592215
-0.0365737
-0.467957
-0.428434
-0.387238
-0.34006
-0.289689
-0.240655
-0.195629
-0.155056
-0.118434
-0.091869
-0.537979
-0.492863
-0.449961
-0.402698
-0.352091
-0.302106
-0.255345
-0.212423
-0.173026
-0.143414
-0.592374
-0.542966
-0.499279
-0.453007
-0.403525
-0.354099
-0.307113
-0.263265
-0.222362
-0.190585
-0.631743
-0.579337
-0.535635
-0.491181
-0.443932
-0.39638
-0.350555
-0.307132
-0.265966
-0.232954
-0.657182
-0.603034
-0.559941
-0.51787
-0.473668
-0.429047
-0.385589
-0.343841
-0.303632
-0.270379
-0.670163
-0.615465
-0.573472
-0.534109
-0.493465
-0.452546
-0.412441
-0.373484
-0.335423
-0.302994
-0.672418
-0.618269
-0.577764
-0.541237
-0.504381
-0.467637
-0.431614
-0.396399
-0.361625
-0.331169
-0.665804
-0.613187
-0.574486
-0.540779
-0.507708
-0.47532
-0.443837
-0.413107
-0.382685
-0.355436
-0.652185
-0.601959
-0.565333
-0.534349
-0.504874
-0.476767
-0.449993
-0.424247
-0.399116
-0.376385
-0.633327
-0.586225
-0.551927
-0.523538
-0.497356
-0.473232
-0.451044
-0.430482
-0.411381
-0.39451
-0.610788
-0.56744
-0.535732
-0.50983
-0.486583
-0.465972
-0.447957
-0.432413
-0.419763
-0.410052
-0.585855
-0.546816
-0.517978
-0.494511
-0.473844
-0.456159
-0.441615
-0.430466
-0.424186
-0.422764
-0.559519
-0.525289
-0.499614
-0.478589
-0.460196
-0.444796
-0.432755
-0.42479
-0.424006
-0.431741
-0.532531
-0.503529
-0.481265
-0.462711
-0.446346
-0.432628
-0.42203
-0.415608
-0.41849
-0.435679
-0.505542
-0.482008
-0.463246
-0.447052
-0.432297
-0.419352
-0.408555
-0.400546
-0.400614
-0.420068
-0.479275
-0.461186
-0.445831
-0.431733
-0.417922
-0.404196
-0.389799
-0.372095
-0.347012
-0.323
-0.454555
-0.441641
-0.429637
-0.417861
-0.405791
-0.393319
-0.380047
-0.36445
-0.344325
-0.326982
-0.432068
-0.4238
-0.414936
-0.405527
-0.395539
-0.385057
-0.373993
-0.361718
-0.347739
-0.337268
-0.412251
-0.407927
-0.401826
-0.394581
-0.386545
-0.377921
-0.368763
-0.358842
-0.348313
-0.34083
-0.395316
-0.394195
-0.390423
-0.385065
-0.378769
-0.371818
-0.364374
-0.356441
-0.348338
-0.342354
-0.381319
-0.382705
-0.38082
-0.377042
-0.372225
-0.366706
-0.360712
-0.354385
-0.34806
-0.342994
-0.370228
-0.373499
-0.373076
-0.370551
-0.366919
-0.362544
-0.357682
-0.352555
-0.347481
-0.343008
-0.361978
-0.366591
-0.367232
-0.365634
-0.362884
-0.359355
-0.355318
-0.351036
-0.34681
-0.342727
-0.356512
-0.361985
-0.363317
-0.362329
-0.360161
-0.357188
-0.353687
-0.349942
-0.346246
-0.342407
-0.353787
-0.359681
-0.361354
-0.360667
-0.358788
-0.35609
-0.352852
-0.349368
-0.345926
-0.342207
-0.295696
-0.130974
-0.0853757
-0.0341763
-0.0226067
-0.0106878
-0.00695354
-0.00221621
-0.00152766
0.00300547
-0.296933
-0.131531
-0.0856577
-0.0343838
-0.0226829
-0.0107546
-0.00699388
-0.00224809
-0.00154686
0.00297976
-0.299337
-0.132628
-0.0862128
-0.0347992
-0.022836
-0.0108894
-0.00707481
-0.00231147
-0.00158383
0.00292941
-0.302767
-0.134241
-0.0870287
-0.0354236
-0.023065
-0.0110913
-0.00719538
-0.00240581
-0.00163786
0.00285487
-0.306977
-0.136324
-0.0880777
-0.0362541
-0.0233666
-0.0113576
-0.00735343
-0.0025298
-0.00170744
0.00275693
-0.311609
-0.1388
-0.0893084
-0.0372751
-0.0237332
-0.0116833
-0.00754581
-0.00268158
-0.00179085
0.00263664
-0.316532
-0.141737
-0.0907242
-0.0384801
-0.0241636
-0.0120637
-0.00776981
-0.00285813
-0.00188701
0.00249652
-0.322269
-0.145789
-0.0925884
-0.0399693
-0.0247004
-0.0125107
-0.00803055
-0.00305784
-0.00199727
0.00234053
-0.327084
-0.15134
-0.0950818
-0.0419101
-0.025397
-0.0130534
-0.00833822
-0.00328859
-0.00211858
0.00216394
-0.319304
-0.153754
-0.0962297
-0.0436525
-0.0259529
-0.0135982
-0.00864119
-0.00356048
-0.00221737
0.00193331
-0.25278
-0.145709
-0.0926658
-0.0469962
-0.0265966
-0.0151111
-0.00951096
-0.00461746
-0.00245229
0.000934113
-0.194446
-0.136592
-0.086566
-0.0483626
-0.0283089
-0.0175081
-0.0113294
-0.00622814
-0.00323514
-0.000194229
-0.15276
-0.118554
-0.0769734
-0.0467379
-0.0295551
-0.019553
-0.0130163
-0.00771585
-0.00404691
-0.00100896
-0.112962
-0.0974844
-0.0674103
-0.0445837
-0.0303934
-0.0211415
-0.0143902
-0.008954
-0.00475009
-0.00153823
-0.0835844
-0.0800823
-0.0605038
-0.0431906
-0.0310415
-0.0223076
-0.0154576
-0.00992541
-0.00533873
-0.00186828
-0.0633945
-0.067138
-0.0554662
-0.0420965
-0.0313233
-0.0230213
-0.0162166
-0.0106528
-0.00581748
-0.00208043
-0.0502988
-0.0578056
-0.0515494
-0.0410637
-0.031322
-0.0234106
-0.0167348
-0.011186
-0.00619447
-0.0022251
-0.0420053
-0.051296
-0.0485498
-0.0401702
-0.0312193
-0.0236206
-0.0170799
-0.011562
-0.00647396
-0.00232452
-0.0371521
-0.047163
-0.0465189
-0.0395432
-0.0311297
-0.0237318
-0.017289
-0.0117994
-0.00665826
-0.00238604
-0.0349064
-0.0451453
-0.0454968
-0.039235
-0.0310914
-0.0237801
-0.0173865
-0.0119103
-0.00675178
-0.00241215
-0.223819
-0.251729
-0.277524
-0.301487
-0.324003
-0.345577
-0.366825
-0.38839
-0.410769
-0.434623
-0.0729875
-0.0831291
-0.0922933
-0.100723
-0.108726
-0.116682
-0.125049
-0.134368
-0.145217
-0.159387
-0.0500853
-0.0592599
-0.0680493
-0.0764269
-0.0843553
-0.0917898
-0.098687
-0.10502
-0.110786
-0.116106
-0.0235651
-0.0292758
-0.0347803
-0.0400978
-0.04525
-0.0502605
-0.0551525
-0.0599481
-0.0646472
-0.0691307
-0.0177898
-0.022136
-0.0263575
-0.030451
-0.0344128
-0.0382388
-0.0419255
-0.0454701
-0.048853
-0.0520438
-0.0126805
-0.0158879
-0.0190359
-0.0221234
-0.02515
-0.0281151
-0.0310183
-0.0338582
-0.0366232
-0.0393173
-0.0115171
-0.0140443
-0.016535
-0.0189852
-0.0213913
-0.0237503
-0.0260596
-0.0283168
-0.030516
-0.0326704
-0.0106858
-0.012734
-0.0147655
-0.0167762
-0.0187623
-0.0207204
-0.0226474
-0.0245403
-0.026396
-0.0282214
-0.0105785
-0.0123436
-0.0141005
-0.0158446
-0.0175718
-0.0192781
-0.02096
-0.0226143
-0.0242391
-0.0258351
-0.0105124
-0.0121289
-0.0137425
-0.0153493
-0.0169459
-0.0185288
-0.020095
-0.0216415
-0.0231671
-0.0246694
0.162821
0.121824
0.0764771
0.0334082
-0.00833229
-0.049214
-0.0886202
-0.125969
-0.160992
-0.193606
0.112456
0.0865411
0.0597583
0.0369274
0.0168127
-0.00185656
-0.0191627
-0.0348951
-0.0490272
-0.0616745
0.0684264
0.0527323
0.0377903
0.0248884
0.0130455
0.00158691
-0.00955778
-0.0203008
-0.030619
-0.0405394
0.0482559
0.0391893
0.0305712
0.0228712
0.0156143
0.00853085
0.00162366
-0.0050487
-0.0114651
-0.0176327
0.0327885
0.0268438
0.0211133
0.0158321
0.0107507
0.0057385
0.000802576
-0.00402575
-0.00873403
-0.0133219
0.0225851
0.0187029
0.0148663
0.0112372
0.00770309
0.0041963
0.000718396
-0.00271389
-0.00609228
-0.00941479
0.0149275
0.0122054
0.00945784
0.00678899
0.00415077
0.00151045
-0.00113009
-0.00375969
-0.00637052
-0.00895775
0.00978103
0.00779203
0.00575367
0.00372775
0.00169765
-0.000350136
-0.0024132
-0.00448402
-0.00655626
-0.00862501
0.00647279
0.00488372
0.00324621
0.00158925
-9.19769e-05
-0.00180053
-0.00353253
-0.00528181
-0.00704265
-0.00880986
0.00488801
0.00347323
0.00201552
0.000529051
-0.000986769
-0.00253088
-0.00409897
-0.00568584
-0.00728667
-0.00889698
0.330338
0.329637
0.328085
0.325207
0.320217
0.311879
0.29842
0.277447
0.246325
0.201687
0.240487
0.23937
0.236733
0.232146
0.225273
0.215683
0.202807
0.185987
0.164473
0.137711
0.169712
0.168583
0.165916
0.161391
0.1549
0.146336
0.135508
0.122204
0.106015
0.0870267
0.118161
0.117276
0.115174
0.111612
0.106573
0.100083
0.0921358
0.08274
0.0718183
0.0597056
0.0818829
0.0812388
0.0797007
0.0770891
0.0734112
0.0687196
0.0630483
0.0564357
0.0488621
0.0405361
0.0567529
0.05629
0.0551826
0.0533024
0.0506626
0.0473146
0.0432999
0.0386627
0.0334205
0.0277196
0.0396424
0.0393044
0.0384955
0.0371225
0.0351968
0.0327589
0.0298425
0.0264802
0.0226917
0.0185609
0.0283881
0.0281319
0.0275188
0.0264781
0.0250191
0.0231734
0.0209677
0.0184271
0.0155721
0.0124547
0.0215735
0.0213656
0.0208683
0.0200244
0.0188411
0.0173436
0.0155532
0.0134886
0.0111678
0.00862203
0.0183638
0.0181779
0.0177341
0.0169815
0.0159262
0.0145903
0.0129924
0.0111489
0.00907649
0.00679808
0.480274
0.482027
0.488359
0.499504
0.515354
0.536212
0.562544
0.594875
0.633741
0.67939
0.478033
0.479761
0.486013
0.497002
0.512603
0.533083
0.558851
0.590344
0.627963
0.671798
0.473604
0.475286
0.481385
0.492071
0.507186
0.526925
0.551582
0.581422
0.616571
0.656821
0.467085
0.468712
0.474601
0.484855
0.499269
0.517932
0.540968
0.568383
0.599889
0.634867
0.458617
0.460193
0.465833
0.47555
0.489079
0.506373
0.52733
0.551617
0.578382
0.606521
0.448366
0.449914
0.455287
0.464386
0.476874
0.492544
0.511028
0.531571
0.55262
0.572519
0.436529
0.438118
0.443243
0.451679
0.463016
0.476858
0.492532
0.508785
0.52328
0.533729
0.423314
0.425128
0.430141
0.437988
0.448199
0.460163
0.472828
0.484303
0.491362
0.490944
0.408788
0.411078
0.41617
0.423553
0.432743
0.442911
0.452556
0.45896
0.457741
0.443656
0.39259
0.395024
0.399689
0.405942
0.413316
0.420861
0.426801
0.427916
0.41944
0.391725
0.392586
0.395021
0.399685
0.405938
0.413312
0.420856
0.426797
0.427911
0.419435
0.391718
0.408784
0.411075
0.416167
0.423549
0.43274
0.442907
0.452551
0.458955
0.457736
0.44365
0.42331
0.425125
0.430138
0.437985
0.448196
0.46016
0.472824
0.484299
0.491357
0.490938
0.436526
0.438115
0.44324
0.451676
0.463013
0.476855
0.492529
0.508781
0.523275
0.533724
0.448363
0.449912
0.455284
0.464383
0.476871
0.492541
0.511025
0.531567
0.552616
0.572515
0.458614
0.460191
0.465831
0.475548
0.489077
0.50637
0.527327
0.551614
0.578379
0.606517
0.467084
0.46871
0.474599
0.484853
0.499267
0.517931
0.540966
0.568381
0.599887
0.634864
0.473603
0.475284
0.481384
0.492069
0.507184
0.526924
0.55158
0.58142
0.616569
0.656819
0.478033
0.47976
0.486012
0.497001
0.512602
0.533082
0.55885
0.590343
0.627962
0.671797
0.480274
0.482027
0.488359
0.499504
0.515354
0.536212
0.562544
0.594875
0.633741
0.67939
0.0183588
0.0181729
0.0177291
0.0169765
0.0159213
0.0145854
0.0129876
0.0111441
0.00907187
0.00679356
0.0215684
0.0213605
0.0208633
0.0200193
0.0188361
0.0173387
0.0155483
0.0134838
0.011163
0.00861741
0.0283829
0.0281267
0.0275135
0.0264729
0.025014
0.0231683
0.0209626
0.0184221
0.0155672
0.0124499
0.039637
0.039299
0.0384901
0.0371171
0.0351915
0.0327536
0.0298372
0.026475
0.0226865
0.0185558
0.0567473
0.0562844
0.055177
0.0532968
0.0506571
0.047309
0.0432944
0.0386572
0.0334151
0.0277143
0.0818772
0.081233
0.079695
0.0770833
0.0734055
0.0687138
0.0630426
0.05643
0.0488564
0.0405304
0.118155
0.11727
0.115168
0.111606
0.106568
0.100078
0.0921299
0.082734
0.0718122
0.0596994
0.169706
0.168577
0.16591
0.161385
0.154894
0.14633
0.135502
0.122198
0.106008
0.0870202
0.240481
0.239364
0.236727
0.23214
0.225267
0.215677
0.202801
0.18598
0.164466
0.137704
0.330333
0.329632
0.32808
0.325202
0.320212
0.311873
0.298415
0.277441
0.246318
0.201679
0.00488359
0.00346888
0.00201124
0.000524818
-0.000990963
-0.00253503
-0.00410306
-0.00568989
-0.00729066
-0.0089009
0.00646827
0.00487929
0.00324184
0.00158492
-9.6245e-05
-0.00180474
-0.00353668
-0.0052859
-0.00704667
-0.00881381
0.00977634
0.00778743
0.00574915
0.00372331
0.00169328
-0.000354432
-0.00241742
-0.00448817
-0.00656034
-0.00862902
0.0149225
0.0122005
0.00945305
0.0067843
0.00414618
0.00150596
-0.00113448
-0.00376398
-0.0063747
-0.00896183
0.0225798
0.0186976
0.0148612
0.0112322
0.00769817
0.00419151
0.000713738
-0.00271841
-0.00609667
-0.00941904
0.0327828
0.0268381
0.0211078
0.0158267
0.0107454
0.00573337
0.000797559
-0.00403064
-0.00873881
-0.0133266
0.0482498
0.0391832
0.0305652
0.0228653
0.0156084
0.00852509
0.00161798
-0.00505432
-0.0114706
-0.0176381
0.0684197
0.0527256
0.0377834
0.0248815
0.0130387
0.00158011
-0.00956455
-0.0203075
-0.0306257
-0.040546
0.112448
0.0865334
0.0597503
0.0369194
0.0168047
-0.00186471
-0.019171
-0.0349034
-0.0490356
-0.0616829
0.162812
0.121815
0.0764679
0.0333986
-0.00834224
-0.0492243
-0.0886308
-0.12598
-0.161004
-0.193618
-0.0105163
-0.0121327
-0.0137461
-0.0153528
-0.0169493
-0.0185321
-0.0200982
-0.0216446
-0.0231702
-0.0246725
-0.0105823
-0.0123474
-0.0141041
-0.0158481
-0.0175752
-0.0192814
-0.0209632
-0.0226175
-0.0242422
-0.0258382
-0.0106897
-0.0127379
-0.0147693
-0.0167798
-0.0187658
-0.0207238
-0.0226507
-0.0245436
-0.0263993
-0.0282247
-0.0115212
-0.0140483
-0.0165388
-0.0189889
-0.021395
-0.0237539
-0.0260631
-0.0283203
-0.0305195
-0.0326739
-0.0126846
-0.015892
-0.0190398
-0.0221273
-0.0251538
-0.0281189
-0.031022
-0.0338619
-0.0366269
-0.039321
-0.0177943
-0.0221405
-0.026362
-0.0304554
-0.034417
-0.0382429
-0.0419296
-0.0454741
-0.048857
-0.0520478
-0.0235704
-0.029281
-0.0347855
-0.0401028
-0.0452549
-0.0502653
-0.0551572
-0.0599526
-0.0646516
-0.069135
-0.0500919
-0.0592663
-0.0680556
-0.076433
-0.0843613
-0.0917956
-0.0986926
-0.105026
-0.110791
-0.116111
-0.072996
-0.0831378
-0.0923021
-0.100732
-0.108735
-0.116691
-0.125058
-0.134376
-0.145225
-0.159396
-0.223832
-0.251741
-0.277537
-0.3015
-0.324017
-0.345592
-0.366841
-0.388406
-0.410785
-0.434641
-0.0349085
-0.0451467
-0.0454982
-0.0392374
-0.0310962
-0.0237851
-0.017391
-0.011912
-0.00675275
-0.00241212
-0.0371543
-0.0471643
-0.04652
-0.0395455
-0.0311347
-0.0237371
-0.0172937
-0.0118011
-0.00665922
-0.00238591
-0.0420075
-0.051297
-0.0485504
-0.0401724
-0.0312247
-0.0236265
-0.017085
-0.0115637
-0.00647477
-0.00232419
-0.0503011
-0.057806
-0.051549
-0.0410657
-0.0313283
-0.0234177
-0.0167405
-0.0111876
-0.00619488
-0.00222436
-0.0633969
-0.0671374
-0.0554643
-0.0420982
-0.0313311
-0.0230302
-0.0162231
-0.0106542
-0.00581695
-0.0020789
-0.083587
-0.0800799
-0.0604996
-0.0431921
-0.0310517
-0.0223194
-0.0154652
-0.00992639
-0.00533629
-0.0018653
-0.112964
-0.0974787
-0.0674027
-0.0445856
-0.0304077
-0.0211577
-0.0143993
-0.00895411
-0.00474435
-0.00153288
-0.152763
-0.118542
-0.0769596
-0.0467403
-0.0295758
-0.0195758
-0.0130279
-0.00771517
-0.00403665
-0.00100032
-0.194452
-0.136572
-0.0865409
-0.0483627
-0.028336
-0.0175391
-0.0113451
-0.00622792
-0.00322078
-0.000182175
-0.252794
-0.145684
-0.0926302
-0.0469904
-0.0266239
-0.0151458
-0.00952978
-0.00461936
-0.00243704
0.000947711
-0.31932
-0.153731
-0.0961963
-0.0436458
-0.025974
-0.0136264
-0.00865719
-0.00356359
-0.00220553
0.00194415
-0.327099
-0.151318
-0.0950494
-0.0419037
-0.0254166
-0.0130799
-0.00835323
-0.00329177
-0.0021077
0.00217391
-0.322282
-0.145768
-0.0925577
-0.0399638
-0.0247189
-0.0125353
-0.00804438
-0.00306085
-0.00198738
0.00234954
-0.316543
-0.141716
-0.0906958
-0.0384753
-0.0241807
-0.0120862
-0.00778245
-0.00286104
-0.00187831
0.00250447
-0.311618
-0.138781
-0.0892828
-0.0372709
-0.0237482
-0.0117031
-0.00755682
-0.00268409
-0.00178319
0.00264359
-0.306984
-0.136308
-0.0880556
-0.0362505
-0.0233793
-0.0113744
-0.00736273
-0.00253195
-0.00170098
0.00276274
-0.302773
-0.134228
-0.0870107
-0.0354207
-0.0230752
-0.0111048
-0.00720278
-0.00240752
-0.00163266
0.00285951
-0.299341
-0.132618
-0.0861995
-0.034797
-0.0228435
-0.0108994
-0.00708026
-0.00231277
-0.00158008
0.00293274
-0.296935
-0.131525
-0.0856494
-0.0343825
-0.0226874
-0.0107606
-0.00699709
-0.00224878
-0.00154445
0.00298184
-0.295697
-0.130972
-0.0853729
-0.0341758
-0.0226083
-0.0106899
-0.00695474
-0.00221657
-0.00152697
0.00300611
)
;

boundaryField
{
    inlet
    {
        type            zeroGradient;
    }
    outlet
    {
        type            fixedValue;
        value           uniform 0;
    }
    cylinder
    {
        type            zeroGradient;
    }
    top
    {
        type            symmetryPlane;
    }
    bottom
    {
        type            symmetryPlane;
    }
    defaultFaces
    {
        type            empty;
    }
}


// ************************************************************************* //
