/*--------------------------------*- C++ -*----------------------------------*\
  =========                 |
  \\      /  F ield         | OpenFOAM: The Open Source CFD Toolbox
   \\    /   O peration     | Website:  https://openfoam.org
    \\  /    A nd           | Version:  6.0
     \\/     M anipulation  |
\*---------------------------------------------------------------------------*/
FoamFile
{
    version     2.0;
    format      ascii;
    class       volVectorField;
    location    "16";
    object      U;
}
// * * * * * * * * * * * * * * * * * * * * * * * * * * * * * * * * * * * * * //

dimensions      [0 1 -1 0 0 0 0];

internalField   nonuniform List<vector> 
2000
(
(-0.00199128 0.00173585 5.8231e-20)
(-0.00761615 0.00329481 6.91388e-20)
(-0.0153093 0.00364906 -6.59083e-20)
(-0.0222874 0.00332004 -1.34486e-19)
(-0.0276033 0.0026181 -9.395e-20)
(-0.0311053 0.0017465 1.2517e-19)
(-0.0328923 0.000850773 7.29195e-20)
(-0.0332349 3.78099e-05 -2.94942e-20)
(-0.0325673 -0.000613069 -7.36461e-20)
(-0.0311852 -0.00103774 5.36969e-20)
(-0.00248917 0.00511694 -1.44319e-19)
(-0.0083627 0.00966804 1.99181e-19)
(-0.0156992 0.0106654 1.98637e-20)
(-0.0219718 0.00965025 -1.15376e-19)
(-0.0263707 0.00753628 5.52053e-19)
(-0.0288208 0.00492095 -2.4298e-19)
(-0.0294686 0.0022332 -2.62908e-19)
(-0.0286115 -0.000208027 3.17122e-19)
(-0.0266999 -0.00216039 -3.12814e-19)
(-0.0241073 -0.00343071 1.57765e-19)
(-0.00343407 0.00821823 2.39713e-20)
(-0.009715 0.0153817 8.50383e-21)
(-0.016265 0.0168341 5.96788e-19)
(-0.0210738 0.015063 2.09338e-19)
(-0.0236057 0.011531 4.15044e-20)
(-0.023937 0.0071908 3.43437e-19)
(-0.0223075 0.00272929 -6.52373e-19)
(-0.019063 -0.00132965 1.41496e-20)
(-0.0146836 -0.00456815 -3.85844e-19)
(-0.00970502 -0.00666144 4.25127e-19)
(-0.00472047 0.0108584 -4.50752e-20)
(-0.0113823 0.020021 2.59187e-19)
(-0.0165653 0.021646 -7.55288e-19)
(-0.0190412 0.0190411 -9.76701e-20)
(-0.0186853 0.0141245 -5.5601e-19)
(-0.0157974 0.00813515 5.75875e-19)
(-0.0107512 0.0019693 -6.1089e-19)
(-0.0039554 -0.00366253 4.29054e-19)
(0.00407523 -0.008149 1.80381e-19)
(0.012546 -0.0110294 -2.03915e-19)
(-0.00618065 0.0128615 -5.01343e-19)
(-0.0129077 0.0232053 4.48883e-21)
(-0.015908 0.0246715 9.30063e-19)
(-0.0150058 0.0212033 2.78928e-19)
(-0.0106217 0.0150413 -8.8684e-19)
(-0.00335061 0.00760916 5.51456e-19)
(0.00626178 -6.87844e-05 6.25334e-19)
(0.0177397 -0.00713721 -5.57569e-19)
(0.0305449 -0.0127767 3.97624e-19)
(0.0435136 -0.0163878 9.76139e-20)
(-0.00757333 0.0140566 6.85505e-20)
(-0.0136488 0.0245991 1.26996e-20)
(-0.0133272 0.025583 -1.1886e-18)
(-0.00775015 0.0213405 -6.65145e-19)
(0.00198549 0.0142682 7.93601e-19)
(0.0149161 0.00584105 -9.29483e-19)
(0.0302802 -0.00291053 1.06543e-18)
(0.0475361 -0.0110752 -9.19338e-20)
(0.0661635 -0.0176411 -2.99776e-19)
(0.0845144 -0.0218832 -8.71684e-19)
(-0.008572 0.0142813 -1.48913e-19)
(-0.0127665 0.0239254 -2.71977e-19)
(-0.00757786 0.0241682 -3.34242e-19)
(0.00429975 0.0194251 7.13366e-19)
(0.0209762 0.0120646 1.32374e-18)
(0.0410387 0.00346481 -2.73553e-19)
(0.0634447 -0.00550471 -6.66398e-19)
(0.0875711 -0.0140501 2.03235e-19)
(0.113001 -0.0210679 -1.28089e-18)
(0.137525 -0.0257598 1.40669e-18)
(-0.0087611 0.0133961 9.10627e-19)
(-0.00924065 0.0209913 -4.96866e-19)
(0.00282052 0.0203397 9.70872e-19)
(0.0230126 0.0155866 -1.58652e-18)
(0.0485643 0.0089077 -7.58383e-19)
(0.0775267 0.0014648 -1.05075e-18)
(0.108468 -0.00621316 3.05208e-19)
(0.140606 -0.0137167 -8.50857e-19)
(0.173761 -0.0200784 1.85301e-18)
(0.205264 -0.0246096 5.19014e-19)
(-0.00765136 0.0113142 6.66982e-20)
(-0.00193181 0.0157311 8.09385e-19)
(0.0194732 0.0141401 1.60878e-18)
(0.0504028 0.0100435 4.92048e-19)
(0.0871714 0.00532999 1.45636e-18)
(0.127201 0.0009618 7.9886e-20)
(0.16848 -0.00286787 -1.04815e-21)
(0.209804 -0.00620549 5.87605e-19)
(0.251246 -0.00838994 4.76394e-19)
(0.290237 -0.00983734 -1.54491e-18)
(-0.0047301 0.00804787 -5.38795e-19)
(0.010288 0.00826541 -9.02757e-19)
(0.0439077 0.00573961 -1.31305e-18)
(0.0883974 0.00293227 3.07767e-20)
(0.139297 0.00140259 -6.699e-19)
(0.193502 0.00211389 1.05605e-18)
(0.248433 0.00539085 -2.90867e-18)
(0.302149 0.0114559 1.30629e-18)
(0.354001 0.020909 4.91919e-19)
(0.401254 0.0296125 1.54386e-18)
(0.0004396 0.00376709 2.6958e-19)
(0.0282893 -0.00100119 -1.03164e-18)
(0.0771211 -0.00448088 9.2146e-19)
(0.138026 -0.00574969 -3.57709e-19)
(0.206171 -0.00381055 3.89124e-19)
(0.278591 0.00226064 8.47662e-19)
(0.353442 0.0132014 -1.1381e-18)
(0.430314 0.0299559 1.48137e-19)
(0.510174 0.0517948 -5.45615e-19)
(0.595357 0.0687566 1.10508e-18)
(0.00812269 -0.00115153 3.8575e-19)
(0.0524632 -0.011223 -9.34751e-19)
(0.119116 -0.0155393 1.27435e-18)
(0.19827 -0.0153063 -7.94085e-19)
(0.284729 -0.0106442 -2.91281e-19)
(0.375433 -0.00141372 1.72481e-19)
(0.468565 0.0122974 8.92209e-20)
(0.56355 0.03018 1.21066e-18)
(0.66003 0.049526 3.48652e-19)
(0.755701 0.0616526 1.48856e-18)
(0.0184271 -0.00614623 -3.44099e-19)
(0.0828488 -0.0210469 1.20805e-18)
(0.169414 -0.025467 -1.00877e-18)
(0.267632 -0.0231059 -1.1839e-18)
(0.371825 -0.015446 1.65652e-18)
(0.478492 -0.0032809 -1.26013e-18)
(0.58523 0.0124591 3.32819e-19)
(0.690476 0.0306643 -1.97362e-18)
(0.792443 0.0486591 1.47832e-18)
(0.887141 0.0611096 7.38686e-20)
(0.0313589 -0.0105893 -4.48173e-19)
(0.119246 -0.0289159 -4.33271e-19)
(0.227322 -0.0319736 -9.23109e-19)
(0.34469 -0.0261437 1.11898e-18)
(0.465229 -0.0143534 -5.65964e-20)
(0.584972 0.00170087 7.24194e-19)
(0.700975 0.020418 1.32165e-18)
(0.810993 0.0403018 -4.06135e-19)
(0.912656 0.0592633 -1.43668e-18)
(1.00196 0.0742972 2.85244e-18)
(0.046848 -0.0138728 -2.31525e-19)
(0.161213 -0.0333284 -2.76256e-19)
(0.291834 -0.0329494 4.97808e-19)
(0.427783 -0.0218875 -9.25723e-19)
(0.5627 -0.00453751 1.58057e-19)
(0.692369 0.0165509 1.40841e-19)
(0.813666 0.0392289 6.17899e-20)
(0.924236 0.0617924 -9.8556e-21)
(1.02189 0.0827428 -1.51393e-19)
(1.10324 0.100467 -2.41251e-18)
(0.0647353 -0.0154347 9.39922e-19)
(0.208015 -0.0329603 -6.56067e-19)
(0.361512 -0.0266817 8.36978e-21)
(0.514753 -0.0085275 -1.00059e-18)
(0.661487 0.015672 -3.58392e-19)
(0.797628 0.0425927 3.34958e-19)
(0.920338 0.0696605 2.60463e-19)
(1.02772 0.0950862 -9.28136e-19)
(1.11831 0.117908 7.59043e-19)
(1.18975 0.137317 -9.95686e-19)
(0.0847412 -0.0147637 4.05494e-19)
(0.258586 -0.026722 -3.60586e-19)
(0.434456 -0.0119515 1.49889e-18)
(0.602941 0.014948 1.53076e-19)
(0.758384 0.0468257 3.51495e-19)
(0.897318 0.0797305 1.56816e-18)
(1.01771 0.110842 -2.39562e-19)
(1.11864 0.138457 2.19014e-19)
(1.19976 0.162173 9.08369e-20)
(1.26 0.181661 -1.11304e-19)
(0.106435 -0.0114095 2.83197e-19)
(0.311519 -0.0138003 6.81472e-19)
(0.508353 0.011927 -7.307e-19)
(0.689328 0.0487734 -2.47698e-19)
(0.849977 0.0885119 -3.06094e-19)
(0.988012 0.126819 4.7418e-19)
(1.10273 0.160898 -2.46942e-19)
(1.19459 0.189371 6.64578e-19)
(1.26464 0.212491 2.23996e-19)
(1.31322 0.230263 -3.65045e-19)
(0.129222 -0.00500873 -3.05226e-19)
(0.365092 0.00629465 2.71478e-19)
(0.580592 0.0450841 -5.79595e-19)
(0.770748 0.0924627 2.50177e-19)
(0.932946 0.139538 -2.59713e-19)
(1.06665 0.181993 -3.24411e-19)
(1.17294 0.217411 -2.60884e-19)
(1.25396 0.245029 2.91727e-19)
(1.31221 0.265878 -5.50871e-19)
(1.34949 0.280262 3.32923e-19)
(0.152348 0.0046783 -1.08776e-19)
(0.417341 0.0336734 -2.12971e-19)
(0.648424 0.0870806 1.01424e-19)
(0.844117 0.144878 6.21708e-21)
(1.00434 0.198101 8.42657e-20)
(1.13083 0.242934 1.15801e-19)
(1.22675 0.277748 1.07512e-19)
(1.29604 0.302689 -1.42541e-19)
(1.34264 0.319681 1.21655e-19)
(1.36967 0.329327 -1.90521e-19)
(0.174934 0.0177263 -6.29932e-20)
(0.466164 0.0680173 -2.36438e-20)
(0.709131 0.136909 9.42231e-20)
(0.906657 0.20431 -4.33327e-20)
(1.06179 0.26195 1.15811e-19)
(1.1789 0.307084 -1.49599e-19)
(1.2634 0.339285 3.46394e-20)
(1.32098 0.359855 3.71804e-20)
(1.35683 0.371677 -1.56971e-20)
(1.37514 0.375665 5.92503e-20)
(0.196015 0.03401 -6.79826e-20)
(0.50945 0.108549 -3.07875e-19)
(0.760215 0.193022 -2.14251e-20)
(0.956074 0.268585 6.39286e-21)
(1.10363 0.328546 -4.01646e-19)
(1.21006 0.371821 5.29746e-20)
(1.28299 0.39955 -4.51996e-20)
(1.32964 0.414357 -1.09518e-19)
(1.35616 0.42008 2.29226e-19)
(1.36758 0.417938 -4.18408e-19)
(0.214598 0.0531792 -3.28942e-20)
(0.545211 0.15403 6.23952e-19)
(0.799554 0.253395 1.00535e-19)
(0.990691 0.33518 -5.49946e-19)
(1.12895 0.395204 -4.46855e-20)
(1.22428 0.434585 -5.29169e-19)
(1.28627 0.456301 3.88633e-19)
(1.32337 0.464361 -1.41684e-19)
(1.34235 0.463478 2.51622e-19)
(1.3488 0.455155 -1.85642e-19)
(0.229733 0.0746501 -2.07303e-19)
(0.571729 0.202796 1.98785e-19)
(0.825542 0.315619 -1.43503e-19)
(1.00952 0.401356 1.08054e-18)
(1.1376 0.459226 5.34373e-19)
(1.22222 0.492976 -1.24304e-19)
(1.27455 0.507565 4.20062e-19)
(1.30388 0.508342 -2.76823e-19)
(1.31726 0.500756 -7.79993e-20)
(1.32062 0.486562 5.11698e-19)
(0.240571 0.0976139 -3.59228e-19)
(0.587662 0.252822 4.58434e-19)
(0.837179 0.377023 -9.02332e-19)
(1.0123 0.464296 1.2723e-19)
(1.13012 0.518005 2.85504e-19)
(1.20512 0.544806 -4.35891e-19)
(1.24954 0.551636 -5.13558e-19)
(1.27309 0.545036 2.27019e-19)
(1.28286 0.531008 -2.75059e-19)
(1.28483 0.511546 3.36644e-19)
(0.246435 0.121064 -9.0713e-20)
(0.592147 0.301826 -4.66567e-19)
(0.834115 0.434809 2.57692e-19)
(0.999426 0.52123 4.35931e-19)
(1.10765 0.569122 -2.61513e-19)
(1.17466 0.588131 -1.96397e-19)
(1.21322 0.587045 -1.13917e-19)
(1.23306 0.573368 -5.62328e-20)
(1.24107 0.553446 9.48959e-21)
(1.24318 0.529538 1.27955e-19)
(0.246868 0.143839 6.77345e-20)
(0.584858 0.347384 -3.95448e-19)
(0.816654 0.486204 6.60901e-19)
(0.971926 0.56957 -3.90942e-19)
(1.07179 0.610418 1.13432e-19)
(1.13281 0.621275 -1.59781e-19)
(1.16772 0.612543 1.72503e-19)
(1.18587 0.592398 4.00081e-20)
(1.19382 0.567302 -5.83517e-20)
(1.19735 0.539866 1.15281e-19)
(0.241688 0.164692 -1.78932e-19)
(0.566041 0.387081 3.50782e-19)
(0.785719 0.528615 -1.48854e-20)
(0.931322 0.607028 -7.79746e-20)
(1.02449 0.64007 -2.03688e-19)
(1.08173 0.642876 2.70933e-20)
(1.11527 0.627137 4.52853e-20)
(1.13374 0.601377 -1.38777e-19)
(1.14325 0.571874 1.60506e-19)
(1.14941 0.541747 1.4206e-19)
(0.231016 0.182366 4.90652e-20)
(0.536501 0.418666 -8.4293e-20)
(0.742761 0.559773 1.72983e-20)
(0.87949 0.631698 3.15898e-20)
(0.967807 0.656594 5.86438e-20)
(1.02359 0.651786 -1.32882e-19)
(1.05811 0.629932 -2.89029e-19)
(1.07912 0.599592 -1.19451e-19)
(1.09233 0.566533 -1.53569e-19)
(1.10273 0.53459 1.27762e-19)
(0.215298 0.195707 1.00277e-19)
(0.497576 0.44023 -1.61176e-19)
(0.689659 0.577904 1.56162e-19)
(0.818474 0.642185 -3.02248e-19)
(0.903636 0.658859 7.26362e-20)
(0.959903 0.64684 5.02264e-19)
(0.997474 0.619338 -1.54352e-19)
(1.02335 0.584651 1.8158e-19)
(1.04288 0.547931 2.67676e-19)
(1.05919 0.514936 9.75276e-19)
(0.195303 0.203775 6.66506e-19)
(0.451086 0.450388 -4.51607e-19)
(0.628671 0.581956 1.10362e-18)
(0.750443 0.637976 -1.88708e-19)
(0.833568 0.646799 9.49749e-19)
(0.891232 0.628062 5.95841e-19)
(0.932477 0.59472 -1.39875e-18)
(0.963727 0.553841 2.12662e-18)
(0.989602 0.507841 -4.50028e-19)
(1.00645 0.460933 8.8705e-19)
(0.172093 0.205919 -3.68366e-19)
(0.399299 0.448338 -2.64283e-19)
(0.562519 0.571613 2.57592e-19)
(0.678072 0.619546 -6.31873e-19)
(0.75981 0.622048 -1.97424e-18)
(0.818846 0.599004 -7.95142e-19)
(0.862833 0.563179 -7.14971e-19)
(0.897247 0.521712 3.4758e-19)
(0.925243 0.478115 2.88904e-18)
(0.942722 0.437335 -6.00583e-19)
(0.146927 0.201761 1.95385e-19)
(0.344802 0.433722 -7.92466e-19)
(0.494343 0.546848 1.73948e-19)
(0.604783 0.587192 -1.26718e-18)
(0.68618 0.585053 2.77248e-18)
(0.747414 0.559944 -3.22036e-19)
(0.794702 0.524076 1.51202e-18)
(0.832537 0.484236 -2.16422e-18)
(0.863449 0.443928 6.79673e-19)
(0.884748 0.407433 1.05304e-19)
(0.121143 0.19119 1.44193e-19)
(0.29022 0.406613 8.73364e-19)
(0.427199 0.507958 -2.56807e-18)
(0.533681 0.54128 1.24881e-18)
(0.615732 0.536016 -3.47804e-21)
(0.679988 0.510631 -4.21523e-19)
(0.731303 0.476429 5.31361e-19)
(0.773331 0.43961 -5.27155e-19)
(0.808256 0.403326 -1.81096e-18)
(0.834333 0.370831 -4.96774e-19)
(0.0960664 0.174362 4.7306e-19)
(0.238076 0.367526 5.30729e-19)
(0.363917 0.455669 2.19091e-18)
(0.467494 0.482556 -1.21903e-18)
(0.550912 0.475529 2.51242e-18)
(0.618649 0.451367 -5.40985e-19)
(0.674296 0.42014 -5.71415e-19)
(0.72078 0.38729 6.7551e-19)
(0.760009 0.355496 4.40323e-19)
(0.790942 0.327099 1.59585e-18)
(0.0729572 0.151693 -4.80736e-19)
(0.190696 0.317419 1.57153e-19)
(0.307036 0.391155 4.26405e-20)
(0.408594 0.412186 1.24364e-18)
(0.493769 0.404613 -3.10401e-18)
(0.565059 0.382966 5.27585e-19)
(0.624933 0.355823 1.16369e-18)
(0.675685 0.327745 -1.40663e-18)
(0.718999 0.300898 4.95422e-19)
(0.754457 0.276879 -2.29905e-18)
(0.0529552 0.123843 1.02506e-19)
(0.150137 0.257658 5.52749e-19)
(0.258759 0.316007 2.14953e-19)
(0.358993 0.33172 2.914e-19)
(0.445995 0.324654 5.58009e-19)
(0.520562 0.306619 1.66059e-18)
(0.584213 0.284491 -2.03275e-18)
(0.638713 0.261878 -1.1444e-18)
(0.685579 0.240432 1.89597e-19)
(0.724957 0.221182 1.4915e-18)
(0.0370372 0.0917027 -6.20028e-19)
(0.118127 0.189975 -7.36145e-20)
(0.220904 0.232183 -6.17358e-19)
(0.320327 0.243041 8.79705e-20)
(0.408955 0.237346 -5.28275e-19)
(0.486234 0.223808 -6.03094e-19)
(0.552942 0.207444 -8.98574e-19)
(0.610435 0.190866 2.4205e-18)
(0.660116 0.175227 4.17319e-19)
(0.702609 0.16114 -6.36211e-19)
(0.0259765 0.0563493 3.34248e-19)
(0.0960156 0.116405 4.41655e-19)
(0.194871 0.14194 1.73823e-19)
(0.293846 0.148303 -9.38627e-19)
(0.38368 0.144621 -4.3686e-19)
(0.462888 0.136231 -9.40905e-20)
(0.531739 0.126186 1.8374e-19)
(0.591311 0.116064 1.47544e-19)
(0.642938 0.106548 -1.14002e-18)
(0.687592 0.0979529 6.54208e-19)
(0.020309 0.0190072 -1.74075e-19)
(0.0847248 0.0392092 -1.97967e-19)
(0.181614 0.0477557 1.57731e-19)
(0.280393 0.0498505 1.40014e-19)
(0.370868 0.0485785 1.43481e-19)
(0.451077 0.0457366 2.19354e-19)
(0.52103 0.0423502 -1.15716e-20)
(0.581665 0.0389469 -2.87605e-19)
(0.634285 0.035752 2.73055e-19)
(0.680045 0.0328624 -4.10775e-19)
(0.020309 -0.0190081 -1.75211e-19)
(0.0847249 -0.0392111 -1.8864e-19)
(0.181614 -0.047758 1.73815e-19)
(0.280393 -0.049853 3.40229e-19)
(0.370868 -0.0485811 2.26624e-19)
(0.451077 -0.0457392 -2.98575e-19)
(0.52103 -0.0423529 -1.62151e-19)
(0.581665 -0.0389496 7.07545e-20)
(0.634285 -0.0357548 1.58938e-19)
(0.680045 -0.0328652 -9.46263e-20)
(0.0259766 -0.0563502 4.18071e-19)
(0.0960158 -0.116407 -5.31129e-19)
(0.194872 -0.141943 -4.41198e-20)
(0.293846 -0.148306 2.94195e-19)
(0.383681 -0.144624 -1.32968e-18)
(0.462889 -0.136233 5.68026e-19)
(0.53174 -0.126189 5.86132e-19)
(0.591311 -0.116067 -6.91824e-19)
(0.642938 -0.106551 6.60627e-19)
(0.687592 -0.0979557 -2.90075e-19)
(0.0370374 -0.0917037 -7.22941e-20)
(0.118128 -0.189977 -9.16574e-21)
(0.220904 -0.232186 -1.43389e-18)
(0.320328 -0.243044 -4.55862e-19)
(0.408955 -0.237349 -4.77911e-20)
(0.486234 -0.22381 -7.49823e-19)
(0.552942 -0.207447 1.39685e-18)
(0.610435 -0.190868 -4.92198e-20)
(0.660116 -0.175229 7.97331e-19)
(0.70261 -0.161143 -7.00689e-19)
(0.0529555 -0.123844 1.22045e-19)
(0.150137 -0.25766 -5.6442e-19)
(0.25876 -0.316009 1.73717e-18)
(0.358994 -0.331722 2.45908e-19)
(0.445996 -0.324657 1.20795e-18)
(0.520563 -0.306622 -1.18041e-18)
(0.584214 -0.284493 1.23902e-18)
(0.638714 -0.261881 -8.93419e-19)
(0.685579 -0.240435 -3.92455e-19)
(0.724958 -0.221184 3.33005e-19)
(0.0729576 -0.151693 1.0887e-18)
(0.190696 -0.317421 2.82463e-21)
(0.307037 -0.391157 -1.82925e-18)
(0.408595 -0.412189 -5.3047e-19)
(0.49377 -0.404615 1.76202e-18)
(0.56506 -0.382969 -1.03219e-18)
(0.624934 -0.355826 -1.1948e-18)
(0.675686 -0.327748 1.07504e-18)
(0.719 -0.3009 -7.31525e-19)
(0.754458 -0.276882 -1.5778e-19)
(0.0960669 -0.174363 -1.62583e-19)
(0.238077 -0.367528 -7.58892e-21)
(0.363918 -0.455671 1.98318e-18)
(0.467495 -0.482559 1.13714e-18)
(0.550913 -0.475531 -1.34067e-18)
(0.61865 -0.451369 1.62355e-18)
(0.674297 -0.420143 -1.76053e-18)
(0.720781 -0.387292 1.75509e-19)
(0.76001 -0.355499 5.24583e-19)
(0.790943 -0.327102 1.21263e-18)
(0.121143 -0.191191 1.8562e-19)
(0.290221 -0.406615 2.98502e-19)
(0.427201 -0.50796 3.24106e-19)
(0.533683 -0.541282 -1.0463e-18)
(0.615733 -0.536018 -1.86255e-18)
(0.67999 -0.510633 3.92349e-19)
(0.731305 -0.476431 1.13639e-18)
(0.773333 -0.439612 -3.25124e-19)
(0.808257 -0.403329 1.95549e-18)
(0.834334 -0.370834 -1.90672e-18)
(0.146928 -0.201761 -1.05005e-18)
(0.344803 -0.433724 4.01856e-19)
(0.494345 -0.54685 -1.08867e-18)
(0.604784 -0.587194 1.75944e-18)
(0.686182 -0.585055 8.79916e-19)
(0.747416 -0.559946 1.2423e-18)
(0.794704 -0.524078 -2.86712e-19)
(0.832538 -0.484238 1.13323e-18)
(0.863451 -0.44393 -2.39838e-18)
(0.88475 -0.407435 -6.25417e-19)
(0.172093 -0.20592 6.29696e-20)
(0.399301 -0.448339 -7.03253e-19)
(0.56252 -0.571615 -1.12188e-18)
(0.678074 -0.619548 -4.77229e-19)
(0.759812 -0.62205 -1.34772e-18)
(0.818848 -0.599006 -1.37908e-19)
(0.862835 -0.56318 1.18501e-19)
(0.897249 -0.521714 -5.25923e-19)
(0.925245 -0.478116 -5.89116e-19)
(0.942724 -0.437337 1.55289e-18)
(0.195304 -0.203776 3.29433e-19)
(0.451088 -0.450389 4.5797e-19)
(0.628673 -0.581958 8.23145e-19)
(0.750446 -0.637977 3.73617e-20)
(0.833571 -0.646801 5.51242e-19)
(0.891235 -0.628064 -7.52806e-19)
(0.932479 -0.594722 2.30129e-18)
(0.963729 -0.553842 -1.01534e-18)
(0.989604 -0.507842 -4.99803e-19)
(1.00646 -0.460934 -1.50817e-18)
(0.215298 -0.195707 -1.29049e-19)
(0.497578 -0.440231 2.21876e-19)
(0.689661 -0.577906 -2.28588e-19)
(0.818477 -0.642186 1.2464e-19)
(0.903638 -0.65886 -1.47663e-19)
(0.959906 -0.646841 -3.80013e-19)
(0.997477 -0.619339 4.99576e-19)
(1.02335 -0.584652 -1.65986e-19)
(1.04288 -0.547932 2.53624e-19)
(1.05919 -0.514937 -5.54126e-19)
(0.231017 -0.182367 -3.41526e-21)
(0.536504 -0.418668 -1.16497e-19)
(0.742764 -0.559775 3.55249e-20)
(0.879494 -0.6317 1.35248e-19)
(0.96781 -0.656595 -6.87677e-20)
(1.02359 -0.651787 1.95925e-20)
(1.05811 -0.629933 -1.61197e-20)
(1.07913 -0.599592 -3.67949e-19)
(1.09234 -0.566533 -1.73378e-19)
(1.10273 -0.534591 -5.39524e-19)
(0.241689 -0.164692 -9.95187e-20)
(0.566043 -0.387083 3.51796e-19)
(0.785722 -0.528617 -2.21938e-19)
(0.931325 -0.607029 -8.97744e-20)
(1.02449 -0.640072 5.33398e-20)
(1.08174 -0.642877 5.61593e-20)
(1.11528 -0.627137 -3.0028e-21)
(1.13375 -0.601377 2.67785e-19)
(1.14326 -0.571875 -2.34252e-19)
(1.14942 -0.541747 -2.5011e-21)
(0.24687 -0.14384 -2.40924e-19)
(0.584861 -0.347385 -1.52714e-19)
(0.816658 -0.486206 -3.78124e-19)
(0.97193 -0.569571 4.30919e-19)
(1.0718 -0.610419 -3.14007e-20)
(1.13281 -0.621276 1.4468e-19)
(1.16772 -0.612543 1.69801e-19)
(1.18588 -0.592398 -6.08423e-20)
(1.19382 -0.567302 3.24805e-20)
(1.19735 -0.539866 -1.20022e-19)
(0.246436 -0.121064 -1.63103e-19)
(0.59215 -0.301827 -2.09436e-19)
(0.834119 -0.43481 3.16934e-19)
(0.999431 -0.521231 -4.78387e-19)
(1.10766 -0.569123 8.38891e-20)
(1.17466 -0.588131 4.31889e-20)
(1.21323 -0.587045 9.27958e-20)
(1.23306 -0.573368 -6.04418e-20)
(1.24107 -0.553446 -7.42242e-20)
(1.24318 -0.529538 -2.70524e-19)
(0.240573 -0.0976145 6.79888e-19)
(0.587666 -0.252823 -5.31544e-19)
(0.837184 -0.377024 2.46196e-20)
(1.0123 -0.464297 -6.83855e-19)
(1.13013 -0.518006 -1.99613e-19)
(1.20513 -0.544806 1.60074e-19)
(1.24955 -0.551635 1.17824e-19)
(1.27309 -0.545035 -3.93701e-19)
(1.28286 -0.531007 1.7765e-19)
(1.28483 -0.511545 -3.1715e-19)
(0.229734 -0.0746505 3.36735e-19)
(0.571733 -0.202796 -3.33175e-19)
(0.825548 -0.31562 1.19841e-18)
(1.00953 -0.401357 9.61225e-20)
(1.1376 -0.459226 2.72166e-19)
(1.22223 -0.492976 9.75589e-19)
(1.27456 -0.507564 -2.01601e-19)
(1.30388 -0.508341 5.14208e-20)
(1.31727 -0.500755 -2.70005e-20)
(1.32062 -0.48656 -5.08535e-20)
(0.2146 -0.0531795 2.59261e-19)
(0.545216 -0.154031 5.89975e-19)
(0.79956 -0.253395 -6.02311e-19)
(0.990697 -0.33518 -1.83518e-19)
(1.12895 -0.395204 -1.94864e-19)
(1.22429 -0.434584 3.82152e-19)
(1.28627 -0.456299 -1.80893e-19)
(1.32337 -0.464359 4.27724e-19)
(1.34235 -0.463477 1.04121e-19)
(1.3488 -0.455153 -1.82797e-19)
(0.196017 -0.0340103 -2.80097e-19)
(0.509454 -0.108549 2.60032e-19)
(0.760221 -0.193022 -5.34325e-19)
(0.956081 -0.268585 2.23939e-19)
(1.10363 -0.328545 -2.24648e-19)
(1.21007 -0.371819 -2.67566e-19)
(1.28299 -0.399548 -2.08088e-19)
(1.32965 -0.414355 2.29812e-19)
(1.35616 -0.420078 -4.00895e-19)
(1.36759 -0.417935 2.53707e-19)
(0.174936 -0.0177264 -1.04878e-19)
(0.466169 -0.0680174 -2.05996e-19)
(0.709138 -0.136909 9.69219e-20)
(0.906664 -0.204309 7.11019e-21)
(1.0618 -0.261949 7.72763e-20)
(1.17891 -0.307082 1.10873e-19)
(1.26341 -0.339283 9.46976e-20)
(1.32099 -0.359853 -1.28063e-19)
(1.35683 -0.371674 1.04773e-19)
(1.37514 -0.375662 -1.65645e-19)
(0.152351 -0.00467821 -6.60818e-20)
(0.417346 -0.0336731 -2.66373e-20)
(0.648431 -0.08708 9.94292e-20)
(0.844125 -0.144877 -4.48201e-20)
(1.00435 -0.198099 1.25699e-19)
(1.13084 -0.242932 -1.58981e-19)
(1.22675 -0.277746 4.07661e-20)
(1.29604 -0.302686 3.50788e-20)
(1.34265 -0.319677 -1.26707e-20)
(1.36967 -0.329324 5.77713e-20)
(0.129224 0.00500898 -7.92509e-20)
(0.365097 -0.006294 -3.36354e-19)
(0.5806 -0.045083 -2.71611e-20)
(0.770756 -0.0924611 1.08384e-20)
(0.932955 -0.139536 -4.67522e-19)
(1.06666 -0.181991 4.93713e-20)
(1.17295 -0.217408 -5.23047e-20)
(1.25396 -0.245025 -1.4258e-19)
(1.31221 -0.265874 3.16122e-19)
(1.34949 -0.280258 -5.75344e-19)
(0.106437 0.0114099 -4.4948e-20)
(0.311524 0.0138013 7.21533e-19)
(0.50836 -0.0119254 9.63908e-20)
(0.689337 -0.0487713 -6.5229e-19)
(0.849986 -0.0885094 -7.79843e-20)
(0.98802 -0.126816 -7.36704e-19)
(1.10274 -0.160895 5.73196e-19)
(1.1946 -0.189367 -2.3301e-19)
(1.26464 -0.212486 4.41561e-19)
(1.31322 -0.230258 -3.90132e-19)
(0.0847432 0.0147642 -2.54272e-19)
(0.258591 0.0267234 2.96454e-19)
(0.434464 0.0119535 -2.07161e-19)
(0.60295 -0.0149455 1.432e-18)
(0.758393 -0.0468227 7.58592e-19)
(0.897327 -0.079727 -1.98802e-19)
(1.01772 -0.110838 7.73137e-19)
(1.11865 -0.138453 -5.05912e-19)
(1.19977 -0.162169 -1.63236e-19)
(1.26001 -0.181656 1.17683e-18)
(0.0647373 0.0154353 -4.70245e-19)
(0.20802 0.0329619 7.02539e-19)
(0.36152 0.0266841 -1.33312e-18)
(0.514762 0.00853044 2.30858e-19)
(0.661497 -0.0156685 5.7617e-19)
(0.797638 -0.0425887 -7.23867e-19)
(0.920348 -0.0696561 -1.28323e-18)
(1.02773 -0.0950814 6.88007e-19)
(1.11832 -0.117903 -8.95502e-19)
(1.18975 -0.137312 1.4332e-18)
(0.0468498 0.0138735 -1.16219e-19)
(0.161218 0.0333303 -7.0728e-19)
(0.291841 0.0329521 3.491e-19)
(0.427792 0.0218908 8.74459e-19)
(0.56271 0.00454134 -4.69668e-19)
(0.69238 -0.0165465 -4.63861e-19)
(0.813676 -0.0392241 -7.8706e-19)
(0.924245 -0.0617872 -3.60825e-19)
(1.02189 -0.0827371 -8.67639e-20)
(1.10325 -0.100461 1.43188e-18)
(0.0313605 0.0105901 1.95382e-19)
(0.11925 0.0289178 -9.61324e-19)
(0.227329 0.0319764 1.64526e-18)
(0.344699 0.0261471 -9.16126e-19)
(0.465239 0.0143574 5.94216e-19)
(0.584983 -0.00169624 -7.39434e-19)
(0.700986 -0.0204128 8.23713e-19)
(0.811003 -0.0402961 7.19621e-19)
(0.912665 -0.0592571 1.57227e-18)
(1.00196 -0.0742904 -2.5994e-18)
(0.0184284 0.00614699 -6.07073e-19)
(0.0828526 0.0210488 1.21988e-18)
(0.16942 0.0254697 1.64489e-20)
(0.26764 0.0231093 -4.39571e-19)
(0.371835 0.0154501 -2.33224e-19)
(0.478503 0.00328562 1.86846e-19)
(0.585242 -0.0124538 -1.32663e-18)
(0.690487 -0.0306582 1.02502e-18)
(0.792454 -0.0486523 -1.3211e-18)
(0.887151 -0.0611021 -6.02735e-19)
(0.00812379 0.00115218 1.04527e-18)
(0.0524665 0.0112247 -3.26076e-19)
(0.119121 0.0155417 -6.12412e-19)
(0.198278 0.0153094 1.66354e-18)
(0.284739 0.010648 -1.6347e-18)
(0.375444 0.00141826 9.13732e-19)
(0.468578 -0.0122921 9.73554e-19)
(0.563563 -0.0301737 2.6647e-19)
(0.660042 -0.0495188 2.77063e-19)
(0.755712 -0.0616445 -3.92658e-19)
(0.000440395 -0.00376665 -1.00007e-18)
(0.0282919 0.00100241 9.5112e-19)
(0.077126 0.0044827 -8.41961e-19)
(0.138033 0.00575215 1.05697e-18)
(0.206181 0.00381372 -3.15768e-19)
(0.278602 -0.00225666 -1.09763e-18)
(0.353455 -0.0131965 3.14733e-19)
(0.430328 -0.0299499 -5.19219e-19)
(0.510188 -0.0517876 -6.1487e-19)
(0.595371 -0.068748 -1.91715e-18)
(-0.00472962 -0.00804773 -1.25032e-18)
(0.0102899 -0.00826483 9.94289e-19)
(0.0439117 -0.0057386 -1.94901e-18)
(0.0884037 -0.00293071 3.48642e-19)
(0.139305 -0.00140032 -1.35125e-18)
(0.193512 -0.00211078 -8.10903e-19)
(0.248445 -0.00538676 1.94116e-18)
(0.302164 -0.0114506 -2.65487e-18)
(0.354017 -0.0209022 5.11079e-19)
(0.401271 -0.0296033 -8.43859e-19)
(-0.0076512 -0.0113144 6.16017e-19)
(-0.00193051 -0.0157313 2.61021e-19)
(0.0194763 -0.0141401 -7.79162e-20)
(0.0504082 -0.010043 7.41019e-19)
(0.087179 -0.00532872 2.17705e-18)
(0.127211 -0.00095957 7.51822e-19)
(0.168492 0.00287127 7.77185e-19)
(0.209818 0.00621037 -2.68665e-19)
(0.251261 0.00839681 -2.51012e-18)
(0.290254 0.00984694 6.36288e-19)
(-0.00876121 -0.0133968 -1.74109e-19)
(-0.00923997 -0.0209925 5.54317e-19)
(0.00282288 -0.0203408 -1.45258e-19)
(0.023017 -0.0155872 1.02561e-18)
(0.0485708 -0.00890742 -2.37149e-18)
(0.0775354 -0.00146334 2.0155e-19)
(0.108479 0.00621612 -1.1295e-18)
(0.140619 0.0137215 1.66306e-18)
(0.173776 0.0200857 -4.85922e-19)
(0.205281 0.02462 -6.94735e-20)
(-0.00857234 -0.0142825 -1.18497e-19)
(-0.0127663 -0.0239275 -6.66584e-19)
(-0.00757627 -0.0241704 1.67728e-18)
(0.00430318 -0.0194267 -8.84263e-19)
(0.0209816 -0.0120652 6.20178e-20)
(0.0410462 -0.00346397 2.83852e-19)
(0.0634541 0.0055074 -2.59809e-19)
(0.0875825 0.0140551 3.37415e-19)
(0.113014 0.0210757 1.17008e-18)
(0.13754 0.0257711 3.06418e-19)
(-0.00757382 -0.0140583 -2.66033e-19)
(-0.0136491 -0.0246022 -2.95972e-19)
(-0.0133263 -0.0255862 -1.31368e-18)
(-0.0077476 -0.0213432 6.99672e-19)
(0.0019898 -0.0142697 -1.4434e-18)
(0.0149222 -0.00584073 3.27871e-19)
(0.0302881 0.00291303 3.68772e-19)
(0.0475457 0.0110803 -3.90058e-19)
(0.0661749 0.0176494 -2.52475e-19)
(0.0845277 0.0218952 -1.1344e-18)
(-0.0061812 -0.0128637 2.07989e-19)
(-0.0129082 -0.0232092 -4.89621e-20)
(-0.0159076 -0.0246757 9.28776e-22)
(-0.0150039 -0.0212068 -6.31685e-19)
(-0.0106184 -0.0150434 1.59908e-18)
(-0.00334581 -0.00760926 -2.49447e-19)
(0.00626812 7.11537e-05 -6.22708e-19)
(0.0177475 0.0071425 7.62229e-19)
(0.0305542 0.0127855 -2.6797e-19)
(0.0435246 0.0164005 1.48106e-18)
(-0.004721 -0.010861 -3.90532e-20)
(-0.0113829 -0.0200256 -2.28929e-19)
(-0.0165651 -0.0216511 -9.03557e-20)
(-0.01904 -0.0190454 -1.15447e-19)
(-0.018683 -0.0141271 -2.48165e-19)
(-0.0157938 -0.0081356 -7.79469e-19)
(-0.0107464 -0.00196704 9.75117e-19)
(-0.00394936 0.00366794 5.69772e-19)
(0.00408246 0.00815804 -1.02023e-19)
(0.0125546 0.0110425 -9.0844e-19)
(-0.00343451 -0.00822112 2.21815e-19)
(-0.0097155 -0.015387 3.87247e-20)
(-0.016265 -0.0168398 2.62261e-19)
(-0.021073 -0.0150678 -3.00591e-20)
(-0.0236041 -0.0115341 2.3881e-19)
(-0.0239345 -0.00719151 2.69486e-19)
(-0.0223041 -0.00272712 4.04125e-19)
(-0.0190587 0.00133514 -1.14487e-18)
(-0.0146784 0.00457739 -2.1136e-19)
(-0.00969892 0.00667486 3.78758e-19)
(-0.00248945 -0.00512007 -1.1203e-19)
(-0.00836303 -0.00967376 -1.59196e-19)
(-0.0156992 -0.0106716 -7.65533e-20)
(-0.0219714 -0.00965551 3.74501e-19)
(-0.0263698 -0.00753968 1.81782e-19)
(-0.0288192 -0.00492184 3.72851e-20)
(-0.0294665 -0.00223109 -8.08322e-20)
(-0.0286088 0.000213569 -6.27195e-20)
(-0.0266968 0.00216977 5.38429e-19)
(-0.0241036 0.00344433 -3.66673e-19)
(-0.00199138 -0.0017391 5.71162e-20)
(-0.00761626 -0.00330077 7.10476e-20)
(-0.0153093 -0.00365549 -6.05724e-20)
(-0.0222872 -0.00332551 -5.54011e-20)
(-0.0276029 -0.00262168 -5.74438e-20)
(-0.0311048 -0.0017475 -9.16734e-20)
(-0.0328916 -0.000848701 2.9374e-21)
(-0.033234 -3.22441e-05 1.27212e-19)
(-0.0325662 0.00062253 -1.27753e-19)
(-0.0311839 0.00105148 2.32434e-19)
(-0.00728549 -0.00260172 1.68605e-20)
(0.0639963 -0.00664562 1.03434e-20)
(0.280671 -0.00682985 1.44501e-21)
(0.382852 -0.00454908 -9.72269e-22)
(0.487025 -0.00390643 -7.13202e-23)
(0.567266 -0.00276063 1.80002e-22)
(0.619859 -0.00241451 2.65353e-22)
(0.688507 -0.0017711 -6.64584e-23)
(0.711444 -0.00182462 -1.02563e-24)
(0.784728 -0.00147989 3.3538e-22)
(0.00956975 -0.00816888 2.65545e-20)
(0.0793192 -0.0198377 1.02384e-21)
(0.292238 -0.0202684 -1.85236e-20)
(0.391664 -0.0134025 1.55483e-20)
(0.493805 -0.0115181 1.02984e-21)
(0.572501 -0.00825398 -8.48354e-22)
(0.624188 -0.00732634 1.08477e-21)
(0.691804 -0.00547861 1.61497e-22)
(0.714375 -0.00562386 4.55063e-22)
(0.786796 -0.00440921 -3.08911e-22)
(0.0429828 -0.0146188 2.74688e-20)
(0.109475 -0.032548 -3.71786e-20)
(0.31492 -0.0332446 1.88218e-20)
(0.408954 -0.0219527 -1.30171e-20)
(0.507116 -0.0188971 9.96465e-22)
(0.5828 -0.0135926 -7.9626e-22)
(0.632704 -0.0121154 -4.26293e-22)
(0.698284 -0.00909913 3.06105e-23)
(0.720123 -0.00934828 -3.50951e-22)
(0.790834 -0.0072871 -4.52415e-22)
(0.0923399 -0.0224301 -4.21143e-20)
(0.153527 -0.0444761 -5.11908e-20)
(0.347871 -0.0454716 -2.42088e-20)
(0.434107 -0.0300152 1.32489e-20)
(0.526498 -0.0259005 -1.71015e-20)
(0.597839 -0.0186809 5.03821e-21)
(0.645168 -0.0167048 -3.45469e-22)
(0.707804 -0.012578 2.97636e-22)
(0.728589 -0.0129505 -3.92784e-22)
(0.796812 -0.0100809 1.66563e-22)
(0.156692 -0.0318749 1.17279e-19)
(0.210129 -0.0553332 7.51263e-20)
(0.389881 -0.0566839 2.72669e-20)
(0.466233 -0.0374266 -2.60704e-20)
(0.551276 -0.0324016 1.40167e-20)
(0.617131 -0.0234344 4.10034e-21)
(0.661196 -0.021026 3.4925e-21)
(0.720091 -0.015866 5.42816e-22)
(0.739546 -0.0163867 9.65821e-22)
(0.804584 -0.0127601 -8.89528e-22)
(0.234737 -0.0428781 -5.21837e-20)
(0.277584 -0.0648029 3.91113e-20)
(0.439444 -0.066626 4.91069e-21)
(0.50423 -0.0440424 2.94545e-20)
(0.580623 -0.0382913 -6.8459e-21)
(0.640082 -0.0277811 -4.99775e-21)
(0.680326 -0.025019 -3.58754e-21)
(0.734828 -0.0189207 -4.70043e-22)
(0.752736 -0.0196177 -4.53711e-22)
(0.813998 -0.0152972 9.29516e-22)
(0.324823 -0.0551559 -3.91419e-20)
(0.353897 -0.0726186 -1.03813e-19)
(0.49484 -0.0750931 -1.7926e-20)
(0.54684 -0.049745 -1.60184e-20)
(0.613595 -0.0434843 8.2462e-21)
(0.666007 -0.0316636 -2.43764e-21)
(0.702021 -0.0286357 3.57326e-21)
(0.751636 -0.0217067 8.85925e-22)
(0.767849 -0.0226108 -1.34708e-22)
(0.824862 -0.0176673 3.59928e-22)