1.45 	0 	0 	-0.298648
2.35 	0 	0 	-0.132579
