/*--------------------------------*- C++ -*----------------------------------*\
  =========                 |
  \\      /  F ield         | OpenFOAM: The Open Source CFD Toolbox
   \\    /   O peration     | Website:  https://openfoam.org
    \\  /    A nd           | Version:  6.0
     \\/     M anipulation  |
\*---------------------------------------------------------------------------*/
FoamFile
{
    version     2.0;
    format      ascii;
    class       volScalarField;
    location    "50";
    object      nut;
}
// * * * * * * * * * * * * * * * * * * * * * * * * * * * * * * * * * * * * * //

dimensions      [0 2 -1 0 0 0 0];

internalField   nonuniform List<scalar> 
9800
(
0.140012
0.140007
0.140007
0.140006
0.140005
0.140005
0.140005
0.140005
0.140004
0.140004
0.140004
0.140004
0.140005
0.140005
0.140005
0.140005
0.140004
0.140004
0.140004
0.140004
0.140003
0.14
0.139985
0.139984
0.139996
0.14
0.140002
0.140002
0.140003
0.140003
0.140003
0.140003
0.140002
0.140002
0.140002
0.140002
0.140002
0.140002
0.140001
0.140001
0.140001
0.140001
0.14
0.14
0.14
0.139999
0.139999
0.139998
0.139998
0.139997
0.139997
0.139996
0.139995
0.139993
0.139992
0.139989
0.139987
0.139984
0.139981
0.139979
0.139977
0.139975
0.139974
0.139973
0.139973
0.139972
0.139971
0.13997
0.139969
0.139968
0.139967
0.139967
0.139966
0.139966
0.139966
0.13997
0.139976
0.139981
0.139986
0.139991
0.139995
0.139999
0.140003
0.140007
0.140012
0.140017
0.140023
0.140029
0.140038
0.140048
0.140062
0.14008
0.140105
0.140137
0.140232
0.140194
0.14036
0.140576
0.141877
0.135425
0.139992
0.139996
0.139983
0.139979
0.139978
0.139978
0.139977
0.139977
0.139977
0.139977
0.139977
0.139977
0.139977
0.139977
0.139977
0.139977
0.139977
0.139977
0.139977
0.139976
0.139974
0.139968
0.139951
0.13995
0.139962
0.13997
0.139973
0.139974
0.139975
0.139975
0.139974
0.139974
0.139974
0.139973
0.139973
0.139973
0.139972
0.139972
0.139972
0.139971
0.139971
0.139971
0.13997
0.13997
0.139969
0.139969
0.139968
0.139967
0.139967
0.139966
0.139966
0.139966
0.139968
0.139971
0.139973
0.139974
0.139975
0.139975
0.139973
0.139972
0.13997
0.139969
0.139968
0.139968
0.139967
0.139966
0.139965
0.139965
0.139964
0.139964
0.139963
0.139963
0.139962
0.139962
0.139962
0.139964
0.139967
0.139971
0.139975
0.139981
0.139987
0.139993
0.139999
0.140006
0.140013
0.14002
0.140028
0.140036
0.140045
0.140054
0.140065
0.140076
0.14009
0.140104
0.140128
0.14014
0.14015
0.140164
0.140184
0.14033
0.139947
0.139946
0.139938
0.139937
0.139937
0.139937
0.139937
0.139937
0.139937
0.139937
0.139937
0.139937
0.139937
0.139937
0.139938
0.139938
0.139938
0.139938
0.139938
0.139937
0.139934
0.139926
0.139912
0.139911
0.139922
0.139931
0.139934
0.139936
0.139936
0.139936
0.139936
0.139935
0.139935
0.139934
0.139934
0.139933
0.139933
0.139932
0.139932
0.139931
0.13993
0.13993
0.139929
0.139929
0.139928
0.139927
0.139926
0.139925
0.139924
0.139923
0.139922
0.139922
0.139922
0.139923
0.139925
0.139927
0.139928
0.139929
0.13993
0.13993
0.139931
0.139932
0.139934
0.139936
0.139939
0.139943
0.139946
0.139949
0.139952
0.139954
0.139956
0.139958
0.13996
0.139962
0.139963
0.139965
0.139967
0.13997
0.139973
0.139977
0.139982
0.139987
0.139993
0.14
0.140007
0.140015
0.140023
0.140032
0.140041
0.140051
0.140061
0.140072
0.140084
0.140096
0.140108
0.14012
0.14013
0.140141
0.140134
0.140184
0.139905
0.139891
0.13989
0.13989
0.13989
0.139891
0.139892
0.139892
0.139893
0.139893
0.139893
0.139893
0.139893
0.139894
0.139894
0.139894
0.139894
0.139894
0.139894
0.139892
0.139888
0.13988
0.139868
0.139867
0.139877
0.139885
0.13989
0.139892
0.139892
0.139892
0.139892
0.139891
0.139891
0.13989
0.139889
0.139889
0.139888
0.139887
0.139886
0.139886
0.139885
0.139884
0.139883
0.139882
0.139881
0.139881
0.139879
0.139878
0.139877
0.139876
0.139874
0.139873
0.139872
0.139871
0.139871
0.139871
0.139872
0.139872
0.139873
0.139874
0.139874
0.139875
0.139876
0.139878
0.139881
0.139883
0.139886
0.13989
0.139893
0.139897
0.1399
0.139903
0.139905
0.139907
0.139909
0.139909
0.13991
0.13991
0.139909
0.139909
0.139908
0.139907
0.139906
0.139905
0.139904
0.139904
0.139903
0.139903
0.139902
0.139901
0.1399
0.139898
0.139895
0.139893
0.139889
0.139885
0.139888
0.139883
0.139886
0.139899
0.139854
0.139835
0.139837
0.139838
0.139839
0.13984
0.139841
0.139842
0.139842
0.139842
0.139843
0.139843
0.139844
0.139844
0.139845
0.139845
0.139845
0.139845
0.139844
0.139842
0.139837
0.139829
0.139818
0.139818
0.139826
0.139834
0.139839
0.139842
0.139843
0.139843
0.139842
0.139841
0.139841
0.13984
0.139839
0.139838
0.139837
0.139836
0.139835
0.139834
0.139833
0.139832
0.139831
0.139829
0.139828
0.139827
0.139825
0.139824
0.139822
0.139821
0.139819
0.139817
0.139815
0.139813
0.139812
0.13981
0.139808
0.139807
0.139806
0.139805
0.139804
0.139804
0.139803
0.139803
0.139803
0.139803
0.139804
0.139805
0.139806
0.139808
0.139809
0.139811
0.139812
0.139813
0.139814
0.139815
0.139814
0.139814
0.139812
0.13981
0.139808
0.139805
0.139802
0.139798
0.139793
0.139788
0.139783
0.139778
0.139772
0.139766
0.139759
0.139752
0.139744
0.139735
0.139726
0.139716
0.139706
0.139693
0.139693
0.13971
0.139797
0.139773
0.139776
0.139778
0.139779
0.139781
0.139782
0.139783
0.139784
0.139785
0.139786
0.139787
0.139787
0.139788
0.139788
0.139788
0.139788
0.139789
0.139788
0.139787
0.139781
0.139771
0.139762
0.139761
0.139769
0.139778
0.139784
0.139786
0.139786
0.139786
0.139786
0.139785
0.139784
0.139783
0.139782
0.139781
0.13978
0.139778
0.139777
0.139775
0.139774
0.139772
0.139771
0.139769
0.139768
0.139766
0.139765
0.139763
0.139761
0.139759
0.139756
0.139754
0.139752
0.139749
0.139747
0.139744
0.139741
0.139738
0.139736
0.139733
0.139731
0.139729
0.139726
0.139724
0.139722
0.13972
0.139718
0.139716
0.139714
0.139713
0.139712
0.139711
0.13971
0.139709
0.139708
0.139706
0.139704
0.139702
0.1397
0.139697
0.139694
0.13969
0.139685
0.13968
0.139675
0.139669
0.139662
0.139654
0.139647
0.139638
0.139629
0.139619
0.139609
0.139598
0.139586
0.139574
0.139563
0.139548
0.139549
0.139562
0.139736
0.139713
0.139721
0.139724
0.139727
0.139728
0.139729
0.13973
0.13973
0.139732
0.139735
0.139736
0.139737
0.139737
0.139737
0.139738
0.139739
0.13974
0.13974
0.139737
0.139727
0.139708
0.139696
0.139696
0.139706
0.139724
0.139732
0.139733
0.139732
0.13973
0.13973
0.139727
0.139725
0.139723
0.139721
0.139719
0.139717
0.139715
0.139713
0.139712
0.13971
0.139708
0.139706
0.139704
0.139702
0.1397
0.139698
0.139696
0.139693
0.139691
0.139688
0.139685
0.139682
0.139679
0.139676
0.139673
0.139669
0.139666
0.139662
0.139658
0.139654
0.13965
0.139646
0.139642
0.139638
0.139634
0.13963
0.139626
0.139622
0.139618
0.139614
0.139609
0.139605
0.139602
0.139598
0.139594
0.13959
0.139585
0.13958
0.139576
0.13957
0.139565
0.139558
0.139552
0.139545
0.139537
0.139529
0.13952
0.139511
0.139501
0.139491
0.13948
0.139469
0.139457
0.139445
0.139432
0.13942
0.139403
0.139404
0.139416
0.139684
0.139667
0.139675
0.139678
0.13968
0.139682
0.139682
0.139683
0.139685
0.139687
0.139691
0.139692
0.139692
0.139692
0.139693
0.139694
0.139695
0.139696
0.139695
0.139688
0.139671
0.139638
0.139622
0.139621
0.139636
0.139664
0.139679
0.139683
0.139681
0.139678
0.139677
0.139674
0.139671
0.139668
0.139664
0.13966
0.139657
0.139654
0.139652
0.13965
0.139648
0.139645
0.139642
0.139639
0.139636
0.139633
0.139629
0.139626
0.139623
0.139619
0.139615
0.139611
0.139607
0.139603
0.139599
0.139594
0.139589
0.139584
0.139579
0.139574
0.139569
0.139564
0.139558
0.139553
0.139548
0.139542
0.139536
0.139531
0.139525
0.139519
0.139512
0.139506
0.1395
0.139493
0.139487
0.13948
0.139474
0.139467
0.13946
0.139452
0.139445
0.139437
0.139428
0.13942
0.13941
0.139401
0.139391
0.13938
0.139369
0.139358
0.139346
0.139334
0.139321
0.139308
0.139295
0.139281
0.139267
0.13925
0.139251
0.139261
0.139639
0.139626
0.139632
0.139634
0.139636
0.139638
0.13964
0.139642
0.139644
0.139647
0.139651
0.13965
0.13965
0.139651
0.139652
0.139653
0.139653
0.139652
0.139647
0.139633
0.139604
0.139559
0.139535
0.139534
0.139554
0.139595
0.139619
0.139629
0.13963
0.139628
0.139626
0.139622
0.139619
0.139615
0.13961
0.139605
0.139601
0.139597
0.139594
0.139591
0.139588
0.139585
0.139581
0.139577
0.139573
0.139568
0.139564
0.139559
0.139553
0.139548
0.139542
0.139537
0.13953
0.139524
0.139518
0.139511
0.139504
0.139497
0.13949
0.139483
0.139476
0.139469
0.139462
0.139455
0.139447
0.13944
0.139433
0.139426
0.139418
0.139411
0.139403
0.139395
0.139387
0.139379
0.139371
0.139362
0.139353
0.139345
0.139335
0.139326
0.139316
0.139306
0.139295
0.139284
0.139273
0.139261
0.139249
0.139237
0.139224
0.139211
0.139198
0.139185
0.139171
0.139156
0.139142
0.139127
0.139114
0.139096
0.139098
0.139104
0.139604
0.139591
0.139595
0.139597
0.139599
0.139602
0.139604
0.139607
0.13961
0.139613
0.139615
0.139615
0.139616
0.139617
0.139617
0.139617
0.139615
0.139609
0.139596
0.139571
0.139528
0.139465
0.139433
0.139431
0.139456
0.139511
0.139548
0.139568
0.139576
0.139577
0.139576
0.139573
0.139569
0.139564
0.139559
0.139553
0.139547
0.139542
0.139538
0.139534
0.13953
0.139526
0.139521
0.139516
0.139511
0.139505
0.139498
0.139492
0.139484
0.139477
0.139468
0.13946
0.139451
0.139442
0.139433
0.139423
0.139413
0.139403
0.139393
0.139383
0.139373
0.139363
0.139353
0.139343
0.139334
0.139324
0.139315
0.139306
0.139297
0.139287
0.139278
0.139269
0.139259
0.139249
0.139239
0.139228
0.139218
0.139208
0.139197
0.139186
0.139174
0.139162
0.13915
0.139138
0.139125
0.139112
0.139098
0.139084
0.13907
0.139056
0.139042
0.139028
0.139013
0.138999
0.138984
0.138969
0.138955
0.138938
0.138942
0.138946
0.139551
0.139536
0.139541
0.139545
0.139549
0.139554
0.139558
0.139562
0.139566
0.139569
0.139573
0.139575
0.139576
0.139577
0.139576
0.139574
0.139568
0.139555
0.139531
0.13949
0.139429
0.13935
0.139312
0.13931
0.13934
0.13941
0.139464
0.139497
0.139515
0.139523
0.139526
0.139525
0.139521
0.139516
0.139511
0.139505
0.139498
0.139491
0.139485
0.139478
0.139472
0.139466
0.139459
0.139453
0.139447
0.13944
0.139431
0.139423
0.139413
0.139402
0.139391
0.139379
0.139367
0.139353
0.139339
0.139326
0.139311
0.139297
0.139282
0.139268
0.139254
0.13924
0.139227
0.139214
0.139201
0.139189
0.139177
0.139165
0.139154
0.139142
0.139131
0.13912
0.139109
0.139098
0.139086
0.139075
0.139063
0.139052
0.13904
0.139028
0.139016
0.139003
0.138991
0.138978
0.138965
0.138951
0.138938
0.138925
0.138912
0.138899
0.138887
0.138874
0.138861
0.138849
0.138837
0.138825
0.138815
0.138801
0.138811
0.138817
0.13952
0.139506
0.139509
0.139512
0.139517
0.139521
0.139525
0.139528
0.139532
0.139535
0.139539
0.139542
0.139543
0.139542
0.139538
0.139531
0.139518
0.139495
0.139456
0.139396
0.139314
0.139217
0.139169
0.139163
0.139195
0.139269
0.139339
0.13939
0.139423
0.139441
0.139452
0.139456
0.139454
0.13945
0.139443
0.139436
0.139427
0.139417
0.139407
0.139397
0.139387
0.139377
0.139366
0.139355
0.139345
0.139335
0.139323
0.139311
0.139298
0.139283
0.139268
0.139252
0.139235
0.139217
0.139201
0.139184
0.139167
0.139151
0.139135
0.139119
0.139103
0.139088
0.139074
0.13906
0.139046
0.139033
0.139021
0.139008
0.138996
0.138984
0.138972
0.138961
0.138949
0.138938
0.138927
0.138916
0.138905
0.138893
0.138882
0.138871
0.13886
0.138848
0.138836
0.138824
0.138812
0.1388
0.138788
0.138776
0.138765
0.138753
0.138742
0.138731
0.13872
0.138709
0.138699
0.13869
0.138681
0.138671
0.138681
0.138693
0.13939
0.139361
0.139366
0.139377
0.139387
0.139397
0.139406
0.139413
0.139421
0.139429
0.13944
0.139446
0.139448
0.139446
0.139439
0.139425
0.1394
0.13936
0.1393
0.139217
0.139118
0.139029
0.138984
0.13898
0.139017
0.1391
0.139189
0.13926
0.139311
0.139345
0.139368
0.139379
0.139382
0.13938
0.139373
0.139365
0.139356
0.139345
0.139332
0.139319
0.139305
0.139289
0.139274
0.139257
0.139241
0.139224
0.139208
0.139192
0.139175
0.139156
0.139137
0.139117
0.139096
0.139075
0.139054
0.139034
0.139015
0.138997
0.138979
0.138962
0.138946
0.13893
0.138915
0.138901
0.138887
0.138874
0.13886
0.138848
0.138835
0.138823
0.13881
0.138798
0.138787
0.138775
0.138763
0.138752
0.13874
0.138728
0.138716
0.138704
0.138692
0.13868
0.138668
0.138655
0.138643
0.138632
0.138621
0.13861
0.1386
0.13859
0.138581
0.138573
0.138565
0.138558
0.138553
0.138548
0.138549
0.138548
0.138567
0.138584
0.139384
0.139366
0.139369
0.139375
0.139382
0.13939
0.139397
0.139404
0.13941
0.139417
0.139424
0.139424
0.139418
0.139406
0.139385
0.139353
0.139305
0.13924
0.139153
0.139045
0.138923
0.13881
0.13875
0.138732
0.138755
0.138807
0.138874
0.138946
0.139012
0.139067
0.139115
0.139145
0.13916
0.139164
0.13916
0.13915
0.139137
0.139122
0.139105
0.139089
0.13907
0.13905
0.13903
0.139011
0.138992
0.138974
0.138957
0.13894
0.138924
0.138909
0.138894
0.138878
0.138862
0.138846
0.13883
0.138813
0.138797
0.138781
0.138765
0.138748
0.138732
0.138716
0.1387
0.138685
0.13867
0.138656
0.138642
0.138628
0.138614
0.138601
0.138587
0.138574
0.13856
0.138548
0.138535
0.138523
0.138511
0.138499
0.138488
0.138477
0.138466
0.138456
0.138447
0.138438
0.13843
0.138424
0.138418
0.138414
0.138411
0.13841
0.13841
0.138412
0.138415
0.138419
0.138425
0.138432
0.138441
0.13845
0.138461
0.138503
0.139057
0.13901
0.139006
0.139009
0.139013
0.139016
0.139019
0.139021
0.139022
0.13902
0.139015
0.139005
0.138989
0.138963
0.138929
0.138884
0.138825
0.138755
0.138673
0.138586
0.138502
0.138432
0.138392
0.138387
0.138418
0.138483
0.138579
0.138675
0.138763
0.13884
0.138908
0.138958
0.138991
0.139009
0.139015
0.139012
0.139001
0.138986
0.138966
0.138943
0.138917
0.138889
0.13886
0.138829
0.138798
0.138766
0.138734
0.138702
0.138672
0.138644
0.138617
0.138593
0.138571
0.138551
0.138532
0.138514
0.138498
0.138482
0.138467
0.138452
0.138437
0.138423
0.138409
0.138395
0.138381
0.138367
0.138354
0.138341
0.138328
0.138316
0.138305
0.138293
0.138283
0.138273
0.138264
0.138255
0.138248
0.138242
0.138236
0.138232
0.13823
0.138229
0.138229
0.138231
0.138234
0.138239
0.138245
0.138252
0.138261
0.138271
0.138283
0.138295
0.138308
0.13832
0.138333
0.138346
0.13836
0.138373
0.138402
0.138448
0.139122
0.139089
0.139074
0.139064
0.139055
0.139045
0.139034
0.139021
0.139006
0.138987
0.138965
0.138936
0.138897
0.138848
0.13879
0.138721
0.138638
0.138543
0.138435
0.138313
0.13818
0.138046
0.137947
0.137899
0.137886
0.137904
0.137947
0.138003
0.138062
0.138121
0.138176
0.138225
0.138265
0.138295
0.138316
0.13833
0.138336
0.138337
0.138332
0.138323
0.138311
0.138296
0.13828
0.138261
0.138242
0.138221
0.138199
0.138178
0.138156
0.138134
0.138112
0.138092
0.138072
0.138054
0.138036
0.13802
0.138004
0.13799
0.137977
0.137964
0.137952
0.137941
0.137931
0.137921
0.137912
0.137903
0.137894
0.137886
0.137879
0.137872
0.137866
0.137862
0.137858
0.137856
0.137855
0.137855
0.137857
0.13786
0.137865
0.137872
0.137881
0.137892
0.137904
0.137917
0.137932
0.137947
0.137964
0.137981
0.137999
0.138017
0.138035
0.138052
0.138067
0.138081
0.138092
0.1381
0.138104
0.138105
0.138102
0.138151
0.138184
0.138168
0.138153
0.138136
0.138117
0.138096
0.138072
0.138045
0.138011
0.137971
0.137926
0.137876
0.13782
0.137758
0.137691
0.137617
0.137539
0.137458
0.137374
0.137291
0.137214
0.137151
0.137115
0.137111
0.137143
0.137216
0.137323
0.137432
0.137534
0.137626
0.137708
0.137771
0.137819
0.137853
0.137875
0.13789
0.137893
0.137887
0.137872
0.137849
0.137819
0.137783
0.137744
0.137703
0.137663
0.137625
0.137589
0.137558
0.137529
0.137503
0.13748
0.137459
0.13744
0.137423
0.137407
0.137393
0.137381
0.137371
0.137362
0.137354
0.13735
0.137348
0.137348
0.137351
0.137354
0.13736
0.137366
0.137375
0.137385
0.137397
0.137411
0.137427
0.137445
0.137465
0.137487
0.13751
0.137535
0.137561
0.137587
0.137614
0.137641
0.137667
0.137692
0.137715
0.137735
0.137753
0.137767
0.137777
0.137782
0.137783
0.137779
0.137769
0.137754
0.137733
0.137704
0.137669
0.137628
0.137581
0.137527
0.137475
0.138478
0.138406
0.138344
0.138283
0.138223
0.13816
0.138095
0.138026
0.137952
0.137876
0.137808
0.137733
0.137649
0.137556
0.137455
0.137345
0.137228
0.137103
0.136968
0.136825
0.136674
0.136515
0.136355
0.136207
0.136101
0.136051
0.136041
0.136055
0.136084
0.136118
0.136155
0.136199
0.136238
0.136274
0.136306
0.136334
0.136357
0.136373
0.136385
0.136394
0.1364
0.136402
0.136401
0.136397
0.136391
0.136385
0.136379
0.136374
0.13637
0.136367
0.136366
0.136365
0.136365
0.136367
0.136369
0.136373
0.136377
0.136383
0.136389
0.136396
0.136405
0.136418
0.136435
0.136452
0.136469
0.136484
0.136499
0.136513
0.136526
0.136538
0.136548
0.136555
0.13656
0.136562
0.136558
0.13655
0.136536
0.136517
0.136494
0.136465
0.136431
0.136392
0.136348
0.136298
0.136243
0.136182
0.136116
0.136045
0.135969
0.135888
0.135803
0.135716
0.135625
0.135534
0.135441
0.135349
0.135256
0.135162
0.13507
0.135002
0.135533
0.135396
0.135295
0.135209
0.13512
0.135027
0.134917
0.134795
0.134665
0.134536
0.134398
0.134272
0.134139
0.133998
0.133852
0.133702
0.133549
0.133396
0.133244
0.133095
0.13295
0.132813
0.132687
0.132576
0.132485
0.132416
0.13237
0.132344
0.132332
0.132331
0.13234
0.132365
0.132383
0.132397
0.132409
0.132418
0.132425
0.132429
0.132432
0.132431
0.132429
0.132425
0.132421
0.132418
0.132416
0.132414
0.132412
0.132412
0.132413
0.132413
0.132413
0.132411
0.13241
0.132407
0.132405
0.132403
0.132401
0.132399
0.132399
0.132402
0.132403
0.132408
0.132424
0.132436
0.13245
0.132464
0.13248
0.1325
0.132523
0.132551
0.132587
0.132632
0.132689
0.132763
0.132865
0.133002
0.133186
0.133411
0.133664
0.133936
0.134215
0.134495
0.134768
0.13503
0.135279
0.135514
0.135734
0.13594
0.136131
0.136309
0.136475
0.136629
0.136772
0.136905
0.13703
0.137146
0.137257
0.137365
0.137488
0.137687
0.141784
0.141367
0.141221
0.141271
0.141405
0.141524
0.141576
0.141541
0.141415
0.141232
0.141398
0.1409
0.140392
0.139934
0.1395
0.139073
0.138641
0.138194
0.137726
0.137234
0.136713
0.136161
0.135579
0.134964
0.134317
0.133638
0.132927
0.132186
0.131415
0.130616
0.12992
0.13004
0.12965
0.129298
0.128977
0.128687
0.128422
0.128176
0.127946
0.127729
0.127521
0.127322
0.127128
0.12694
0.126756
0.126575
0.126396
0.126219
0.126044
0.12587
0.125698
0.125526
0.125355
0.125184
0.125014
0.124844
0.124672
0.124498
0.124318
0.124124
0.123901
0.123808
0.124087
0.1241
0.124092
0.124077
0.12406
0.12404
0.124017
0.123992
0.123964
0.123936
0.123905
0.123873
0.123839
0.123802
0.123763
0.123719
0.12367
0.123614
0.123552
0.123484
0.123409
0.123328
0.123242
0.123151
0.123057
0.122959
0.122858
0.122755
0.122653
0.122552
0.122455
0.122367
0.122295
0.12226
0.122301
0.122518
0.123124
0.124588
0.160201
0.169643
0.179641
0.189468
0.199044
0.208367
0.217445
0.226283
0.234879
0.243227
0.251318
0.259137
0.26667
0.273901
0.280814
0.287396
0.293657
0.299535
0.305043
0.310188
0.314968
0.319384
0.323439
0.327141
0.3305
0.333528
0.336241
0.338657
0.340795
0.342677
0.344327
0.345768
0.346915
0.347746
0.348634
0.349406
0.350066
0.350632
0.351117
0.351536
0.351901
0.352224
0.352514
0.352781
0.353033
0.353279
0.353528
0.353476
0.353248
0.353462
0.353704
0.353949
0.354198
0.354454
0.354721
0.355008
0.355326
0.355693
0.356132
0.355962
0.355887
0.356799
0.358042
0.359708
0.361992
0.365157
0.369562
0.373588
0.382866
0.393541
0.139504
0.139198
0.138897
0.138619
0.138352
0.138085
0.137804
0.137503
0.137175
0.136818
0.136431
0.136012
0.135564
0.135086
0.134579
0.134046
0.133491
0.132911
0.132309
0.13169
0.131058
0.130413
0.12976
0.1291
0.128436
0.127772
0.127111
0.126454
0.125806
0.125169
0.124546
0.123941
0.123341
0.122736
0.122178
0.121645
0.121137
0.120653
0.120195
0.119763
0.119359
0.118982
0.118635
0.118316
0.118028
0.117772
0.117553
0.117322
0.117091
0.116952
0.116854
0.116788
0.116747
0.116729
0.116728
0.116743
0.116771
0.11681
0.116865
0.116819
0.116755
0.116805
0.116876
0.116957
0.11705
0.117169
0.117336
0.1172
0.117653
0.118214
0.140195
0.140194
0.140189
0.140179
0.140168
0.140154
0.140138
0.140121
0.140101
0.140078
0.140052
0.140021
0.139986
0.139945
0.1399
0.139849
0.139793
0.139731
0.139663
0.139589
0.139508
0.13942
0.139326
0.139225
0.139116
0.138999
0.138873
0.138739
0.138596
0.138443
0.138281
0.138109
0.137927
0.137737
0.137534
0.137322
0.137104
0.13688
0.136652
0.136421
0.136189
0.135958
0.13573
0.135507
0.13529
0.135081
0.134878
0.134687
0.134503
0.134322
0.134152
0.133996
0.133853
0.133724
0.133609
0.133506
0.133416
0.133335
0.13326
0.133193
0.133125
0.133052
0.132989
0.132935
0.132889
0.132845
0.132789
0.132732
0.132597
0.132369
0.139924
0.139937
0.139954
0.139973
0.139994
0.140019
0.140046
0.140076
0.140109
0.140145
0.140185
0.140228
0.140275
0.140326
0.14038
0.14044
0.140504
0.140572
0.140644
0.140721
0.140802
0.140886
0.140972
0.14106
0.141149
0.141236
0.141321
0.141401
0.141476
0.141544
0.141602
0.141651
0.141688
0.141714
0.141727
0.141728
0.141716
0.141692
0.141656
0.141609
0.141553
0.141488
0.141416
0.141339
0.141258
0.141174
0.14109
0.141008
0.140927
0.140847
0.140769
0.140695
0.140625
0.140559
0.140499
0.140443
0.140392
0.140346
0.140305
0.140272
0.140242
0.140212
0.140186
0.140163
0.140143
0.140125
0.140109
0.140102
0.14008
0.140056
0.139747
0.139765
0.139786
0.139809
0.139834
0.13986
0.139888
0.139917
0.139949
0.139982
0.140019
0.140058
0.1401
0.140145
0.140194
0.140247
0.140303
0.140363
0.140427
0.140494
0.140564
0.140638
0.140714
0.140791
0.14087
0.140948
0.141025
0.1411
0.141171
0.141236
0.141295
0.141345
0.141387
0.141419
0.141441
0.141453
0.141453
0.141443
0.141422
0.141392
0.141352
0.141305
0.14125
0.14119
0.141125
0.141058
0.140989
0.140921
0.140854
0.140788
0.140723
0.140661
0.140602
0.140546
0.140494
0.140445
0.140401
0.140361
0.140325
0.140295
0.140268
0.140243
0.140221
0.140202
0.140184
0.140169
0.140157
0.140148
0.14014
0.14014
0.139599
0.139617
0.139639
0.139663
0.139689
0.139717
0.139747
0.139779
0.139814
0.139851
0.139891
0.139933
0.139978
0.140026
0.140076
0.140129
0.140185
0.140244
0.140305
0.14037
0.140437
0.140507
0.140578
0.140652
0.140726
0.1408
0.140873
0.140943
0.14101
0.141072
0.141128
0.141176
0.141216
0.141248
0.14127
0.141282
0.141284
0.141276
0.141258
0.14123
0.141194
0.141151
0.1411
0.141044
0.140983
0.14092
0.140855
0.14079
0.140726
0.140663
0.140601
0.14054
0.140483
0.140429
0.140377
0.14033
0.140286
0.140247
0.140212
0.140181
0.140153
0.140128
0.140106
0.140086
0.140068
0.140053
0.14004
0.140029
0.14002
0.140016
0.139454
0.139474
0.139498
0.139524
0.139553
0.139584
0.139617
0.139653
0.139691
0.139732
0.139775
0.139821
0.139868
0.139919
0.139972
0.140027
0.140086
0.140147
0.14021
0.140277
0.140346
0.140417
0.140489
0.140563
0.140638
0.140712
0.140785
0.140856
0.140924
0.140986
0.141043
0.141092
0.141134
0.141167
0.141192
0.141207
0.141213
0.141208
0.141195
0.141172
0.141141
0.141102
0.141056
0.141005
0.140948
0.140889
0.140828
0.140767
0.140707
0.140646
0.140587
0.140529
0.140473
0.14042
0.14037
0.140324
0.140281
0.140241
0.140207
0.140176
0.140149
0.140123
0.140101
0.14008
0.140062
0.140047
0.140034
0.140023
0.140013
0.140008
0.139306
0.13933
0.13936
0.139393
0.139429
0.139469
0.139511
0.139556
0.139603
0.139653
0.139703
0.139755
0.139808
0.139862
0.139917
0.139973
0.14003
0.140088
0.140148
0.140209
0.140272
0.140337
0.140403
0.140472
0.140541
0.140611
0.140681
0.14075
0.140816
0.140879
0.140938
0.14099
0.141035
0.141073
0.141103
0.141124
0.141136
0.141139
0.141133
0.141117
0.141093
0.141061
0.141022
0.140976
0.140925
0.140871
0.140814
0.140757
0.140701
0.140643
0.140586
0.14053
0.140475
0.140423
0.140374
0.140328
0.140285
0.140246
0.140211
0.14018
0.140152
0.140126
0.140103
0.140082
0.140063
0.140047
0.140034
0.140022
0.140012
0.140007
0.13916
0.139191
0.139229
0.139271
0.139316
0.139365
0.139415
0.139467
0.13952
0.139574
0.139627
0.139681
0.139736
0.139791
0.139847
0.139904
0.139963
0.140023
0.140086
0.140151
0.140218
0.140288
0.140359
0.140431
0.140504
0.140577
0.140649
0.140719
0.140786
0.140849
0.140908
0.14096
0.141004
0.141042
0.141072
0.141094
0.141108
0.141112
0.141107
0.141094
0.141072
0.141043
0.141006
0.140964
0.140916
0.140864
0.140809
0.140755
0.1407
0.140644
0.140588
0.140533
0.14048
0.140428
0.140379
0.140332
0.140289
0.140249
0.140213
0.140182
0.140154
0.140127
0.140103
0.140081
0.140062
0.140045
0.140031
0.140018
0.140008
0.140003
0.139027
0.139074
0.139129
0.139188
0.139251
0.139316
0.139382
0.139448
0.139512
0.139575
0.139636
0.139695
0.139751
0.139806
0.139859
0.139911
0.139962
0.140013
0.140064
0.140117
0.140171
0.140228
0.140286
0.140347
0.14041
0.140475
0.140541
0.140608
0.140674
0.140738
0.140798
0.140854
0.140904
0.140948
0.140986
0.141015
0.141036
0.141048
0.141051
0.141044
0.141029
0.141006
0.140974
0.140936
0.140892
0.140844
0.140792
0.14074
0.140688
0.140634
0.140579
0.140525
0.140472
0.140421
0.140372
0.140326
0.140282
0.140242
0.140206
0.140176
0.140147
0.14012
0.140095
0.140073
0.140053
0.140035
0.140021
0.140008
0.139997
0.139992
0.138924
0.138983
0.13905
0.13912
0.13919
0.13926
0.139328
0.139394
0.139457
0.139516
0.139571
0.139623
0.139672
0.139719
0.139765
0.13981
0.139857
0.139907
0.139959
0.140016
0.140079
0.140146
0.140218
0.140295
0.140376
0.14046
0.140545
0.140629
0.140711
0.140789
0.140861
0.140926
0.140981
0.141028
0.141066
0.141093
0.14111
0.141117
0.141113
0.141099
0.141076
0.141045
0.141006
0.140961
0.14091
0.140855
0.140798
0.140742
0.140686
0.140629
0.140572
0.140516
0.140461
0.140409
0.140359
0.140312
0.140268
0.140227
0.140191
0.14016
0.140131
0.140104
0.140079
0.140056
0.140036
0.140018
0.140003
0.13999
0.139979
0.139974
0.138823
0.138895
0.138975
0.139057
0.139137
0.139216
0.139292
0.139366
0.139436
0.139502
0.139566
0.139628
0.139688
0.139746
0.139804
0.139861
0.139917
0.139972
0.140027
0.140081
0.140135
0.140189
0.140242
0.140295
0.140349
0.140402
0.140456
0.140509
0.140563
0.140616
0.140668
0.140717
0.140763
0.140806
0.140846
0.14088
0.140909
0.14093
0.140945
0.140951
0.14095
0.14094
0.140923
0.140897
0.140865
0.140827
0.140785
0.140741
0.140696
0.140646
0.140596
0.140544
0.140492
0.140441
0.140392
0.140343
0.140298
0.140255
0.140216
0.140182
0.140151
0.14012
0.140092
0.140066
0.140042
0.140021
0.140003
0.139988
0.139974
0.139968
0.138738
0.138825
0.138918
0.139009
0.139096
0.139176
0.13925
0.139318
0.13938
0.139438
0.139492
0.139544
0.139595
0.139646
0.139697
0.139749
0.139802
0.139856
0.139911
0.139967
0.140025
0.140085
0.140147
0.140211
0.140278
0.140348
0.140421
0.140496
0.140573
0.140651
0.140728
0.140802
0.140871
0.140936
0.140995
0.141048
0.141091
0.141126
0.14115
0.141163
0.141165
0.141155
0.141136
0.141106
0.141066
0.14102
0.140967
0.140913
0.140856
0.140795
0.140732
0.140668
0.140604
0.14054
0.140478
0.140418
0.140361
0.140308
0.14026
0.140218
0.140179
0.140141
0.140106
0.140074
0.140044
0.140018
0.139996
0.139977
0.13996
0.139953
0.138709
0.138823
0.138934
0.139035
0.139122
0.139195
0.139257
0.139307
0.139349
0.139384
0.139415
0.139444
0.139474
0.139506
0.139542
0.139583
0.139631
0.139685
0.139745
0.139811
0.139883
0.139959
0.140039
0.140121
0.140204
0.140287
0.140369
0.140448
0.140524
0.140596
0.140662
0.140722
0.140774
0.140821
0.140861
0.140895
0.140921
0.14094
0.140951
0.140954
0.140949
0.140936
0.140916
0.140889
0.140855
0.140816
0.140772
0.140728
0.140682
0.140633
0.140581
0.140529
0.140476
0.140423
0.140371
0.14032
0.140271
0.140225
0.140183
0.140146
0.140111
0.140077
0.140044
0.140013
0.139985
0.13996
0.139938
0.13992
0.139902
0.139895
0.13859
0.13867
0.138743
0.138806
0.13886
0.138906
0.138946
0.138983
0.139019
0.139054
0.139091
0.139129
0.13917
0.139214
0.139262
0.139315
0.139373
0.139436
0.139506
0.139584
0.139669
0.139763
0.139866
0.139976
0.140094
0.140219
0.140347
0.140479
0.140611
0.14074
0.140865
0.14098
0.141083
0.141176
0.141257
0.141325
0.141377
0.141414
0.141435
0.14144
0.14143
0.141405
0.141366
0.141315
0.141254
0.141184
0.14111
0.141035
0.140958
0.140877
0.140795
0.140713
0.140632
0.140552
0.140475
0.140402
0.140332
0.140267
0.140209
0.140159
0.140111
0.140065
0.140022
0.139982
0.139946
0.139914
0.139888
0.139864
0.139842
0.139836
0.13826
0.138329
0.138388
0.138435
0.138473
0.138504
0.138532
0.138559
0.138588
0.138621
0.13866
0.138708
0.138763
0.138828
0.138902
0.138984
0.139074
0.13917
0.139272
0.139379
0.139488
0.139601
0.139715
0.13983
0.139944
0.140058
0.14017
0.140279
0.140385
0.140485
0.14058
0.140667
0.140745
0.140816
0.14088
0.140935
0.140982
0.141019
0.141045
0.141062
0.141068
0.141063
0.141048
0.141023
0.140989
0.140947
0.140899
0.140849
0.140796
0.140737
0.140675
0.14061
0.140544
0.140477
0.14041
0.140344
0.140279
0.140217
0.14016
0.14011
0.14006
0.140011
0.139963
0.139918
0.139877
0.139839
0.139807
0.139778
0.13975
0.13974
0.137451
0.137482
0.137528
0.137583
0.137648
0.137721
0.137801
0.137891
0.137996
0.138113
0.138242
0.13838
0.138523
0.138666
0.138804
0.138937
0.139065
0.139187
0.139305
0.139419
0.13953
0.139639
0.139746
0.139854
0.139964
0.140079
0.140213
0.140371
0.14055
0.140734
0.140917
0.141093
0.141258
0.141413
0.141557
0.141685
0.141795
0.141885
0.141952
0.141997
0.142018
0.142014
0.141988
0.141941
0.141873
0.141788
0.141692
0.141592
0.141486
0.141369
0.141248
0.141123
0.140997
0.140871
0.140746
0.140624
0.140507
0.140397
0.140298
0.140212
0.140129
0.140045
0.139967
0.139894
0.139828
0.139769
0.13972
0.139676
0.139632
0.139621
0.135038
0.135085
0.135141
0.135205
0.135276
0.135354
0.135441
0.135537
0.135643
0.13576
0.13589
0.136034
0.136193
0.136369
0.136563
0.136777
0.137009
0.13726
0.137527
0.137801
0.138076
0.13835
0.138624
0.138895
0.139164
0.13943
0.13969
0.139944
0.140189
0.140422
0.140641
0.140838
0.141014
0.14117
0.14131
0.141429
0.141526
0.141601
0.141655
0.141685
0.141694
0.141682
0.141649
0.141597
0.141527
0.141443
0.141348
0.141251
0.141147
0.141033
0.140914
0.140789
0.140661
0.14053
0.140398
0.140266
0.140135
0.140009
0.139893
0.139787
0.13968
0.13957
0.139464
0.139366
0.139276
0.139195
0.139127
0.139056
0.138993
0.138972
0.137598
0.137714
0.137846
0.137978
0.138106
0.138232
0.138357
0.13848
0.138601
0.13872
0.138836
0.138949
0.139057
0.13916
0.139257
0.139347
0.139429
0.139501
0.139562
0.139613
0.139651
0.139677
0.13969
0.139691
0.13968
0.139658
0.139629
0.139595
0.139564
0.13955
0.139602
0.139727
0.139907
0.140136
0.140419
0.140694
0.140937