/*--------------------------------*- C++ -*----------------------------------*\
  =========                 |
  \\      /  F ield         | OpenFOAM: The Open Source CFD Toolbox
   \\    /   O peration     | Website:  https://openfoam.org
    \\  /    A nd           | Version:  6.0
     \\/     M anipulation  |
\*---------------------------------------------------------------------------*/
FoamFile
{
    version     2.0;
    format      ascii;
    class       surfaceScalarField;
    location    "50";
    object      phi;
}
// * * * * * * * * * * * * * * * * * * * * * * * * * * * * * * * * * * * * * //

dimensions      [0 3 -1 0 0 0 0];

internalField   nonuniform List<scalar> 
19165
(
-0.0403575
0.0314002
0.0420318
-0.0386652
0.0316811
-0.0369404
0.0319519
-0.0351955
0.032212
-0.0334318
0.0324603
-0.0316547
0.0326963
-0.0298644
0.0329198
-0.0280641
0.0331307
-0.0262539
0.0333287
-0.0244359
0.033514
-0.0225899
0.033666
-0.0207336
0.0338212
-0.0188697
0.0339655
-0.0169994
0.0340968
-0.0151229
0.0342146
-0.0132415
0.0343192
-0.0113555
0.0344103
-0.00946615
0.0344879
-0.0075742
0.0345518
-0.00568136
0.034602
-0.00378922
0.0346384
-0.00190133
0.0346613
-2.35078e-05
0.0346713
0.00185382
0.034674
0.00374134
0.0346692
0.00563283
0.0346517
0.00752535
0.0346206
0.00941657
0.0345758
0.0113054
0.0345173
0.0131905
0.0344452
0.0150722
0.0343588
0.0169557
0.0342529
0.0188335
0.0341407
0.0207047
0.0340154
0.0225688
0.0338771
0.0244248
0.0337258
0.0262724
0.0335615
0.0281106
0.0333844
0.029939
0.0331945
0.0317569
0.0329919
0.0335636
0.0327766
0.0353585
0.0325488
0.037141
0.0323085
0.0389104
0.0320558
0.0406662
0.0317907
0.0424077
0.0315133
0.0441343
0.0312237
0.0458454
0.0309221
0.0475404
0.0306084
0.0492187
0.0302828
0.0508797
0.0299453
0.0525228
0.0295961
0.0541475
0.0292351
0.0557531
0.0288627
0.0573392
0.0284787
0.0589051
0.0280835
0.0604502
0.0276768
0.0619741
0.0272591
0.0634762
0.0268302
0.0649559
0.0263904
0.0664128
0.0259396
0.0678471
0.0254772
0.0692601
0.0250024
0.0706485
0.0245196
0.0720122
0.0240261
0.0733502
0.0235223
0.0746625
0.023008
0.0759481
0.0224835
0.0772071
0.0219487
0.0784384
0.0214037
0.0796422
0.0208486
0.0808172
0.0202835
0.081964
0.0197082
0.0830807
0.0191229
0.0841685
0.0185275
0.0852252
0.017922
0.0862519
0.0173062
0.0872462
0.0166802
0.0882096
0.0160436
0.089139
0.0153964
0.090036
0.0147382
0.0908969
0.0140689
0.0917228
0.0133877
0.092509
0.0126945
0.0932553
0.0119884
0.0939543
0.0112691
0.0946028
0.0105355
0.0951873
0.00978741
0.0956965
0.00902358
0.0961032
0.00824423
0.0963758
0.0074487
0.0964542
0.00663823
0.0962605
0.00581394
0.0956603
0.00497926
0.0944646
0.00414259
0.0923374
0.0032436
0.0911787
0.00235981
0.0870815
0.00160891
0.0849392
0.00120956
0.00147848
0.083039
-0.0401331
0.0297294
0.0418165
-0.0384394
0.0299934
-0.0367219
0.0302448
-0.0349884
0.0304868
-0.0332354
0.0307186
-0.0314699
0.0309399
-0.0296888
0.0311502
-0.0278982
0.0313494
-0.0260952
0.0315372
-0.0242851
0.0317134
-0.0224453
0.0318376
-0.0205963
0.0319819
-0.0187381
0.0321188
-0.0168748
0.0322435
-0.0150042
0.0323557
-0.0131305
0.0324557
-0.0112516
0.0325434
-0.0093721
0.0326189
-0.00749048
0.0326825
-0.00561203
0.0327345
-0.00373607
0.0327754
-0.00186918
0.0328059
-1.21313e-05
0.0328276
0.00184304
0.0328301
0.00371137
0.0328131
0.00558575
0.0327874
0.00746603
0.0327513
0.00934656
0.0327042
0.0112281
0.0326455
0.0131063
0.032575
0.0149833
0.0324907
0.0168618
0.0323816
0.0187361
0.0322744
0.0206031
0.032155
0.0224642
0.0320233
0.0243164
0.0318794
0.0261612
0.0317234
0.0279957
0.0315552
0.0298214
0.031375
0.0316355
0.0311827
0.0334393
0.0309785
0.0352304
0.0307623
0.0370098
0.0305343
0.0387752
0.0302945
0.0405277
0.030043
0.042265
0.0297798
0.0439881
0.0295051
0.0456948
0.0292189
0.0473861
0.0289213
0.0490597
0.0286124
0.0507167
0.0282922
0.0523548
0.0279608
0.0539753
0.0276184
0.0555755
0.027265
0.057157
0.0269007
0.0587171
0.0265257
0.0602574
0.0261399
0.061775
0.0257435
0.0632717
0.0253365
0.0647446
0.0249192
0.0661953
0.0244915
0.0676221
0.0240517
0.0690281
0.0235986
0.0704083
0.0231405
0.0717639
0.0226724
0.0730927
0.0221944
0.0743959
0.0217065
0.0756711
0.021209
0.0769198
0.0207017
0.0781391
0.0201849
0.0793312
0.0196584
0.0804924
0.0191226
0.0816254
0.0185771
0.082726
0.0180223
0.0837975
0.017458
0.0848348
0.0168844
0.0858418
0.0163013
0.0868126
0.0157088
0.0877515
0.0151067
0.0886519
0.0144952
0.0895181
0.0138739
0.0903427
0.013243
0.0911302
0.0126021
0.0918715
0.0119514
0.0925718
0.0112904
0.093219
0.0106194
0.0938197
0.00993775
0.0943578
0.00924584
0.0948412
0.00854336
0.0952507
0.00783063
0.0955933
0.00710788
0.0958506
0.00637596
0.0960275
0.00563633
0.0961096
0.00489181
0.0961009
0.00414918
0.09593
0.00341031
0.0955464
0.00273965
0.0950144
0.00213751
0.0945557
0.00166291
0.00127947
0.0947555
-0.0402244
0.0280045
0.0419527
-0.0384934
0.0282621
-0.0367518
0.028507
-0.0350045
0.0287405
-0.0332443
0.0289627
-0.0314771
0.0291741
-0.029697
0.0293745
-0.0279101
0.0295642
-0.0261116
0.029743
-0.0243073
0.029911
-0.0224735
0.0300081
-0.0206312
0.0301418
-0.0187793
0.0302713
-0.0169228
0.0303893
-0.0150583
0.0304957
-0.0131907
0.0305905
-0.0113166
0.0306738
-0.00944081
0.0307458
-0.00755992
0.0308063
-0.00567816
0.0308555
-0.00379137
0.0308935
-0.00190257
0.0309201
-4.99172e-06
0.0309352
0.00189057
0.0309374
0.00378181
0.0309267
0.00566716
0.0309046
0.00755173
0.0308711
0.00943177
0.0308264
0.0113108
0.0307704
0.0131847
0.0307031
0.0150571
0.0306218
0.01693
0.0305104
0.0187989
0.0304086
0.02066
0.0302954
0.0225155
0.0301706
0.0243619
0.0300345
0.026201
0.0298868
0.0280298
0.0297277
0.0298498
0.0295573
0.0316582
0.0293755
0.0334565
0.0291824
0.0352418
0.028978
0.0370157
0.0287624
0.0387753
0.0285358
0.0405222
0.028298
0.0422535
0.0280493
0.0439708
0.0277896
0.0456714
0.0275191
0.0473567
0.0272378
0.0490239
0.0269458
0.0506746
0.0266431
0.0523061
0.02633
0.0539199
0.0260063
0.055513
0.0256723
0.0570875
0.025328
0.0586399
0.0249735
0.0601726
0.0246089
0.0616818
0.0242343
0.0631703
0.0238497
0.0646341
0.0234553
0.066076
0.0230511
0.0674927
0.0226346
0.0688888
0.0222039
0.0702575
0.0217712
0.071602
0.021329
0.0729179
0.0208776
0.0742085
0.020417
0.0754691
0.0199472
0.0767034
0.0194685
0.0779061
0.0189808
0.0790814
0.0184842
0.0802233
0.0179788
0.0813368
0.0174648
0.0824148
0.0169421
0.0834632
0.0164109
0.0844738
0.0158712
0.0854533
0.0153231
0.0863922
0.0147667
0.0872984
0.014202
0.0881606
0.0136292
0.0889877
0.0130483
0.0897666
0.0124595
0.0905074
0.0118629
0.0911946
0.0112588
0.0918394
0.0106474
0.0924235
0.010029
0.092959
0.00940408
0.0934247
0.0087733
0.0938322
0.00813746
0.0941584
0.00749768
0.0944108
0.00685549
0.0945676
0.00621284
0.0946295
0.00557232
0.0945782
0.00493716
0.0944123
0.0043114
0.0941189
0.00369889
0.0937497
0.00310345
0.0933569
0.00252481
0.0930488
0.00196457
0.00139487
0.0929341
-0.0400505
0.0263242
0.0417361
-0.0383518
0.0265614
-0.0366307
0.0267892
-0.0348997
0.0270077
-0.0331508
0.0272165
-0.0313944
0.0274156
-0.029623
0.0276049
-0.0278454
0.0277844
-0.0260552
0.027954
-0.02426
0.0281137
-0.0224347
0.0281836
-0.0206013
0.0283064
-0.0187576
0.0284282
-0.0169092
0.028539
-0.0150518
0.0286388
-0.0131906
0.0287275
-0.0113214
0.0288052
-0.00944899
0.0288717
-0.00756916
0.0289269
-0.00568619
0.0289708
-0.00379547
0.0290032
-0.00190115
0.029024
1.36709e-06
0.0290333
0.00190176
0.0290353
0.00379892
0.0290302
0.00568836
0.0290135
0.00757478
0.0289853
0.00945414
0.0289455
0.0113306
0.0288945
0.0132002
0.0288322
0.0150672
0.0287553
0.0169335
0.0286428
0.0187953
0.0285472
0.0206488
0.0284407
0.0224965
0.0283234
0.0243347
0.0281952
0.0261657
0.0280561
0.0279861
0.0279064
0.0297979
0.0277458
0.0315978
0.0275746
0.0333876
0.0273928
0.0351644
0.0272004
0.0369297
0.0269975
0.0386806
0.0267841
0.0404187
0.0265602
0.0421411
0.0263261
0.0438494
0.0260817
0.0455407
0.025827
0.0472166
0.0255622
0.0488742
0.0252874
0.0505151
0.0250026
0.0521364
0.0247079
0.0537399
0.0244033
0.0553224
0.0240891
0.0568858
0.0237651
0.0584268
0.0234316
0.0599477
0.0230887
0.0614447
0.0227363
0.0629205
0.0223746
0.064371
0.0220038
0.0657991
0.0216238
0.0672014
0.0212312
0.0685825
0.0208237
0.0699355
0.0204172
0.0712636
0.0200019
0.0725621
0.019578
0.0738347
0.0191456
0.075076
0.0187048
0.0762903
0.0182556
0.0774715
0.0177983
0.0786245
0.0173329
0.0797425
0.0168595
0.080831
0.0163783
0.0818822
0.0158893
0.0829027
0.0153927
0.0838834
0.0148887
0.0848318
0.0143773
0.0857376
0.0138588
0.0866093
0.0133333
0.0874351
0.012801
0.0882248
0.012262
0.0889647
0.0117168
0.0896661
0.0111655
0.0903131
0.0106084
0.0909189
0.010046
0.0914652
0.00947867
0.0919671
0.00890703
0.0924046
0.00833159
0.0927935
0.00775321
0.0931148
0.0071726
0.0933829
0.0065909
0.0935836
0.00600908
0.0937293
0.00542854
0.0938137
0.00485056
0.0938488
0.0042767
0.0938383
0.00370851
0.0937922
0.00314759
0.09372
0.00259509
0.0936249
0.00205607
0.00151291
0.0935081
-0.0398098
0.0246535
0.0414827
-0.038125
0.0248737
-0.0364185
0.0250851
-0.0347015
0.0252879
-0.0329655
0.0254823
-0.0312209
0.0256681
-0.02946
0.0258452
-0.0276922
0.0260136
-0.0259108
0.0261732
-0.024124
0.026324
-0.0223063
0.0263662
-0.0204804
0.0264778
-0.0186435
0.0265915
-0.0168018
0.0266949
-0.0149507
0.0267879
-0.0130959
0.0268705
-0.0112331
0.0269426
-0.00936782
0.0270042
-0.00749592
0.0270553
-0.00562301
0.0270958
-0.00374514
0.0271257
-0.00186841
0.0271451
1.06525e-05
0.0271546
0.0018874
0.0271565
0.00376729
0.0271508
0.00564387
0.0271351
0.00752074
0.0271089
0.00939242
0.0270721
0.0112626
0.0270248
0.0131263
0.0269669
0.0149878
0.0268942
0.0168487
0.0267805
0.0187051
0.0266911
0.0205531
0.0265915
0.0223953
0.0264816
0.0242278
0.0263614
0.0260531
0.0262312
0.0278676
0.0260908
0.0296733
0.0259404
0.0314671
0.0257799
0.0332507
0.0256095
0.035021
0.0254291
0.0367797
0.0252389
0.038524
0.0250389
0.0402553
0.0248292
0.0419708
0.0246097
0.0436719
0.0243807
0.045356
0.0241421
0.0470244
0.023894
0.0486744
0.0236366
0.0503074
0.0233698
0.0519207
0.0230937
0.0535159
0.0228085
0.0550898
0.0225142
0.0566444
0.0222109
0.0581763
0.0218987
0.0596878
0.0215776
0.0611752
0.0212479
0.0626409
0.0209094
0.0640811
0.0205625
0.0654985
0.0202071
0.0668897
0.0198388
0.0682595
0.0194548
0.0696004
0.0190748
0.0709165
0.0186868
0.0722021
0.0182908
0.0734618
0.0178871
0.0746891
0.0174756
0.0758896
0.0170565
0.0770558
0.01663
0.0781941
0.0161962
0.0792961
0.0157551
0.080369
0.0153071
0.0814036
0.0148522
0.0824077
0.0143905
0.0833712
0.0139223
0.0843028
0.0134477
0.0851914
0.012967
0.0860465
0.0124804
0.086856
0.011988
0.0876304
0.0114901
0.0883563
0.0109872
0.0890453
0.0104793
0.0896828
0.00996698
0.0902816
0.00945055
0.0908258
0.00893045
0.0913295
0.00840718
0.0917761
0.00788126
0.0921799
0.00735333
0.0925257
0.00682398
0.0928257
0.00629402
0.0930688
0.00576414
0.0932645
0.00523527
0.0934059
0.00470815
0.0935003
0.00418376
0.0935463
0.00366279
0.0935466
0.00314609
0.0935079
0.00263342
0.0934331
0.00212829
0.00161022
0.0933376
-0.0396379
0.0229854
0.0413074
-0.0379561
0.0231893
-0.0362545
0.0233853
-0.0345428
0.0235737
-0.0328133
0.0237544
-0.0310754
0.0239275
-0.0293217
0.0240928
-0.0275611
0.0242503
-0.0257867
0.0244
-0.024007
0.0245418
-0.0221961
0.0245564
-0.0203773
0.0246567
-0.0185468
0.0247621
-0.0167123
0.024858
-0.0148676
0.0249443
-0.0130203
0.0250209
-0.0111644
0.0250878
-0.00930754
0.0251451
-0.00744391
0.0251926
-0.00558099
0.0252305
-0.00371325
0.0252588
-0.00184819
0.0252776
1.96714e-05
0.0252874
0.00188463
0.0252889
0.00375364
0.0252822
0.00561969
0.0252665
0.00748749
0.0252414
0.00935073
0.0252066
0.0112136
0.0251621
0.0130704
0.0251079
0.0149257
0.0250389
0.0167807
0.0249237
0.0186314
0.0248403
0.0204738
0.0247473
0.0223104
0.0246449
0.0241373
0.0245329
0.0259569
0.0244115
0.0277656
0.0242806
0.0295654
0.0241404
0.0313532
0.0239909
0.0331304
0.023832
0.0348945
0.023664
0.0366465
0.0234867
0.0383842
0.0233003
0.0401083
0.0231048
0.0418168
0.0229004
0.0435104
0.022687
0.045187
0.0224647
0.0468475
0.0222336
0.0484896
0.0219937
0.0501142
0.0217452
0.0517191
0.0214881
0.0533054
0.0212225
0.0548704
0.0209485
0.0564155
0.0206662
0.057938
0.0203755
0.0594395
0.0200767
0.0609166
0.0197699
0.0623718
0.019455
0.063801
0.0191323
0.0652072
0.0188018
0.0665867
0.0184582
0.0679445
0.018098
0.069273
0.017745
0.0705762
0.0173847
0.0718486
0.017017
0.0730946
0.0166423
0.074308
0.0162606
0.075494
0.015872
0.0766454
0.0154767
0.0777685
0.0150749
0.0788549
0.0146666
0.079912
0.0142521
0.0809304
0.0138314
0.0819183
0.0134049
0.0828654
0.0129726
0.0837807
0.0125348
0.0846532
0.0120917
0.0854926
0.0116435
0.086287
0.0111905
0.087047
0.0107329
0.0877597
0.0102709
0.088437
0.00980503
0.0890646
0.0093354
0.0896559
0.00886251
0.0901955
0.00838659
0.0906977
0.00790819
0.0911473
0.00742756
0.091558
0.00694533
0.0919168
0.00646179
0.0922349
0.00597758
0.0925035
0.00549307
0.0927306
0.00500883
0.0929118
0.0045253
0.0930528
0.00404295
0.0931528
0.00356217
0.0932149
0.00308343
0.0932414
0.00260627
0.093234
0.00213423
0.00164922
0.0931959
-0.0394405
0.0213323
0.0410965
-0.037772
0.0215186
-0.0360824
0.0216982
-0.0343822
0.0218712
-0.0326634
0.0220377
-0.030936
0.0221976
-0.0291921
0.0223507
-0.0274415
0.022497
-0.0256765
0.0226364
-0.0239064
0.0227689
-0.0221046
0.0227559
-0.0202954
0.0228446
-0.0184738
0.0229417
-0.0166485
0.0230299
-0.0148124
0.0231092
-0.0129739
0.0231795
-0.0111261
0.0232409
-0.00927736
0.0232933
-0.00742082
0.0233367
-0.00556463
0.0233711
-0.00370218
0.0233966
-0.00184147
0.0234134
2.40582e-05
0.0234218
0.0018864
0.023423
0.00375158
0.0234168
0.00561232
0.0234024
0.00747413
0.0233792
0.00933051
0.0233471
0.0111862
0.0233059
0.0130355
0.0232558
0.0148831
0.0231907
0.0167301
0.0230741
0.0185728
0.0229969
0.020407
0.0229108
0.0222353
0.0228158
0.0240541
0.0227121
0.0258652
0.0225996
0.0276656
0.0224784
0.0294567
0.0223485
0.031236
0.02221
0.0330043
0.0220629
0.0347597
0.0219072
0.0365026
0.021743
0.0382314
0.0215704
0.0399461
0.0213894
0.0416454
0.0212001
0.0433294
0.0210025
0.0449965
0.0207967
0.046647
0.0205828
0.0482793
0.0203607
0.0498936
0.0201307
0.0514883
0.0198928
0.0530639
0.019647
0.0546183
0.0193935
0.0561524
0.0191322
0.0576638
0.0188634
0.0591537
0.0185871
0.0606194
0.0183034
0.0620626
0.0180123
0.06348
0.0177141
0.0648738
0.0174087
0.0662411
0.0170901
0.0675862
0.0167541
0.068902
0.0164283
0.0701925
0.0160958
0.0714518
0.0157567
0.0726849
0.0154112
0.073885
0.0150594
0.0750579
0.0147014
0.076196
0.0143373
0.0773059
0.0139674
0.0783793
0.0135917
0.0794234
0.0132105
0.0804295
0.0128239
0.0814049
0.0124321
0.0823409
0.0120352
0.083245
0.0116335
0.0841082
0.0112271
0.0849382
0.0108164
0.0857259
0.0104014
0.0864794
0.0099825
0.0871892
0.0095599
0.0878638
0.00913385
0.0884935
0.00870466
0.0890873
0.00827258
0.0896352
0.00783793
0.0901467
0.00740101
0.0906118
0.00696215
0.09104
0.00652169
0.0914225
0.00607993
0.091767
0.00563726
0.0920674
0.00519395
0.0923298
0.00475042
0.0925498
0.0043069
0.0927325
0.00386379
0.0928758
0.00342128
0.0929808
0.0029798
0.0930505
0.00253905
0.0930828
0.00210204
0.00165281
0.093081
-0.0392159
0.019692
0.0408586
-0.0375598
0.0198607
-0.0358833
0.0200237
-0.0341952
0.0201813
-0.0324889
0.0203334
-0.030773
0.0204798
-0.0290409
0.0206205
-0.0273012
0.0207553
-0.0255473
0.0208843
-0.0237878
0.0210073
-0.0219967
0.0209666
-0.0201979
0.0210437
-0.0183868
0.0211322
-0.0165716
0.0212125
-0.0147455
0.0212846
-0.0129166
0.0213484
-0.0110784
0.021404
-0.00923865
0.0214513
-0.00739107
0.0214903
-0.00554317
0.0215209
-0.00368901
0.0215434
-0.00183594
0.0215579
2.18556e-05
0.0215648
0.00187681
0.0215656
0.00373427
0.0215601
0.00558735
0.0215471
0.00744115
0.0215261
0.00928939
0.0214968
0.0111366
0.0214592
0.0129773
0.0214133
0.0148162
0.0213523
0.0166541
0.0212346
0.0184879
0.0211635
0.0203128
0.0210844
0.0221321
0.020997
0.0239413
0.0209016
0.0257432
0.020798
0.027534
0.0206865
0.029316
0.0205669
0.0310855
0.0204395
0.0328446
0.0203041
0.0345902
0.0201608
0.0363238
0.0200098
0.0380425
0.019851
0.0397478
0.0196844
0.0414371
0.0195103
0.0431114
0.0193285
0.0447683
0.0191393
0.0464089
0.0189425
0.0480309
0.0187384
0.0496351
0.018527
0.0512194
0.0183083
0.0527845
0.0180824
0.0543285
0.0178495
0.0558517
0.0176095
0.0573526
0.0173627
0.0588316
0.0171089
0.0602867
0.0168485
0.0617188
0.0165814
0.0631254
0.0163077
0.0645081
0.0160276
0.0658644
0.015734
0.0671985
0.0154221
0.0685033
0.0151235
0.0697828
0.0148189
0.0710311
0.0145082
0.0722532
0.0141918
0.0734425
0.0138697
0.0746049
0.013542
0.0757327
0.0132089
0.0768326
0.0128706
0.0778965
0.0125271
0.0789314
0.0121786
0.079929
0.0118254
0.0808965
0.0114675
0.0818254
0.0111052
0.0827232
0.0107386
0.0835811
0.0103678
0.084407
0.00999326
0.0851918
0.00961493
0.0859439
0.00923319
0.0866537
0.00884809
0.0873302
0.00846003
0.0879634
0.00806906
0.088563
0.00767561
0.0891185
0.00727971
0.08964
0.00688182
0.0901174
0.00648198
0.09056
0.00608067
0.0909596
0.00567791
0.091323
0.00527417
0.0916454
0.00486953
0.0919308
0.00446437
0.092177
0.00405882
0.0923866
0.0036532
0.092559
0.00324763
0.092695
0.00284244
0.0927956
0.0024373
0.0928615
0.00203479
0.001621
0.0928939
-0.0389886
0.0180622
0.0406184
-0.0373428
0.0182135
-0.0356785
0.0183601
-0.0340008
0.0185024
-0.0323065
0.01864
-0.0306009
0.0187731
-0.0288806
0.0189013
-0.0271511
0.0190247
-0.0254087
0.0191432
-0.0236591
0.0192567
-0.0218795
0.0191885
-0.0200906
0.019254
-0.0182907
0.019334
-0.0164852
0.0194065
-0.0146702
0.0194715
-0.0128512
0.019529
-0.011024
0.019579
-0.00919409
0.0196214
-0.00735761
0.0196562
-0.00551998
0.0196835
-0.00367719
0.0197034
-0.00183493
0.019716
1.09534e-05
0.019722
0.00185466
0.0197224
0.00370086
0.019717
0.00554347
0.0197049
0.0073869
0.0196856
0.00922517
0.0196589
0.0110627
0.0196245
0.0128937
0.0195826
0.0147233
0.0195255
0.0165515
0.0194065
0.0183762
0.0193416
0.0201914
0.0192691
0.0220017
0.0191893
0.0238011
0.019102
0.0255942
0.0190074
0.027375
0.0189054
0.0291481
0.0187961
0.0309075
0.0186796
0.0326579
0.0185559
0.0343931
0.018425
0.0361179
0.018287
0.0378262
0.0181419
0.0395227
0.0179898
0.0412012
0.0178307
0.0428667
0.0176648
0.0445128
0.017492
0.0461445
0.0173124
0.0477555
0.0171261
0.0493507
0.0169331
0.0509238
0.0167336
0.0524798
0.0165275
0.0540125
0.0163151
0.0555267
0.0160962
0.0570162
0.0158711
0.0584859
0.0156399
0.0599297
0.0154025
0.0613524
0.0151591
0.0627479
0.0149099
0.064121
0.0146548
0.0654665
0.014386
0.0667908
0.0140981
0.0680852
0.0138265
0.0693548
0.0135494
0.0705934
0.013267
0.071806
0.0129794
0.0729863
0.0126867
0.0741394
0.012389
0.0752592
0.0120865
0.0763506
0.0117793
0.0774076
0.0114675
0.078435
0.0111514
0.0794271
0.0108309
0.0803884
0.0105064
0.0813136
0.0101778
0.0822067
0.00984554
0.0830631
0.00950957
0.0838863
0.00917018
0.0846723
0.00882746
0.085424
0.00848165
0.0861381
0.00813289
0.086817
0.00778141
0.0874581
0.00742734
0.0880632
0.00707094
0.0886304
0.00671234
0.0891613
0.00635179
0.0896544
0.00598943
0.0901105
0.00562551
0.0905296
0.00526018
0.0909113
0.00489368
0.0912565
0.00452616
0.0915646
0.00415783
0.0918366
0.00378885
0.0920723
0.00341942
0.0922727
0.00304969
0.0924362
0.00267987
0.0925664
0.00230982
0.0926603
0.00194155
0.00156376
0.0927193
-0.0387792
0.016443
0.0403995
-0.0371434
0.0165768
-0.0354893
0.0167071
-0.0338217
0.016834
-0.0321378
0.0169572
-0.0304424
0.0170768
-0.0287326
0.0171926
-0.0270133
0.0173045
-0.0252815
0.0174125
-0.0235421
0.0175164
-0.0217734
0.0174209
-0.019995
0.0174747
-0.018206
0.0175461
-0.0164111
0.0176108
-0.0146071
0.0176687
-0.0127987
0.0177198
-0.0109826
0.0177641
-0.00916352
0.0178015
-0.00733833
0.0178322
-0.00551159
0.0178561
-0.00368021
0.0178733
-0.00184897
0.0178841
-1.44831e-05
0.0178891
0.00181827
0.0178889
0.00365321
0.0178837
0.00548493
0.0178725
0.00731733
0.0178549
0.00914486
0.0178306
0.0109717
0.0177995
0.012792
0.0177615
0.014611
0.0177082
0.0164287
0.017588
0.0182429
0.0175291
0.0200475
0.0174635
0.0218474
0.0173912
0.0236362
0.0173121
0.025419
0.0172264
0.0271892
0.0171341
0.028952
0.0170351
0.0307007
0.0169297
0.0324407
0.0168177
0.0341652
0.0166992
0.0358796
0.0165743
0.0375771
0.016443
0.0392632
0.0163054
0.0409309
0.0161615
0.042586
0.0160114
0.0442212
0.0158551
0.0458426
0.0156927
0.0474426
0.0155242
0.0490276
0.0153498
0.0505898
0.0151694
0.0521356
0.0149832
0.0536574
0.0147912
0.0551615
0.0145935
0.0566403
0.0143902
0.0581001
0.0141813
0.0595334
0.013967
0.0609464
0.0137473
0.0623317
0.0135223
0.0636953
0.0132921
0.065031
0.0130479
0.0663461
0.0127838
0.0676313
0.0125389
0.0688922
0.0122891
0.0701222
0.0120346
0.0713267
0.0117754
0.0724994
0.0115117
0.0736451
0.0112435
0.0747584
0.0109711
0.0758434
0.0106944
0.0768952
0.0104137
0.0779174
0.0101291
0.0789058
0.0098407
0.0798634
0.00954862
0.0807868
0.00925301
0.0816779
0.00895402
0.0825345
0.00865177
0.0833578
0.00834643
0.0841463
0.00803813
0.0849004
0.00772703
0.0856194
0.00741329
0.0863032
0.00709704
0.086952
0.00677845
0.0875647
0.00645768
0.0881424
0.00613488
0.0886836
0.00581021
0.0891898
0.00548384
0.0896592
0.00515589
0.0900939
0.00482657
0.0904914
0.00449598
0.0908544
0.00416431
0.0911807
0.00383169
0.0914722
0.00349827
0.0917282
0.00316419
0.0919493
0.00282959
0.0921351
0.00249464
0.092287
0.00215919
0.0924041
0.00182491
0.00148223
0.0924864
-0.0385501
0.014837
0.0401565
-0.0369274
0.0149533
-0.0352866
0.0150671
-0.0336319
0.0151784
-0.0319609
0.0152871
-0.0302781
0.0153931
-0.0285811
0.0154963
-0.0268742
0.0155966
-0.0251549
0.015694
-0.0234278
0.0157884
-0.0216716
0.0156654
-0.0199054
0.0157076
-0.018129
0.0157704
-0.0163462
0.0158272
-0.0145548
0.0158779
-0.0127584
0.0159226
-0.0109548
0.0159612
-0.00914776
0.0159937
-0.007335
0.0160201
-0.00552024
0.0160406
-0.00370122
0.0160552
-0.00188185
0.0160641
-5.95813e-05
0.0160678
0.00176147
0.0160672
0.00358433
0.0160621
0.0054044
0.0160518
0.0072248
0.0160358
0.00904073
0.0160139
0.0108556
0.015986
0.0126644
0.0159519
0.0144716
0.0159025
0.0162777
0.0157811
0.0180801
0.0157283
0.0198733
0.0156695
0.0216615
0.0156047
0.0234389
0.0155338
0.02521
0.015457
0.0269688
0.0153743
0.0287201
0.0152857
0.0304575
0.0151912
0.0321861
0.0150909
0.0338994
0.0149848
0.0356026
0.014873
0.0372889
0.0147555
0.0389639
0.0146323
0.0406206
0.0145036
0.0422647
0.0143692
0.0438891
0.0142294
0.0454996
0.0140841
0.0470891
0.0139335
0.0486633
0.0137775
0.0502153
0.0136162
0.0517506
0.0134497
0.0532625
0.0132781
0.0547565
0.0131014
0.0562258
0.0129197
0.0576757
0.0127331
0.0591
0.0125416
0.0605036
0.0123454
0.0618804
0.0121444
0.0632352
0.0119389
0.0645631
0.011719
0.06587
0.0114785
0.0671481
0.0112599
0.0684015
0.0110371
0.0696254
0.01081
0.0708233
0.0105788
0.0719909
0.0103435
0.0731311
0.0101043
0.0742404
0.00986134
0.0753212
0.00961464
0.0763702
0.00936432
0.0773897
0.00911052
0.0783768
0.00885333
0.0793334
0.00859288
0.080257
0.00832927
0.081149
0.00806264
0.0820077
0.0077931
0.0828339
0.00752078
0.0836262
0.0072458
0.0843854
0.00696828
0.0851105
0.00668836
0.0858017
0.00640615
0.0864586
0.0061218
0.0870811
0.00583543
0.087669
0.00554718
0.0882223
0.00525716
0.088741
0.00496552
0.0892247
0.00467238
0.0896739
0.00437788
0.0900876
0.00408213
0.0904671
0.00378528
0.0908111
0.00348744
0.0911209
0.00318875
0.0913957
0.00288931
0.0916363
0.00258927
0.0918418
0.00228876
0.0920138
0.00198773
0.0921509
0.00168742
0.00138052
0.0922533
-0.0384279
0.0132344
0.0400308
-0.0368095
0.013334
-0.0351739
0.0134321
-0.0335252
0.0135287
-0.0318609
0.0136235
-0.0301854
0.0137166
-0.0284961
0.0138077
-0.0267975
0.013897
-0.025087
0.0139842
-0.0233691
0.0140694
-0.0216225
0.0139196
-0.0198665
0.0139505
-0.0181003
0.014005
-0.0163283
0.0140542
-0.0145476
0.014098
-0.0127625
0.0141365
-0.0109701
0.0141696
-0.00917469
0.0141974
-0.00737357
0.0142198
-0.00557088
0.014237
-0.00376389
0.0142491
-0.0019569
0.0142562
-0.000146945
0.0142589
0.00166153
0.0142578
0.00347175
0.014253
0.00527905
0.0142437
0.00708663
0.0142294
0.00888976
0.01421
0.0106918
0.0141852
0.0124878
0.0141551
0.0142821
0.0141095
0.0160755
0.0139868
0.0178651
0.0139401
0.0196458
0.013888
0.0214212
0.0138306
0.0231862
0.0137679
0.0249447
0.0137
0.0266913
0.0136268
0.02843
0.0135484
0.0301553
0.0134649
0.0318715
0.0133762
0.0335729
0.0132825
0.0352638
0.0131836
0.0369386
0.0130798
0.0386014
0.0129709
0.0402469
0.0128571
0.0418791
0.0127385
0.0434926
0.012615
0.0450914
0.0124867
0.0466703
0.0123536
0.0482332
0.0122158
0.0497751
0.0120734
0.0512995
0.0119265
0.0528017
0.011775
0.0542852
0.0116191
0.0557453
0.0114587
0.0571854
0.011294
0.058601
0.0111251
0.0599953
0.010952
0.0613642
0.0107747
0.0627104
0.0105934
0.0640312
0.0103975
0.0653303
0.01018
0.0666021
0.00998733
0.0678487
0.00979091
0.0690671
0.00959073
0.0702593
0.00938694
0.0714225
0.00917957
0.0725582
0.00896876
0.0736642
0.00875456
0.0747418
0.0085371
0.0757889
0.00831642
0.0768066
0.00809268
0.0777931
0.00786592
0.0787494
0.00763629
0.079674
0.00740384
0.0805675
0.00716872
0.0814286
0.00693097
0.0822581
0.00669077
0.0830547
0.00644815
0.083819
0.00620328
0.08455
0.00595621
0.0852483
0.00570709
0.0859128
0.00545599
0.0865444
0.00520307
0.0871418
0.00494837
0.087706
0.00469207
0.0882359
0.00443421
0.0887323
0.00417496
0.0891944
0.00391437
0.0896225
0.0036526
0.0900165
0.00338972
0.0903763
0.00312586
0.0907021
0.00286113
0.0909942
0.00259563
0.0912522
0.00232946
0.091477
0.00206276
0.0916677
0.00179545
0.0918256
0.0015285
0.00125637
0.0919495
-0.0382002
0.0116496
0.039787
-0.0365996
0.0117322
-0.0349802
0.0118141
-0.033348
0.0118955
-0.0316991
0.0119761
-0.0300397
0.012056
-0.0283655
0.012135
-0.0266827
0.0122131
-0.0249872
0.0122901
-0.0232851
0.0123661
-0.0215531
0.012189
-0.0198125
0.0122085
-0.0180608
0.0122547
-0.0163043
0.0122963
-0.0145382
0.0123332
-0.0127688
0.0123656
-0.0109913
0.0123933
-0.00921181
0.0124164
-0.00742574
0.0124349
-0.00563926
0.0124489
-0.00384763
0.0124585
-0.0020571
0.0124639
-0.000262702
0.0124655
0.00152945
0.0124637
0.00332459
0.0124588
0.00511636
0.01245
0.00690948
0.0124371
0.00869779
0.0124198
0.0104858
0.012398
0.0122676
0.0123715
0.0140482
0.0123295
0.0158279
0.0122054
0.0176041
0.0121645
0.0193715
0.0121191
0.0211337
0.012069
0.0228859
0.0120143
0.0246313
0.0119551
0.0263654
0.0118914
0.0280912
0.0118231
0.0298045
0.0117504
0.0315079
0.0116732
0.0331977
0.0115916
0.0348761
0.0115056
0.0365396
0.0114153
0.0381902
0.0113206
0.0398249
0.0112217
0.0414452
0.0111185
0.0430484
0.0110112
0.0446356
0.0108997
0.0462048
0.010784
0.0477565
0.0106644
0.0492892
0.0105406
0.0508028
0.010413
0.0522965
0.0102814
0.0537697
0.010146
0.055222
0.0100067
0.0566524
0.00986373
0.058061
0.00971705
0.0594463
0.00956673
0.0608089
0.00941285
0.062147
0.00925546
0.0634623
0.00908317
0.0647541
0.00888833
0.0660214
0.00872121
0.0672616
0.00855078
0.0684766
0.00837711
0.0696634
0.00820026
0.0708243
0.00802032
0.0719559
0.00783735
0.0730608
0.00765143
0.0741354
0.00746265
0.0751827
0.00727108
0.0761989
0.0070768
0.077187
0.00687988
0.0781433
0.00668042
0.0790708
0.0064785
0.0799658
0.0062742
0.0808315
0.0060676
0.0816641
0.00585879
0.0824668
0.00564785
0.083236
0.00543488
0.0839747
0.00521997
0.0846795
0.00500319
0.0853533
0.00478463
0.0859932
0.00456439
0.0866015
0.00434256
0.0871758
0.00411922
0.0877181
0.00389447
0.0882262
0.00366839
0.0887022
0.00344107
0.0891439
0.00321261
0.0895531
0.00298308
0.0899284
0.00275259
0.0902706
0.00252121
0.0905794
0.00228904
0.0908551
0.00205616
0.0910971
0.00182267
0.0913068
0.00158857
0.0914824
0.00135451
0.00111677
0.0916231
-0.03839
0.0100563
0.039985
-0.036782
0.0101228
-0.0351567
0.0101901
-0.0335202
0.0102577
-0.0318683
0.0103255
-0.0302069
0.0103935
-0.0285321
0.0104614
-0.0268496
0.0105294
-0.0251555
0.0105973
-0.0234558
0.010665
-0.0217278
0.0104622
-0.0199918
0.0104712
-0.0182457
0.0105098
-0.0164953
0.0105445
-0.0147361
0.0105753
-0.012974
0.0106021
-0.0112046
0.010625
-0.00943345
0.010644
-0.00765658
0.0106591
-0.00587939
0.0106704
-0.00409787
0.010678
-0.0023174
0.0106821
-0.000533798
0.0106829
0.00124755
0.010681
0.00303073
0.0106766
0.00481046
0.010669
0.0065906
0.010658
0.00836611
0.0106431
0.0101405
0.0106245
0.0119091
0.0106019
0.0136758
0.0105637
0.0154421
0.0104381
0.0172042
0.0104032
0.0189581
0.0103643
0.0207063
0.0103215
0.0224449
0.0102749
0.0241763
0.0102243
0.0258971
0.01017
0.0276091
0.0101117
0.0293093
0.0100497
0.0309991
0.00998389
0.0326761
0.00991432
0.0343412
0.00984102
0.0359923
0.00976403
0.03763
0.00968337
0.0392526
0.00959909
0.0408603
0.00951119
0.0424519
0.00941975
0.0440271
0.00932476
0.0455852
0.0092263
0.0471255
0.00912437
0.0486476
0.00901904
0.0501505
0.00891033
0.0516343
0.00879831
0.0530975
0.008683
0.0545406
0.00856446
0.0559618
0.00844271
0.057362
0.00831784
0.058739
0.00818987
0.0600942
0.00805888
0.0614248
0.00792488
0.0627337
0.00777565
0.0640192
0.00760295
0.0652811
0.00746081
0.0665161
0.0073158
0.0677268
0.00716802
0.0689097
0.00701749
0.0700674
0.00686431
0.0711963
0.00670851
0.0722995
0.00655019
0.0733728
0.00638936
0.0744197
0.00622614
0.0754361
0.00606056
0.0764253
0.0058927
0.0773833
0.00572261
0.0783135
0.00555039
0.0792119
0.00537607
0.0800818
0.00519975
0.0809195
0.00502148
0.0817281
0.00484134
0.0825041
0.00465938
0.0832503
0.0044757
0.0839638
0.00429036
0.0846469
0.00410343
0.0852972
0.00391498
0.0859164
0.00372508
0.0865028
0.00353382
0.0870577
0.00334126
0.0875798
0.00314748
0.08807
0.00295255
0.0885271
0.00275655
0.088952
0.00255954
0.0893442
0.00236161
0.0897036
0.00216283
0.0900308
0.00196328
0.0903249
0.00176301
0.0905869
0.00156214
0.0908162
0.00136066
0.091013
0.00115903
0.000954329
0.0911757
-0.038069
0.00849106
0.0396356
-0.0364891
0.00854182
-0.0348915
0.00859372
-0.0332816
0.00864697
-0.0316564
0.00870147
-0.0300209
0.00875715
-0.0283724
0.00881398
-0.0267157
0.00887186
-0.0250482
0.00893072
-0.0233744
0.00899049
-0.0216708
0.0087595
-0.0199579
0.00875759
-0.0182359
0.00878864
-0.0165086
0.00881645
-0.0147734
0.008841
-0.0130343
0.00886232
-0.0112888
0.0088804
-0.00954082
0.00889527
-0.00778781
0.00890695
-0.00603363
0.00891551
-0.00427578
0.00892103
-0.00251811
0.00892365
-0.000757802
0.00892355
0.00100143
0.008921
0.00276289
0.00891613
0.00452229
0.0089088
0.00628253
0.00889874
0.00803908
0.00888573
0.00979499
0.00886964