/*--------------------------------*- C++ -*----------------------------------*\
  =========                 |
  \\      /  F ield         | OpenFOAM: The Open Source CFD Toolbox
   \\    /   O peration     | Website:  https://openfoam.org
    \\  /    A nd           | Version:  6.0
     \\/     M anipulation  |
\*---------------------------------------------------------------------------*/
FoamFile
{
    version     2.0;
    format      ascii;
    class       volVectorField;
    location    "50";
    object      U;
}
// * * * * * * * * * * * * * * * * * * * * * * * * * * * * * * * * * * * * * //

dimensions      [0 1 -1 0 0 0 0];

internalField   nonuniform List<vector> 
34500
(
(0.999995 2.18083e-05 -4.63413e-17)
(0.999965 4.1165e-06 -8.13948e-18)
(0.999907 -2.91386e-05 1.42316e-16)
(0.999827 -7.87521e-05 -1.07744e-16)
(0.999726 -0.000155055 3.35983e-17)
(0.999616 -0.000272669 -1.01622e-16)
(0.999509 -0.000433296 -1.01145e-16)
(0.999425 -0.000627163 8.68132e-17)
(0.999371 -0.000846215 1.07434e-16)
(0.999353 -0.00108565 -6.84453e-16)
(0.999373 -0.00134455 -1.04293e-15)
(0.999425 -0.00166306 1.27314e-16)
(0.999513 -0.00198975 4.36076e-16)
(0.999981 -0.00274878 -2.09003e-16)
(0.993105 -0.00665364 7.95163e-17)
(0.999989 6.36695e-05 3.24539e-17)
(0.999934 2.23617e-05 9.76822e-17)
(0.999833 -4.07834e-05 7.18031e-17)
(0.999693 -0.000128481 -3.02433e-16)
(0.999513 -0.000268963 -5.06403e-16)
(0.999312 -0.000494533 -5.51188e-17)
(0.999124 -0.000798599 2.55953e-16)
(0.99898 -0.00115619 -6.78572e-16)
(0.998894 -0.00154958 -1.79026e-16)
(0.998876 -0.00197274 6.83075e-16)
(0.998925 -0.0024182 1.26553e-15)
(0.999041 -0.00295636 -6.31262e-16)
(0.999148 -0.00347267 -9.88742e-16)
(1.0003 -0.00452592 -3.98326e-16)
(0.992899 -0.00862188 5.40506e-16)
(0.999984 0.000103788 1.047e-17)
(0.999933 4.66008e-05 -1.22974e-16)
(0.999848 -2.26544e-05 -1.25247e-16)
(0.999736 -0.0001052 4.56002e-16)
(0.999585 -0.000237081 -2.86279e-17)
(0.999412 -0.00045708 -1.64209e-16)
(0.999252 -0.000751516 9.7956e-17)
(0.999132 -0.00108978 3.85306e-16)
(0.999067 -0.00144998 2.5812e-19)
(0.999065 -0.0018313 -3.93861e-16)
(0.99912 -0.00222203 -7.29908e-16)
(0.99925 -0.00269398 4.15035e-16)
(0.999256 -0.00313982 2.25845e-16)
(1.00054 -0.0039576 1.65839e-16)
(0.995567 -0.00632174 -2.52474e-16)
(0.999978 0.000142627 -1.73588e-17)
(0.999931 7.09588e-05 -9.02874e-18)
(0.999864 -3.48251e-06 4.83531e-17)
(0.999783 -8.256e-05 -3.05606e-16)
(0.999671 -0.000205941 3.72571e-16)
(0.999537 -0.000413376 3.30334e-16)
(0.999412 -0.000687281 -4.00067e-16)
(0.99932 -0.000995095 -4.20619e-16)
(0.999275 -0.00131359 4.35798e-16)
(0.999282 -0.00164758 -4.71496e-16)
(0.999335 -0.00198525 -2.45009e-16)
(0.999468 -0.00239949 -3.86542e-16)
(0.999374 -0.00282355 5.44793e-16)
(1.0005 -0.00350205 -4.84519e-17)
(0.997018 -0.00545511 2.21809e-17)
(0.99997 0.00018119 -1.70474e-17)
(0.999919 9.51704e-05 1.53392e-16)
(0.999853 9.94162e-06 6.96041e-17)
(0.999782 -8.02528e-05 1.69878e-16)
(0.999685 -0.000216472 4.67892e-17)
(0.999567 -0.000435976 -1.58432e-16)
(0.999458 -0.000719093 1.02673e-16)
(0.999376 -0.00103267 2.66751e-16)
(0.99934 -0.00135276 -4.1847e-16)
(0.999355 -0.00168732 -2.31484e-16)
(0.999408 -0.00202432 1.00903e-15)
(0.999553 -0.00243728 6.36256e-16)
(0.999414 -0.0028951 -2.91053e-16)
(1.00031 -0.00352947 5.97525e-16)
(0.99763 -0.00537477 -6.04582e-16)
(0.999961 0.000220146 1.83563e-17)
(0.999903 0.000120596 -9.48587e-17)
(0.99983 2.1724e-05 -1.86472e-16)
(0.999758 -8.70831e-05 -5.29806e-17)
(0.999668 -0.000245243 1.09543e-16)
(0.999561 -0.000484804 -1.08985e-16)
(0.999461 -0.000785061 1.48401e-16)
(0.999387 -0.00111404 1.31419e-16)
(0.999357 -0.0014478 2.91588e-16)
(0.999379 -0.00179575 -1.00513e-16)
(0.999438 -0.00214475 2.93047e-18)
(0.999598 -0.00256416 -3.90571e-16)
(0.999454 -0.0030482 1.84068e-17)
(1.00013 -0.00363678 -4.73216e-16)
(0.997995 -0.00520848 7.61874e-17)
(0.99995 0.000259652 3.25625e-18)
(0.999885 0.000147362 -3.5607e-17)
(0.999807 3.3764e-05 -2.90438e-17)
(0.999734 -9.59572e-05 1.75896e-16)
(0.999653 -0.000276508 -2.20689e-16)
(0.999559 -0.000532874 2.75808e-16)
(0.999473 -0.000844062 -6.20234e-16)
(0.99941 -0.00118133 -3.70535e-16)
(0.999389 -0.00152171 -1.51913e-16)
(0.999419 -0.001876 6.72932e-16)
(0.999482 -0.0022302 -7.70446e-16)
(0.999654 -0.00264613 2.99158e-16)
(0.999523 -0.00313931 4.58708e-16)
(1.00002 -0.00367446 -9.68166e-17)
(0.998266 -0.00498375 -1.23967e-16)
(0.999939 0.000299701 1.51199e-17)
(0.999868 0.000174814 3.2303e-17)
(0.999784 4.50764e-05 2.50457e-17)
(0.99971 -0.000107621 -1.51005e-16)
(0.999637 -0.000311143 3.29253e-16)
(0.999557 -0.000582487 -1.39796e-16)
(0.999487 -0.000900881 2.01861e-16)
(0.999437 -0.00124195 -1.46577e-16)
(0.999427 -0.00158452 3.98463e-16)
(0.999467 -0.00194075 1.78215e-16)
(0.999534 -0.00229662 2.45505e-16)
(0.999714 -0.00270526 -5.67195e-17)
(0.999605 -0.003201 -5.07519e-16)
(0.99997 -0.00369144 1.1498e-15)
(0.998493 -0.00481049 1.91272e-16)
(0.999927 0.000340193 -1.12183e-17)
(0.99985 0.00020234 9.9007e-17)
(0.999761 5.47423e-05 1.50919e-16)
(0.999683 -0.000123113 1.1203e-16)
(0.999615 -0.000351266 -4.8927e-16)
(0.999547 -0.000638507 1.41168e-16)
(0.999491 -0.000964674 3.21278e-16)
(0.999455 -0.00130984 7.74074e-16)
(0.999456 -0.00165497 -3.86302e-16)
(0.999507 -0.00201306 9.0307e-17)
(0.99958 -0.0023706 4.50556e-16)
(0.999766 -0.00277165 -3.25081e-16)
(0.999686 -0.00326538 -1.54986e-16)
(0.999957 -0.00371875 -3.84708e-16)
(0.998709 -0.00467597 8.60923e-17)
(0.999914 0.000380978 4.06944e-17)
(0.999832 0.000229555 -8.97836e-17)
(0.999737 6.28507e-05 8.86128e-18)
(0.999655 -0.000141188 -1.10294e-16)
(0.999589 -0.000394642 4.11176e-16)
(0.999531 -0.000698534 7.97368e-17)
(0.999487 -0.00103354 2.70766e-16)
(0.999464 -0.00138378 -5.74326e-16)
(0.999478 -0.00173234 4.16913e-17)
(0.99954 -0.00209231 -7.88945e-17)
(0.999621 -0.00245084 -1.40111e-16)
(0.999813 -0.00284291 4.43149e-17)
(0.999764 -0.00332816 5.96058e-16)
(0.999974 -0.00374615 -8.12826e-16)
(0.998929 -0.00455289 -2.75847e-16)
(0.9999 0.000421792 -2.62274e-17)
(0.999815 0.000256115 3.5268e-17)
(0.999716 6.97757e-05 -1.47651e-16)
(0.99963 -0.000159947 2.50229e-16)
(0.999565 -0.000437702 -3.62079e-16)
(0.999515 -0.000757682 -3.03603e-16)
(0.999482 -0.00110148 -3.39524e-16)
(0.999472 -0.00145681 3.9192e-17)
(0.999498 -0.00180863 -8.16279e-17)
(0.999572 -0.0021695 -4.25789e-16)
(0.999662 -0.0025272 -7.23721e-16)
(0.99986 -0.00290806 2.87133e-16)
(0.999841 -0.00337859 -3.30524e-16)
(1.00001 -0.00376144 9.16775e-16)
(0.999147 -0.00443349 5.49543e-17)
(0.999885 0.000462358 -2.45588e-17)
(0.999798 0.000281699 -1.04287e-16)
(0.999698 7.57948e-05 1.50866e-16)
(0.999609 -0.00017805 -2.34428e-16)
(0.999545 -0.000478016 7.69811e-17)
(0.999501 -0.000812792 4.55008e-16)
(0.99948 -0.00116467 5.55138e-17)
(0.999482 -0.00152456 -6.75232e-17)
(0.99952 -0.00187896 1.8205e-16)
(0.999607 -0.00223954 -1.57424e-16)
(0.999707 -0.00259456 -9.54502e-17)
(0.99991 -0.00296238 -6.70924e-17)
(0.999918 -0.00341383 -2.89098e-16)
(1.00006 -0.00376303 -6.28145e-16)
(0.999359 -0.00431957 1.26841e-17)
(0.999868 0.000502376 -2.17701e-18)
(0.999781 0.000306027 1.40569e-16)
(0.999682 8.10202e-05 -2.2171e-16)
(0.999592 -0.000194797 8.35065e-17)
(0.99953 -0.00051445 -9.37098e-17)
(0.999493 -0.000862533 -1.55048e-16)
(0.999481 -0.00122166 -3.89791e-17)
(0.999496 -0.0015854 3.65971e-16)
(0.999547 -0.00194145 -6.32074e-16)
(0.999646 -0.00230058 4.21661e-16)
(0.999757 -0.00265147 2.21372e-16)
(0.999963 -0.00300527 1.84992e-16)
(0.999996 -0.00343526 7.54731e-16)
(1.00012 -0.00375343 7.38078e-16)
(0.999557 -0.00421315 5.60793e-16)
(0.99985 0.000541618 8.30469e-18)
(0.999764 0.000328939 5.29039e-17)
(0.999668 8.55675e-05 1.76217e-16)
(0.99958 -0.00020982 5.58362e-17)
(0.999521 -0.000546568 1.7091e-16)
(0.999489 -0.000906569 1.68381e-16)
(0.999488 -0.00127224 -1.18741e-17)
(0.999515 -0.00163902 4.94254e-17)
(0.999578 -0.00199554 9.40491e-16)
(0.999689 -0.00235196 -1.14299e-16)
(0.999811 -0.00269755 5.44375e-16)
(1.00002 -0.00303719 -7.428e-16)
(1.00007 -0.00344517 1.37978e-16)
(1.00019 -0.00373608 -1.35969e-15)
(0.99974 -0.0041176 -6.29944e-16)
(0.999831 0.000579897 9.94164e-18)
(0.999747 0.000350364 -1.17743e-16)
(0.999654 8.94838e-05 1.54923e-16)
(0.999571 -0.000223085 -2.24372e-16)
(0.999515 -0.000574535 1.57085e-16)
(0.99949 -0.000945322 2.0758e-17)
(0.999498 -0.00131722 1.95464e-16)
(0.999538 -0.0016865 -2.60689e-16)
(0.999614 -0.00204237 -8.41548e-16)
(0.999737 -0.0023948 2.5013e-16)
(0.999869 -0.00273422 -5.62502e-16)
(1.00008 -0.00306033 1.13396e-16)
(1.00015 -0.00344739 -4.93774e-16)
(1.00026 -0.00371587 2.68624e-16)
(0.999903 -0.00403716 -1.1085e-16)
(0.999809 0.000617128 3.32448e-17)
(0.999727 0.000370342 7.19239e-17)
(0.999641 9.28113e-05 -3.59263e-16)
(0.999563 -0.000234804 2.88724e-16)
(0.999512 -0.000598954 -2.80395e-16)
(0.999493 -0.000979878 -3.73695e-16)
(0.99951 -0.00135845 -3.83811e-16)
(0.999562 -0.00173052 3.38486e-16)
(0.999651 -0.00208539 7.2103e-16)
(0.999787 -0.00243314 1.63591e-16)
(0.999929 -0.00276603 9.50994e-17)
(1.00014 -0.00307988 7.04464e-17)
(1.00023 -0.00344805 -7.38302e-16)
(1.00033 -0.00369913 6.50998e-17)
(1.00005 -0.00397583 6.46074e-16)
(0.999785 0.000653281 -8.96767e-17)
(0.999706 0.000388976 -9.24449e-17)
(0.999625 9.55291e-05 3.43148e-17)
(0.999556 -0.000245391 -2.64649e-16)
(0.99951 -0.000620666 -1.79904e-17)
(0.999496 -0.00101146 4.82575e-16)
(0.999521 -0.00139786 5.51977e-17)
(0.999585 -0.00177422 3.04881e-16)
(0.999687 -0.00212912 -6.04674e-16)
(0.999835 -0.00247266 -3.10743e-16)
(0.999988 -0.0027994 4.46457e-16)
(1.00021 -0.00310251 -1.49862e-16)
(1.0003 -0.00345378 4.87232e-16)
(1.0004 -0.00369112 7.57918e-16)
(1.00018 -0.00393428 -6.10722e-17)
(0.999759 0.000688427 2.80937e-17)
(0.999682 0.000406449 1.14814e-17)
(0.999607 9.76809e-05 1.15718e-16)
(0.999546 -0.000255188 2.26251e-18)
(0.999508 -0.000640238 9.90153e-17)
(0.999499 -0.00104062 -2.90187e-16)
(0.999532 -0.00143611 5.9959e-16)
(0.999606 -0.00181894 -1.53884e-16)
(0.999719 -0.00217611 6.54442e-16)
(0.999879 -0.00251713 -3.42529e-16)
(1.00004 -0.00283881 -5.45752e-16)
(1.00026 -0.0031326 5.2729e-16)
(1.00037 -0.00346809 -8.90844e-16)
(1.00048 -0.00369316 -1.31704e-15)
(1.0003 -0.00390952 -3.36338e-16)
(0.999732 0.000722671 3.12786e-18)
(0.999655 0.000422958 1.9509e-17)
(0.999586 9.9278e-05 -3.12419e-17)
(0.999535 -0.000264536 1.58848e-16)
(0.999505 -0.000658046 1.08986e-16)
(0.999503 -0.00106718 -4.27516e-17)
(0.999542 -0.00147216 -3.61415e-16)
(0.999625 -0.00186322 -3.48517e-16)
(0.999749 -0.00222511 -2.35659e-16)
(0.99992 -0.00256589 4.34473e-16)
(1.00009 -0.00288406 3.36877e-16)
(1.00032 -0.00316973 -4.95834e-16)
(1.00044 -0.00348989 1.10356e-15)
(1.00055 -0.00370264 1.38774e-15)
(1.00041 -0.0038971 4.72964e-17)
(0.999701 0.000756178 3.57691e-17)
(0.999625 0.000438709 -4.76249e-17)
(0.999562 0.000100318 2.29636e-16)
(0.999521 -0.000273836 -4.5747e-17)
(0.999502 -0.000674571 -1.74658e-16)
(0.999509 -0.00109091 7.40725e-17)
(0.999556 -0.00150436 -1.29999e-16)
(0.999646 -0.00190393 2.94264e-16)
(0.999779 -0.00227207 7.73858e-17)
(0.99996 -0.00261464 5.41269e-17)
(1.00015 -0.00293097 -2.58376e-16)
(1.00038 -0.00320992 3.43328e-16)
(1.00051 -0.00351553 1.75357e-16)
(1.00062 -0.00371637 1.57257e-16)
(1.00052 -0.00389486 4.01785e-16)
(0.999669 0.000789112 -1.83884e-17)
(0.999592 0.000453853 2.72623e-17)
(0.999533 0.000100621 -3.72246e-16)
(0.999503 -0.0002839 -2.38221e-16)
(0.999496 -0.000691189 3.29806e-16)
(0.999516 -0.00111309 -8.93167e-17)
(0.999572 -0.00153297 5.21928e-16)
(0.999671 -0.00193975 -1.41754e-16)
(0.999812 -0.00231421 -7.529e-18)
(1 -0.00265983 -1.50499e-16)
(1.0002 -0.002976 3.86718e-16)
(1.00043 -0.00325018 -2.44014e-16)
(1.00058 -0.00354328 -8.03652e-16)
(1.00069 -0.00373437 -1.91915e-16)
(1.00062 -0.00390398 -4.58869e-16)
(0.999636 0.000821668 2.47547e-17)
(0.999556 0.000468527 1.12642e-16)
(0.9995 9.99361e-05 3.35522e-16)
(0.99948 -0.000295853 2.60464e-16)
(0.999486 -0.000710209 -3.21122e-17)
(0.999519 -0.00113699 -1.30512e-16)
(0.999587 -0.00156145 -5.77803e-16)
(0.999696 -0.00197353 -6.72008e-17)
(0.999846 -0.00235344 -3.43467e-16)
(1.00004 -0.00270259 1.11302e-16)
(1.00025 -0.00302015 -7.08875e-16)
(1.00049 -0.00329208 3.42304e-16)
(1.00065 -0.00357576 1.15786e-15)
(1.00077 -0.00376053 -8.95736e-16)
(1.00071 -0.00392723 5.34956e-16)
(0.9996 0.000854023 -1.99606e-17)
(0.999516 0.000482857 -1.58495e-16)
(0.999461 9.80177e-05 -1.92034e-16)
(0.999448 -0.000310856 -9.58028e-17)
(0.999465 -0.000734327 -6.13688e-17)
(0.999512 -0.00116718 8.42826e-17)
(0.999595 -0.00159601 -3.22911e-17)
(0.999716 -0.00201227 -4.43659e-16)
(0.999876 -0.00239669 -1.30647e-16)
(1.00008 -0.00274945 -3.29009e-17)
(1.00029 -0.00306952 6.45256e-16)
(1.00054 -0.0033414 1.08044e-16)
(1.00071 -0.00361835 -9.62705e-16)
(1.00084 -0.00379921 5.12574e-16)
(1.00079 -0.00396419 -1.03517e-16)
(0.999563 0.000886361 1.8032e-17)
(0.999473 0.000497031 9.31933e-17)
(0.999415 9.48923e-05 9.2433e-17)
(0.999406 -0.000329439 1.79812e-16)
(0.999432 -0.000765287 -9.7993e-17)
(0.999492 -0.00120736 -2.75786e-17)
(0.999588 -0.00164252 1.99291e-16)
(0.999723 -0.00206359 2.97894e-16)
(0.999895 -0.0024524 -2.15003e-17)
(1.00011 -0.00280869 -3.59998e-16)
(1.00033 -0.00313153 -2.76906e-16)
(1.00059 -0.00340409 -4.87276e-16)
(1.00077 -0.00367491 2.04539e-17)
(1.00092 -0.00385124 2.65451e-16)
(1.00088 -0.00401044 -1.61858e-16)
(0.999524 0.000918816 -9.64123e-18)
(0.999427 0.00051127 -5.51521e-17)
(0.999364 9.0922e-05 1.40392e-16)
(0.999356 -0.000351114 1.47393e-17)
(0.999386 -0.000802817 -1.24763e-16)
(0.999455 -0.00125818 1.00635e-16)
(0.999564 -0.00170328 -4.80825e-17)
(0.999714 -0.00213139 2.74715e-16)
(0.9999 -0.00252538 5.07766e-16)
(1.00013 -0.00288496 7.88764e-17)
(1.00036 -0.00320965 2.38997e-16)
(1.00063 -0.00348153 2.43483e-16)
(1.00083 -0.00374406 6.01893e-17)
(1.00099 -0.00391195 -5.46263e-16)
(1.00098 -0.00405725 1.33447e-16)
(0.999484 0.000951481 1.29156e-17)
(0.999379 0.000525811 1.16156e-17)
(0.99931 8.67742e-05 -2.86817e-16)
(0.999299 -0.000374392 -1.25332e-16)
(0.999331 -0.000844435 1.76271e-16)
(0.999407 -0.00131659 -2.7525e-17)
(0.999527 -0.00177531 1.84175e-16)
(0.999691 -0.00221329 -2.44675e-16)
(0.999893 -0.0026137 1.39569e-16)
(1.00014 -0.00297616 1.16104e-16)
(1.00039 -0.00330076 1.22673e-16)
(1.00067 -0.00356892 1.5622e-16)
(1.00088 -0.00381923 2.17514e-16)
(1.00107 -0.00397332 3.06975e-17)
(1.00108 -0.00409779 7.85117e-17)
(0.999444 0.000984365 -3.97377e-17)
(0.999329 0.000540816 1.05198e-16)
(0.999255 8.3143e-05 1.64695e-16)
(0.999242 -0.000397354 -1.05459e-16)
(0.999274 -0.000886362 -6.85814e-17)
(0.999355 -0.00137679 3.90499e-17)
(0.999484 -0.00185135 -2.00632e-16)
(0.999661 -0.00230124 -1.31345e-16)
(0.99988 -0.00270902 -1.72557e-16)
(1.00014 -0.00307375 2.74439e-16)
(1.00041 -0.00339606 -3.80952e-16)
(1.0007 -0.00365717 2.97863e-16)
(1.00094 -0.00389158 1.46117e-16)
(1.00114 -0.00402775 5.48507e-16)
(1.00119 -0.00412835 -5.05584e-16)
(0.999402 0.00101741 1.67681e-17)
(0.99928 0.000556316 -7.91807e-17)
(0.999201 8.04794e-05 5.80014e-17)
(0.999187 -0.000418474 1.28319e-16)
(0.999222 -0.000925178 -8.8997e-17)
(0.999308 -0.00143294 -1.50459e-16)
(0.999445 -0.00192317 -7.12592e-17)
(0.999635 -0.00238538 9.82329e-17)
(0.999869 -0.00280072 -4.49557e-16)
(1.00015 -0.00316716 6.63843e-17)
(1.00043 -0.00348564 2.53159e-16)
(1.00074 -0.00373764 -7.08196e-16)
(1.001 -0.00395462 1.43236e-16)
(1.00122 -0.00407208 2.20244e-17)
(1.00131 -0.00415036 3.72844e-16)
(0.99936 0.00105048 -6.37475e-18)
(0.999231 0.000572197 9.70486e-17)
(0.99915 7.87714e-05 -9.37971e-17)
(0.999138 -0.000437295 -5.8238e-17)
(0.999179 -0.000959303 -9.29249e-17)
(0.999271 -0.00148158 -4.91624e-17)
(0.999418 -0.00198521 -1.06031e-16)
(0.999619 -0.00245839 7.57271e-17)
(0.999868 -0.00288071 2.91178e-17)
(1.00016 -0.00324859 -3.11464e-16)
(1.00047 -0.00356304 -3.71803e-16)
(1.00079 -0.0038061 4.12821e-16)
(1.00106 -0.004007 -3.60905e-16)
(1.00131 -0.00410837 -1.15238e-16)
(1.00142 -0.00416925 -1.14107e-17)
(0.999317 0.00108345 -1.92898e-17)
(0.999184 0.000588248 -4.48312e-17)
(0.999101 7.75981e-05 3.1679e-17)
(0.999094 -0.000454575 2.25812e-16)
(0.999142 -0.000989636 3.77236e-16)
(0.999245 -0.00152318 3.08078e-16)
(0.999402 -0.00203692 3.36721e-16)
(0.999615 -0.00251875 -2.14899e-16)
(0.999877 -0.00294704 5.71099e-20)
(1.00018 -0.00331656 2.33284e-16)
(1.0005 -0.00362812 4.59566e-17)
(1.00084 -0.00386439 2.53701e-16)
(1.00113 -0.00405265 2.04173e-16)
(1.00139 -0.00414238 -5.36514e-16)
(1.00152 -0.00419007 -3.54614e-16)
(0.999274 0.00111617 9.92479e-18)
(0.999136 0.000604249 -8.10309e-17)
(0.999052 7.63174e-05 -1.62156e-16)
(0.99905 -0.000471917 -1.59224e-16)
(0.999108 -0.00101908 1.46447e-17)
(0.999223 -0.00156169 -1.73935e-16)
(0.999393 -0.00208275 -3.7885e-16)
(0.999618 -0.00257093 2.89271e-16)
(0.999893 -0.00300418 2.35356e-16)
(1.00021 -0.00337586 -5.19219e-16)
(1.00054 -0.00368635 4.26185e-16)
(1.0009 -0.00391873 -3.10959e-16)
(1.0012 -0.00409805 -1.43556e-16)
(1.00147 -0.00418001 -1.25908e-16)
(1.00162 -0.00421539 1.5107e-16)
(0.99923 0.00114853 3.77804e-17)
(0.999089 0.000620061 1.73871e-17)
(0.999003 7.44222e-05 8.77043e-17)
(0.999003 -0.000490956 4.07587e-17)
(0.999071 -0.00105113 4.79757e-17)
(0.999199 -0.00160267 3.00839e-16)
(0.999383 -0.00212985 -1.35986e-16)
(0.999622 -0.00262298 1.48649e-16)
(0.999909 -0.00306051 8.53789e-17)
(1.00024 -0.00343478 5.95176e-17)
(1.00059 -0.00374565 1.98468e-16)
(1.00095 -0.00397624 -4.23488e-17)
(1.00126 -0.00414865 9.42572e-18)
(1.00156 -0.00422414 8.78163e-16)
(1.00173 -0.00424368 2.8094e-18)
(0.999186 0.00118046 -3.66713e-17)
(0.99904 0.000635659 -1.26712e-17)
(0.99895 7.17646e-05 5.73429e-17)
(0.99895 -0.000512614 -1.74901e-16)
(0.999024 -0.00108835 -2.80247e-16)
(0.999164 -0.00165085 -2.68612e-16)
(0.999363 -0.00218497 2.27671e-16)
(0.999617 -0.0026829 -8.32911e-17)
(0.999919 -0.00312434 9.72044e-18)
(1.00026 -0.00350112 -5.05024e-18)
(1.00062 -0.0038125 -2.74111e-16)
(1.001 -0.00404137 -2.47988e-16)
(1.00133 -0.00420622 -1.60156e-16)
(1.00164 -0.00427329 2.43993e-17)
(1.00184 -0.00427016 -5.5347e-17)
(0.999141 0.00121191 -1.83077e-17)
(0.998992 0.000651138 4.84769e-17)
(0.998895 6.87138e-05 4.77181e-17)
(0.998891 -0.000536559 7.76845e-17)
(0.998967 -0.00113116 1.06299e-16)
(0.999117 -0.00170806 1.68059e-18)
(0.99933 -0.00225148 2.27599e-16)
(0.999601 -0.00275512 -5.07688e-16)
(0.999919 -0.00320026 2.59003e-16)
(1.00028 -0.00357859 2.64259e-16)
(1.00065 -0.00388893 -3.78303e-16)
(1.00104 -0.00411382 7.07172e-16)
(1.00139 -0.00426786 3.7282e-16)
(1.00172 -0.00432219 -6.96686e-16)
(1.00196 -0.00428898 -2.08712e-16)
(0.999095 0.00124281 3.7859e-17)
(0.998943 0.000666619 2.94111e-17)
(0.998839 6.59948e-05 4.5948e-18)
(0.998828 -0.000561275 -3.48266e-17)
(0.998902 -0.00117757 2.02146e-17)
(0.999059 -0.00177245 2.85282e-16)
(0.999286 -0.00232813 -4.59902e-17)
(0.999574 -0.00283887 3.2581e-16)
(0.99991 -0.00328738 -4.8213e-17)
(1.00029 -0.00366551 -2.92338e-16)
(1.00068 -0.0039718 6.0527e-16)
(1.00109 -0.00418877 -3.63555e-16)
(1.00145 -0.00432746 -4.92931e-16)
(1.00181 -0.0043641 2.08954e-16)
(1.00209 -0.00429605 3.51714e-16)
(0.999049 0.0012731 -3.1483e-17)
(0.998895 0.000682177 -1.32789e-17)
(0.998785 6.44714e-05 -1.73241e-16)
(0.998766 -0.000584486 -8.47056e-17)
(0.998836 -0.00122374 5.21924e-17)
(0.998997 -0.00183906 -2.88003e-16)
(0.999235 -0.0024094 -8.46926e-17)
(0.999541 -0.00292842 2.84002e-16)
(0.999898 -0.00337975 -2.40266e-16)
(1.0003 -0.00375546 7.04829e-17)
(1.00071 -0.00405415 -3.37045e-16)
(1.00113 -0.00425887 1.06159e-17)
(1.00152 -0.00437804 2.66818e-16)
(1.00189 -0.00439341 1.40798e-16)
(1.00223 -0.00429058 -5.52366e-17)
(0.999002 0.00130265 3.00341e-17)
(0.998848 0.00069772 -9.7492e-17)
(0.998735 6.47464e-05 8.1879e-17)
(0.99871 -0.000603988 5.3617e-17)
(0.998776 -0.00126532 -4.04446e-17)
(0.998939 -0.00190154 -1.73012e-16)
(0.999189 -0.00248758 5.24796e-17)
(0.999512 -0.00301538 -1.30201e-16)
(0.999888 -0.00346876 -2.1963e-16)
(1.00031 -0.00384 -2.7469e-17)
(1.00074 -0.00412808 -4.87126e-16)
(1.00119 -0.00431731 4.98984e-16)
(1.00159 -0.00441479 3.88408e-17)
(1.00198 -0.00440818 -8.03767e-17)
(1.00236 -0.0042764 -7.87312e-18)
(0.998954 0.00133134 -3.68381e-17)
(0.998802 0.000712988 1.0036e-16)
(0.99869 6.69712e-05 -2.30657e-17)
(0.998664 -0.000618287 -2.10214e-16)
(0.998729 -0.00129871 -1.00214e-16)
(0.998895 -0.00195405 1.1647e-16)
(0.999154 -0.0025551 -1.70964e-16)
(0.999493 -0.00309131 -1.91577e-16)
(0.999889 -0.003546 3.26158e-16)
(1.00033 -0.00391149 1.13544e-16)
(1.00078 -0.00418745 5.11151e-16)
(1.00125 -0.00436014 -3.84807e-16)
(1.00167 -0.00443662 1.3849e-16)
(1.00207 -0.00441062 -1.56373e-16)
(1.00249 -0.00426043 5.24836e-18)
(0.998904 0.00135901 2.28007e-17)
(0.998756 0.00072753 -5.80764e-17)
(0.998652 7.06281e-05 7.21732e-17)
(0.998631 -0.000627228 3.13217e-16)
(0.998698 -0.0013223 1.32977e-16)
(0.99887 -0.00199316 8.25406e-17)
(0.999138 -0.00260707 3.39564e-16)
(0.99949 -0.00315066 1.61432e-16)
(0.999904 -0.00360621 -2.66e-16)
(1.00036 -0.00396589 4.53449e-16)
(1.00084 -0.00423024 2.52328e-16)
(1.00131 -0.00438797 -2.13758e-16)
(1.00175 -0.00444704 -4.09497e-16)
(1.00216 -0.00440703 -1.5959e-16)
(1.00261 -0.00425175 6.2027e-17)
(0.998851 0.00138555 4.68165e-18)
(0.99871 0.000740824 -1.23731e-16)
(0.998617 7.46775e-05 -9.18647e-17)
(0.998608 -0.000632001 -2.15646e-16)
(0.998684 -0.00133679 3.46439e-17)
(0.998863 -0.00201867 -3.3516e-16)
(0.999141 -0.00264241 -3.6049e-16)
(0.999505 -0.00319205 -1.45066e-16)
(0.999933 -0.00364853 3.09166e-16)
(1.00041 -0.00400371 -3.28569e-16)
(1.00089 -0.00425895 1.16251e-16)
(1.00139 -0.00440556 2.16327e-16)
(1.00183 -0.00445285 3.28918e-16)
(1.00224 -0.00440566 2.01305e-16)
(1.00271 -0.00425838 1.72132e-17)
(0.998795 0.00141092 3.2909e-17)
(0.998661 0.000752321 2.02227e-16)
(0.998584 7.76449e-05 9.4158e-17)
(0.998591 -0.000635065 1.81031e-16)
(0.998682 -0.00134528 1.08495e-16)
(0.998872 -0.00203385 4.57965e-17)
(0.999159 -0.0026644 5.28256e-17)
(0.999533 -0.00321894 -1.21397e-16)
(0.999973 -0.0036771 -1.23168e-16)
(1.00046 -0.00403022 1.44406e-17)
(1.00096 -0.00428032 -7.94398e-16)
(1.00146 -0.00442104 -3.10559e-16)
(1.00191 -0.00446296 3.27085e-16)
(1.00233 -0.00441528 -7.31629e-17)
(1.00279 -0.00428653 -2.04014e-16)
(0.998737 0.00143514 -4.42315e-17)
(0.998609 0.00076163 -1.29593e-16)
(0.998548 7.80433e-05 -1.86188e-16)
(0.998575 -0.000639438 6.11873e-17)
(0.998684 -0.00135229 -2.05869e-16)
(0.998887 -0.00204434 3.83862e-17)
(0.999185 -0.00267936 -4.74998e-17)
(0.999569 -0.00323822 -8.66628e-18)
(1.00002 -0.00369939 -1.47166e-16)
(1.00051 -0.00405359 -7.72062e-17)
(1.00102 -0.00430312 2.73573e-17)
(1.00153 -0.0044434 2.69721e-16)
(1.00199 -0.00448575 -1.36146e-16)
(1.00241 -0.00444274 2.69619e-16)
(1.00286 -0.00433859 9.59555e-17)
(0.998675 0.00145836 2.36411e-17)
(0.998552 0.000768533 1.24153e-16)
(0.998506 7.45593e-05 2.36547e-16)
(0.998553 -0.000648231 -6.83742e-17)
(0.998681 -0.00136298 -1.65976e-17)
(0.9989 -0.00205705 2.51387e-16)
(0.999209 -0.00269549 2.1385e-16)
(0.999602 -0.00325883 -1.46586e-16)
(1.00006 -0.00372475 3.92927e-16)
(1.00056 -0.00408325 3.56678e-16)
(1.00107 -0.00433647 3.79545e-16)
(1.00159 -0.00448087 -1.75357e-17)
(1.00206 -0.00452771 -3.01876e-16)
(1.00249 -0.00449198 -3.18019e-16)
(1.00292 -0.00441339 -3.08683e-17)
(0.998609 0.0014808 -2.02581e-17)
(0.998488 0.000773108 -6.55625e-17)
(0.998454 6.64295e-05 -1.96065e-16)
(0.998519 -0.000663848 1.26224e-16)
(0.998666 -0.00138182 1.21162e-16)
(0.998902 -0.00207841 -1.68312e-16)
(0.999223 -0.0027206 -8.50103e-17)
(0.999625 -0.00328932 8.40796e-18)
(1.00009 -0.00376183 -1.74625e-16)
(1.0006 -0.00412734 -3.05614e-16)
(1.00112 -0.00438741 -5.64335e-16)
(1.00164 -0.0045388 6.10246e-17)
(1.00212 -0.00459181 3.68635e-16)
(1.00256 -0.00456319 3.34797e-16)
(1.00297 -0.00450628 -7.09456e-17)
(0.998541 0.00150274 -1.61219e-17)
(0.998417 0.000775652 -1.31887e-17)
(0.99839 5.3452e-05 1.71586e-16)
(0.998469 -0.000687736 -1.61946e-16)
(0.998633 -0.00141202 -3.20148e-16)
(0.998885 -0.00211339 1.55432e-16)
(0.999219 -0.00276094 8.82456e-17)
(0.999631 -0.00333648 4.08814e-16)
(1.0001 -0.00381721 5.84942e-17)
(1.00062 -0.00419151 2.84596e-16)
(1.00115 -0.00446003 8.45718e-16)
(1.00169 -0.00461916 -2.32255e-16)
(1.00218 -0.00467757 -9.87124e-17)
(1.00264 -0.00465331 -1.16734e-17)
(1.00303 -0.00461035 -2.82697e-17)
(0.99847 0.0015245 4.50884e-17)
(0.99834 0.000776701 4.9279e-17)
(0.998313 3.60965e-05 -1.47582e-16)
(0.998401 -0.000720064 1.37148e-16)
(0.998579 -0.00145487 -9.23633e-17)
(0.998845 -0.0021645 -2.97438e-16)
(0.999193 -0.00281991 1.3087e-17)
(0.999617 -0.00340399 -3.51567e-17)
(1.0001 -0.00389408 -2.16911e-16)
(1.00063 -0.00427782 1.83006e-16)
(1.00117 -0.0045547 -7.89519e-16)
(1.00172 -0.00472037 -1.43891e-17)
(1.00224 -0.00478136 -1.76385e-16)
(1.00271 -0.00475694 3.30686e-17)
(1.00309 -0.00471818 -8.37499e-17)
(0.998397 0.00154638 -1.15055e-17)
(0.998257 0.000776884 -1.17396e-17)
(0.998226 1.53137e-05 2.04194e-17)
(0.998317 -0.000759887 -1.52523e-16)
(0.998504 -0.00150983 -2.74313e-17)
(0.998783 -0.00223175 3.63198e-16)
(0.999145 -0.00289791 -2.64834e-16)
(0.999584 -0.00349218 -3.28195e-16)
(1.00008 -0.00399217 3.5162e-16)
(1.00062 -0.00438485 -3.18278e-16)
(1.00119 -0.00466852 4.03161e-16)
(1.00175 -0.00483793 3.81862e-16)
(1.00229 -0.00489735 2.75489e-16)
(1.00278 -0.00486737 -1.83838e-16)
(1.00316 -0.00482251 -6.31443e-17)
(0.998324 0.00156862 -1.24091e-17)
(0.998171 0.000776889 -7.20554e-17)
(0.998131 -7.5823e-06 -9.70775e-17)
(0.998219 -0.000805329 7.12695e-17)
(0.998412 -0.00157469 1.80671e-16)
(0.998702 -0.00231284 6.3426e-17)
(0.999078 -0.00299253 2.46161e-16)
(0.999533 -0.0035983 5.37963e-17)
(1.00005 -0.00410811 -4.62335e-16)
(1.00061 -0.00450831 1.61926e-16)
(1.00119 -0.00479616 -2.29036e-16)
(1.00178 -0.00496564 -1.90396e-16)
(1.00233 -0.00501885 -2.56887e-16)
(1.00286 -0.004978 4.07283e-17)
(1.00325 -0.00491786 1.52473e-16)
(0.998249 0.00159137 -1.90481e-17)
(0.998082 0.000777313 3.43208e-17)
(0.998031 -3.11821e-05 4.1446e-17)
(0.998113 -0.000854003 -1.42874e-16)
(0.998307 -0.00164617 6.9741e-17)
(0.998606 -0.00240379 -2.11726e-16)
(0.998997 -0.00309926 -2.59341e-17)
(0.99947 -0.00371737 3.18752e-16)
(1.00001 -0.00423632 -2.03467e-16)
(1.00059 -0.00464206 -2.69059e-16)
(1.00119 -0.00493097 2.31291e-16)
(1.0018 -0.00509659 -6.87191e-17)
(1.00239 -0.00513927 -7.281e-16)
(1.00294 -0.00508309 7.45252e-17)
(1.00334 -0.00500042 1.09699e-16)
(0.998174 0.00161468 -9.80518e-18)
(0.997993 0.000778632 3.34811e-17)
(0.997928 -5.41749e-05 1.26121e-17)
(0.998002 -0.000903439 1.90345e-17)
(0.998196 -0.0017206 1.20396e-16)
(0.998503 -0.00249992 6.69213e-17)
(0.998909 -0.00321265 -2.20551e-16)
(0.999402 -0.00384337 -2.01271e-17)
(0.999961 -0.00437045 6.09415e-16)
(1.00057 -0.00477953 -1.95602e-16)
(1.0012 -0.00506644 -5.75022e-18)
(1.00183 -0.00522471 2.89917e-17)
(1.00244 -0.0052534 2.79732e-17)
(1.00302 -0.00517881 -5.15919e-17)
(1.00345 -0.00506911 1.73174e-17)
(0.998098 0.00163849 2.58372e-17)
(0.997904 0.00078112 -6.82975e-17)
(0.997827 -7.55222e-05 -7.80659e-17)
(0.997892 -0.000951414 1.39761e-19)
(0.998084 -0.00179443 -1.81817e-16)
(0.9984 -0.00259647 -2.90533e-17)
(0.99882 -0.00332709 4.28097e-17)
(0.999333 -0.0039702 -4.85104e-17)
(0.999916 -0.00450418 -4.12654e-16)
(1.00055 -0.00491455 5.49819e-16)
(1.0012 -0.00519688 -3.1399e-17)
(1.00187 -0.00534513 -5.7556e-17)
(1.0025 -0.00535765 3.39828e-16)
(1.0031 -0.00526313 -3.82349e-16)
(1.00357 -0.00512451 8.13171e-18)
(0.998023 0.00166267 2.74145e-18)
(0.997817 0.000784861 8.19369e-17)
(0.997729 -9.45674e-05 2.20334e-16)
(0.997786 -0.000996278 -5.56058e-17)
(0.997978 -0.00186482 1.18173e-16)
(0.9983 -0.00268951 -1.83747e-16)
(0.998736 -0.00343786 -2.20172e-16)
(0.99927 -0.00409276 5.29943e-18)
(0.999877 -0.00463248 2.40304e-16)
(1.00054 -0.0050425 -4.79927e-16)
(1.00122 -0.00531843 1.19651e-16)
(1.00191 -0.00545507 -2.08142e-17)
(1.00256 -0.00545055 2.62577e-16)
(1.00319 -0.00533602 8.13848e-17)
(1.00369 -0.00516908 -1.27749e-16)
(0.997947 0.00168701 1.05347e-18)
(0.997732 0.00078974 -8.89315e-17)
(0.997636 -0.00011106 -1.25761e-16)
(0.997688 -0.00103703 2.08172e-17)
(0.99788 -0.00192978 -2.19565e-17)
(0.99821 -0.00277616 1.66781e-16)
(0.998661 -0.00354145 3.61472e-16)
(0.999215 -0.00420731 -3.20826e-16)
(0.999847 -0.00475179 3.65163e-16)
(1.00053 -0.00516039 3.22908e-17)
(1.00124 -0.005429 7.17477e-17)
(1.00195 -0.00555355 -1.38701e-16)
(1.00263 -0.00553235 2.68239e-16)
(1.00328 -0.00539896 1.52489e-16)
(1.00382 -0.00520601 2.00687e-16)
(0.99787 0.0017113 -8.61658e-18)
(0.99765 0.000795496 8.48335e-17)
(0.997549 -0.00012514 1.54907e-16)
(0.997598 -0.0010734 5.35484e-17)
(0.997792 -0.00198847 1.5673e-16)
(0.998131 -0.00285497 1.20432e-16)
(0.998597 -0.00363603 -3.24665e-16)
(0.999171 -0.00431199 6.50802e-16)
(0.999826 -0.00486055 -2.04808e-16)
(1.00053 -0.00526729 -6.81923e-17)
(1.00127 -0.0055285 -2.46994e-16)
(1.00201 -0.00564144 -1.08602e-16)
(1.0027 -0.00560483 -2.98542e-16)
(1.00337 -0.00545456 -1.10356e-16)
(1.00394 -0.00523914 4.82817e-17)
(0.997792 0.00173531 -3.06002e-17)
(0.997569 0.000801759 -9.07235e-17)
(0.997467 -0.000137256 -1.08631e-17)
(0.997516 -0.00110575 1.06536e-16)
(0.997715 -0.00204097 -1.42635e-16)
(0.998063 -0.00292575 -1.04798e-16)
(0.998544 -0.00372126 4.06286e-16)
(0.999137 -0.00440654 -1.21401e-16)
(0.999814 -0.00495887 -5.19019e-16)
(1.00055 -0.00536389 7.14753e-17)
(1.0013 -0.00561835 -1.25424e-16)
(1.00206 -0.00572086 2.323e-16)
(1.00278 -0.00567074 3.72743e-16)
(1.00346 -0.00550597 3.33103e-16)
(1.00407 -0.00527204 -2.81377e-16)
(0.997713 0.00175885 1.83473e-18)
(0.997488 0.000808119 -1.75001e-17)
(0.997388 -0.000148067 -7.24877e-17)
(0.997442 -0.0011349 4.52111e-17)
(0.997647 -0.0020882 -7.90913e-17)
(0.998006 -0.00298944 1.34973e-16)
(0.998501 -0.00379818 -1.16751e-16)
(0.999113 -0.00449218 4.00941e-17)
(0.999811 -0.00504831 -1.08799e-16)
(1.00056 -0.0054522 2.76978e-16)
(1.00134 -0.00570102 3.39177e-16)
(1.00212 -0.00579471 1.96313e-18)
(1.00286 -0.00573316 -5.93282e-16)