1.45 	0 	0 	-0.0081344 	-0.00258591 	1.65345e-20
2.35 	0 	0 	0.0621373 	-0.00662483 	9.88733e-21
