1.45 	0 	0 	-0.00754591 	-0.00260048 	3.84446e-21
2.35 	0 	0 	0.0627159 	-0.00667726 	2.3705e-21
