1.45 	0 	0 	-0.00812555 	-0.00258807 	1.65376e-20
2.35 	0 	0 	0.0622183 	-0.00662006 	9.89092e-21
