1.45 	0 	0 	-0.000254763 	-0.00329742 	3.97264e-21
2.35 	0 	0 	0.0929739 	-0.00774542 	2.20984e-21
