/*--------------------------------*- C++ -*----------------------------------*\
  =========                 |
  \\      /  F ield         | OpenFOAM: The Open Source CFD Toolbox
   \\    /   O peration     | Website:  https://openfoam.org
    \\  /    A nd           | Version:  6.0
     \\/     M anipulation  |
\*---------------------------------------------------------------------------*/
FoamFile
{
    version     2.0;
    format      ascii;
    class       volScalarField;
    location    "6";
    object      p;
}
// * * * * * * * * * * * * * * * * * * * * * * * * * * * * * * * * * * * * * //

dimensions      [0 2 -2 0 0 0 0];

internalField   nonuniform List<scalar> 
62000
(
0.0231175
0.0217648
0.0204725
0.0192338
0.018061
0.0169365
0.0158571
0.0148109
0.0137921
0.0127848
0.0117839
0.0107689
0.00973414
0.00865495
0.00752368
0.00631196
0.00500882
0.00358213
0.00201651
0.000275714
-0.00165998
-0.00383119
-0.00626177
-0.00899498
-0.0120582
-0.0154939
-0.0193297
-0.0236029
-0.028336
-0.0335526
-0.0392555
-0.0454297
-0.0520429
-0.0590284
-0.0662788
-0.0736293
-0.0808539
-0.0876434
-0.093598
-0.0982017
-0.100812
-0.100637
-0.0967684
-0.0880606
-0.0731
-0.0503932
-0.0189262
0.0211932
0.0676387
0.115553
0.157827
0.187146
0.198822
0.192556
0.171822
0.142506
0.109359
0.0743767
0.0415147
0.103914
0.00410016
0.00241009
0.000858019
-0.000608112
-0.00193436
-0.00314463
-0.00423144
-0.005206
-0.00607117
-0.00684454
-0.00753392
-0.00816404
-0.00874715
-0.00931393
-0.00988126
-0.0104843
-0.0111442
-0.011899
-0.0127743
-0.0138105
-0.0150362
-0.0164939
-0.0182159
-0.0202443
-0.0226143
-0.0253648
-0.0285283
-0.032136
-0.0362123
-0.0407761
-0.0458273
-0.0513536
-0.0573146
-0.0636445
-0.0702335
-0.0769229
-0.083495
-0.0896612
-0.0950486
-0.0991833
-0.10147
-0.101173
-0.0974487
-0.0892102
-0.0750511
-0.0533879
-0.0229574
0.0165891
0.0635535
0.113727
0.160335
0.195771
0.214294
0.214071
0.197061
0.16813
0.131388
0.0904874
0.0485519
0.0177853
-0.0119775
-0.0137025
-0.0153618
-0.0170276
-0.0186339
-0.0201964
-0.0216958
-0.0231284
-0.0244808
-0.0257528
-0.0269341
-0.0280314
-0.0290402
-0.0299752
-0.0308405
-0.0316593
-0.0324452
-0.0332292
-0.0340342
-0.0348985
-0.0358519
-0.036938
-0.0381925
-0.0396601
-0.0413803
-0.0433947
-0.045739
-0.0484458
-0.0515424
-0.0550495
-0.0589759
-0.0633101
-0.0680232
-0.0730573
-0.0783178
-0.0836666
-0.0889175
-0.0938242
-0.098072
-0.101262
-0.102891
-0.102336
-0.0988937
-0.091639
-0.0792979
-0.0603671
-0.033543
0.00176977
0.044377
0.0907862
0.134927
0.169588
0.188846
0.190137
0.174506
0.146081
0.108805
0.0689573
0.0268673
0.00412966
-0.0222729
-0.0238587
-0.0254249
-0.0270594
-0.0286949
-0.0303553
-0.0320209
-0.033693
-0.0353558
-0.0370089
-0.038635
-0.0402341
-0.0417897
-0.0433037
-0.0447635
-0.0461755
-0.0475349
-0.0488544
-0.0501396
-0.0514125
-0.0526889
-0.0539995
-0.0553708
-0.0568389
-0.0584378
-0.0602045
-0.0621718
-0.0643698
-0.0668252
-0.0695625
-0.07259
-0.0759093
-0.0794979
-0.0833127
-0.0872788
-0.0912848
-0.0951823
-0.0987762
-0.101819
-0.104
-0.104922
-0.104094
-0.100984
-0.094853
-0.0845912
-0.0688288
-0.0463094
-0.0162942
0.0204271
0.0610559
0.100329
0.131695
0.149445
0.150696
0.135936
0.108786
0.073274
0.0375792
0.000368712
-0.0185027
-0.0313694
-0.0326829
-0.0339888
-0.0353834
-0.0368067
-0.038288
-0.0398151
-0.0413942
-0.0430158
-0.0446843
-0.0463864
-0.0481249
-0.0498836
-0.0516634
-0.0534468
-0.0552338
-0.057009
-0.0587728
-0.0605155
-0.0622427
-0.0639528
-0.0656589
-0.0673703
-0.0691072
-0.0708893
-0.0727408
-0.0746836
-0.076739
-0.0789274
-0.0812677
-0.0837736
-0.0864433
-0.0892661
-0.0922096
-0.0952163
-0.0981987
-0.101042
-0.103597
-0.105676
-0.107045
-0.107401
-0.106374
-0.103585
-0.0984619
-0.0900411
-0.0770889
-0.0584353
-0.0332803
-0.00212499
0.0328046
0.0669869
0.0945691
0.110217
0.11098
0.0970028
0.0715624
0.0387746
0.00783167
-0.0247284
-0.0390109
-0.0393184
-0.0404806
-0.0416336
-0.042876
-0.0441441
-0.0454716
-0.0468454
-0.0482786
-0.0497638
-0.0513131
-0.0529176
-0.0545883
-0.0563137
-0.0581009
-0.059936
-0.0618218
-0.0637426
-0.0656966
-0.0676689
-0.0696573
-0.0716495
-0.0736457
-0.0756415
-0.0776414
-0.0796497
-0.0816759
-0.0837273
-0.0858125
-0.087941
-0.0901264
-0.0923708
-0.0946801
-0.0970422
-0.0994339
-0.101811
-0.104103
-0.106223
-0.108055
-0.109461
-0.110264
-0.110235
-0.109103
-0.106612
-0.10232
-0.095388
-0.0847055
-0.0692101
-0.0480999
-0.0216967
0.00822168
0.0377642
0.061733
0.0752224
0.0753449
0.0620475
0.0383337
0.00833368
-0.0185141
-0.0479826
-0.0590016
-0.0475353
-0.0484963
-0.0494457
-0.0504829
-0.0515481
-0.0526752
-0.0538532
-0.055095
-0.056395
-0.0577662
-0.0592022
-0.0607164
-0.0623008
-0.063967
-0.0657049
-0.0675222
-0.0694065
-0.0713589
-0.0733652
-0.0754226
-0.0775153
-0.0796382
-0.081779
-0.0839325
-0.0860917
-0.0882537
-0.0904132
-0.0925664
-0.0947117
-0.0968498
-0.0989836
-0.101106
-0.103211
-0.105278
-0.107271
-0.109133
-0.110796
-0.112169
-0.113148
-0.1136
-0.11335
-0.1122
-0.109987
-0.106368
-0.100608
-0.0917046
-0.0787115
-0.0608656
-0.0383889
-0.01272
0.0127683
0.0334582
0.0448763
0.0442768
0.0314808
0.00926283
-0.0183452
-0.0421439
-0.0698807
-0.0788481
-0.054937
-0.0557952
-0.0566415
-0.0575738
-0.0585273
-0.0595373
-0.0605892
-0.0616983
-0.0628573
-0.0640824
-0.0653667
-0.0667276
-0.0681583
-0.0696743
-0.0712684
-0.0729525
-0.0747176
-0.0765692
-0.0784962
-0.0804985
-0.0825617
-0.0846805
-0.0868404
-0.0890322
-0.0912431
-0.0934627
-0.0956768
-0.0978718
-0.100037
-0.102166
-0.104247
-0.106278
-0.108246
-0.110133
-0.111908
-0.113524
-0.114923
-0.116035
-0.116776
-0.117046
-0.116705
-0.115611
-0.113666
-0.1106
-0.105765
-0.0982553
-0.0872411
-0.0720205
-0.0527737
-0.0306817
-0.00869597
0.00907009
0.0185473
0.017159
0.00465819
-0.0163994
-0.0421383
-0.0639091
-0.0908734
-0.0988354
-0.0628383
-0.0635299
-0.0642071
-0.0649676
-0.0657511
-0.0665925
-0.0674785
-0.068423
-0.0694189
-0.0704809
-0.071602
-0.072799
-0.0740647
-0.075416
-0.0768462
-0.0783701
-0.0799801
-0.081685
-0.0834762
-0.0853571
-0.0873153
-0.0893475
-0.0914403
-0.093584
-0.0957641
-0.0979669
-0.100174
-0.102365
-0.104524
-0.106635
-0.108687
-0.110664
-0.112558
-0.114349
-0.116009
-0.117496
-0.118762
-0.119748
-0.120387
-0.120597
-0.120264
-0.119285
-0.117605
-0.11501
-0.110927
-0.104535
-0.095118
-0.0820451
-0.0654934
-0.0464476
-0.027518
-0.0123862
-0.00474864
-0.00699522
-0.0194193
-0.039662
-0.0640569
-0.0846342
-0.111494
-0.1193
-0.0700515
-0.0706607
-0.071257
-0.0719356
-0.0726312
-0.0733801
-0.0741648
-0.0750015
-0.0758808
-0.0768197
-0.0778096
-0.0788695
-0.0799919
-0.0811952
-0.0824729
-0.0838413
-0.0852943
-0.0868427
-0.0884799
-0.0902122
-0.0920298
-0.0939321
-0.0959079
-0.0979493
-0.100042
-0.102173
-0.104322
-0.106467
-0.108587
-0.110665
-0.112677
-0.114614
-0.116461
-0.1182
-0.119805
-0.121237
-0.122454
-0.123405
-0.124033
-0.124271
-0.124016
-0.1232
-0.121791
-0.119619
-0.116171
-0.110715
-0.102631
-0.0913708
-0.0771217
-0.0607237
-0.0445037
-0.0317705
-0.0258867
-0.0290598
-0.0416004
-0.0613403
-0.0848221
-0.104833
-0.132021
-0.140351
-0.0778993
-0.07836
-0.0788043
-0.0793274
-0.0798691
-0.0804649
-0.0810997
-0.0817881
-0.0825209
-0.0833134
-0.0841569
-0.0850689
-0.0860412
-0.087092
-0.0882144
-0.0894257
-0.0907192
-0.0921076
-0.0935846
-0.0951587
-0.0968213
-0.0985743
-0.100408
-0.102318
-0.104291
-0.106315
-0.108371
-0.110437
-0.11249
-0.114508
-0.116474
-0.118367
-0.120176
-0.121883
-0.123464
-0.124882
-0.1261
-0.127072
-0.127748
-0.128069
-0.127945
-0.127326
-0.1262
-0.124425
-0.12155
-0.116915
-0.109995
-0.10032
-0.0880998
-0.074064
-0.0603026
-0.0498023
-0.0456218
-0.0497879
-0.0626192
-0.0821173
-0.105038
-0.124938
-0.15271
-0.162109
-0.0850957
-0.0854863
-0.0858631
-0.0863182
-0.0867865
-0.0873049
-0.0878539
-0.0884504
-0.0890827
-0.0897687
-0.0904976
-0.0912896
-0.0921352
-0.0930542
-0.0940389
-0.0951076
-0.0962538
-0.0974909
-0.0988135
-0.100232
-0.101738
-0.103336
-0.105019
-0.106783
-0.10862
-0.110517
-0.112459
-0.114423
-0.116388
-0.118334
-0.120235
-0.122078
-0.123849
-0.125532
-0.127104
-0.128532
-0.12978
-0.130808
-0.131571
-0.132015
-0.132057
-0.131665
-0.130835
-0.129451
-0.127112
-0.123238
-0.117375
-0.109143
-0.0987599
-0.0868822
-0.0753929
-0.0669955
-0.0644763
-0.0696935
-0.0829539
-0.102419
-0.125032
-0.145148
-0.173712
-0.184462
-0.0929837
-0.0932385
-0.0934755
-0.0937873
-0.0941135
-0.094491
-0.0949021
-0.0953625
-0.0958608
-0.0964133
-0.0970089
-0.0976664
-0.0983754
-0.0991558
-0.0999987
-0.100923
-0.101922
-0.10301
-0.104181
-0.105446
-0.106797
-0.108242
-0.109772
-0.111388
-0.11308
-0.114842
-0.116658
-0.118508
-0.120373
-0.12223
-0.124061
-0.125845
-0.127573
-0.129233
-0.130802
-0.13225
-0.133543
-0.134646
-0.135517
-0.136109
-0.136342
-0.136198
-0.13568
-0.13469
-0.13288
-0.129735
-0.124875
-0.117991
-0.109322
-0.099459
-0.0901117
-0.0837318
-0.0828554
-0.0891762
-0.102985
-0.122582
-0.145087
-0.16566
-0.195359
-0.207357
-0.10025
-0.100443
-0.100622
-0.100876
-0.101139
-0.101449
-0.101785
-0.102164
-0.102573
-0.10303
-0.103523
-0.104072
-0.104667
-0.105328
-0.106046
-0.106841
-0.107706
-0.108654
-0.109682
-0.1108
-0.112003
-0.113298
-0.114679
-0.116147
-0.117695
-0.119319
-0.121004
-0.122734
-0.12449
-0.126255
-0.128002
-0.129723
-0.131405
-0.13304
-0.134608
-0.136081
-0.137428
-0.138619
-0.139613
-0.140368
-0.140812
-0.140935
-0.140744
-0.14016
-0.138881
-0.13646
-0.132571
-0.126987
-0.119942
-0.111992
-0.104688
-0.100255
-0.101002
-0.108469
-0.122918
-0.142774
-0.165307
-0.186502
-0.217619
-0.230614
-0.108251
-0.108318
-0.108365
-0.108483
-0.108611
-0.108788
-0.108993
-0.109243
-0.109525
-0.109856
-0.110224
-0.110647
-0.111114
-0.111646
-0.112232
-0.112894
-0.113622
-0.114432
-0.115319
-0.116296
-0.117355
-0.118504
-0.11974
-0.121064
-0.122471
-0.123957
-0.125511
-0.12712
-0.128765
-0.130427
-0.132094
-0.133743
-0.135377
-0.136984
-0.13855
-0.140049
-0.141454
-0.142736
-0.143862
-0.144791
-0.145458
-0.145861
-0.146013
-0.14585
-0.145115
-0.143421
-0.140497
-0.13618
-0.130706
-0.124595
-0.119266
-0.116735
-0.119101
-0.127754
-0.142922
-0.163138
-0.185815
-0.207753
-0.240422
-0.254208
-0.115611
-0.115623
-0.11562
-0.115687
-0.115761
-0.115878
-0.116017
-0.116195
-0.116397
-0.116642
-0.116916
-0.117241
-0.117603
-0.118026
-0.118497
-0.11904
-0.119644
-0.120327
-0.121082
-0.121924
-0.122846
-0.123856
-0.124952
-0.126137
-0.127406
-0.128758
-0.130184
-0.13167
-0.133202
-0.134769
-0.136343
-0.137924
-0.139504
-0.141083
-0.142647
-0.144174
-0.145639
-0.147017
-0.148279
-0.149391
-0.150293
-0.15099
-0.151499
-0.151775
-0.151599
-0.150646
-0.148684
-0.145625
-0.141678
-0.137352
-0.133942
-0.13327
-0.137246
-0.147117
-0.163064
-0.183718
-0.206611
-0.229362
-0.263562
-0.27804
-0.123709
-0.123602
-0.123475
-0.123414
-0.12336
-0.123351
-0.123366
-0.123423
-0.123507
-0.123634
-0.123791
-0.123999
-0.124242
-0.124545
-0.124894
-0.125313
-0.125791
-0.126347
-0.126972
-0.127683
-0.128472
-0.129349
-0.130311
-0.131361
-0.132497
-0.133719
-0.135019
-0.136386
-0.137809
-0.139271
-0.140763
-0.142269
-0.143797
-0.145347
-0.146908
-0.14846
-0.149984
-0.15146
-0.152862
-0.154161
-0.155305
-0.156306
-0.157187
-0.157917
-0.158319
-0.158122
-0.157133
-0.155323
-0.152879
-0.150299
-0.148766
-0.14993
-0.155517
-0.166635
-0.183419
-0.204575
-0.227752
-0.251358
-0.28703
-0.302147
-0.131166
-0.13101
-0.130839
-0.130735
-0.130633
-0.130573
-0.13053
-0.130522
-0.130533
-0.130582
-0.130653
-0.13077
-0.130917
-0.131118
-0.131362
-0.131671
-0.132035
-0.132473
-0.132978
-0.133564
-0.134227
-0.134976
-0.13581
-0.136731
-0.137739
-0.138835
-0.140013
-0.141264
-0.142578
-0.143945
-0.145346
-0.146782
-0.148258
-0.149777
-0.151335
-0.152915
-0.1545
-0.156075
-0.15762
-0.159112
-0.160505
-0.161821
-0.163086
-0.164289
-0.165286
-0.165863
-0.165857
-0.165298
-0.164337
-0.163468
-0.163776
-0.166749
-0.173942
-0.186332
-0.203996
-0.225703
-0.249198
-0.273663
-0.310705
-0.32646
-0.13939
-0.139122
-0.138833
-0.138606
-0.138382
-0.1382
-0.138037
-0.137912
-0.137808
-0.137744
-0.137703
-0.137707
-0.137742
-0.137829
-0.137958
-0.138151
-0.138398
-0.138717
-0.139101
-0.139568
-0.140108
-0.140734
-0.141444
-0.142241
-0.143126
-0.144102
-0.145162
-0.146301
-0.14751
-0.148778
-0.150099
-0.151463
-0.152886
-0.154375
-0.155929
-0.157534
-0.159179
-0.160854
-0.162543
-0.164231
-0.16588
-0.167518
-0.16918
-0.17087
-0.172481
-0.173847
-0.174838
-0.17553
-0.176042
-0.176861
-0.178983
-0.183751
-0.192555
-0.206243
-0.224829
-0.247133
-0.270982
-0.296297
-0.334599
-0.351032
-0.14699
-0.146671
-0.146336
-0.146064
-0.145793
-0.145561
-0.145342
-0.145155
-0.144983
-0.144846
-0.144725
-0.144645
-0.14459
-0.144584
-0.144615
-0.144707
-0.144849
-0.145059
-0.145332
-0.145684
-0.146108
-0.146617
-0.147207
-0.147886
-0.148653
-0.149512
-0.15046
-0.151491
-0.152598
-0.153777
-0.155009
-0.156306
-0.157677
-0.159136
-0.160686
-0.162318
-0.164024
-0.1658
-0.167637
-0.169526
-0.171438
-0.173407
-0.175477
-0.177669
-0.179911
-0.182083
-0.184083
-0.186031
-0.188007
-0.19049
-0.194402
-0.200945
-0.211361
-0.226367
-0.245909
-0.268841
-0.293055
-0.319176
-0.358599
-0.375798
-0.155278
-0.154856
-0.154413
-0.154031
-0.153648
-0.153305
-0.152977
-0.152684
-0.152405
-0.152162
-0.151936
-0.151751
-0.151589
-0.151476
-0.151399
-0.151381
-0.151412
-0.151512
-0.151673
-0.151913
-0.152223
-0.152618
-0.153094
-0.153658
-0.154312
-0.15506
-0.1559
-0.156827
-0.157837
-0.158921
-0.160079
-0.161305
-0.162625
-0.164054
-0.1656
-0.167258
-0.169025
-0.170903
-0.172889
-0.174981
-0.17716
-0.179467
-0.181955
-0.184663
-0.187552
-0.190544
-0.193567
-0.196772
-0.200211
-0.204343
-0.210027
-0.21834
-0.230374
-0.246723
-0.267255
-0.290848
-0.315441
-0.342326
-0.382712
-0.400812
-0.163275
-0.162789
-0.16228
-0.161827
-0.161369
-0.160948
-0.160538
-0.16016
-0.159795
-0.159464
-0.159147
-0.158871
-0.158617
-0.158411
-0.158237
-0.158123
-0.158054
-0.158052
-0.158108
-0.158241
-0.158444
-0.158729
-0.159095
-0.15955
-0.160095
-0.160735
-0.161471
-0.162297
-0.163212
-0.164214
-0.165288
-0.16645
-0.16772
-0.16912
-0.170663
-0.172348
-0.174179
-0.176162
-0.1783
-0.180601
-0.183054
-0.185707
-0.188623
-0.19186
-0.195412
-0.199238
-0.203294
-0.207763
-0.21266
-0.218429
-0.225868
-0.235939
-0.249594
-0.267305
-0.288857
-0.313131
-0.338097
-0.365667
-0.406815
-0.426008
-0.171302
-0.170751
-0.170178
-0.169659
-0.169134
-0.168644
-0.168164
-0.167712
-0.16727
-0.166858
-0.166457
-0.166092
-0.165746
-0.165444
-0.165172
-0.164958
-0.164787
-0.164682
-0.164635
-0.164663
-0.16476
-0.164939
-0.165199
-0.165548
-0.165988
-0.166525
-0.16716
-0.167891
-0.168716
-0.169629
-0.170634
-0.171731
-0.172953
-0.174325
-0.175866
-0.177579
-0.179473
-0.181561
-0.183854
-0.186367
-0.189098
-0.192103
-0.195457
-0.199234
-0.203463
-0.208136
-0.213238
-0.218973
-0.225329
-0.232728
-0.241913
-0.253741
-0.269029
-0.288125
-0.310727
-0.335707
-0.361044
-0.389228
-0.430905
-0.45144
-0.179291
-0.178674
-0.178036
-0.177452
-0.17686
-0.176303
-0.175753
-0.175231
-0.174716
-0.174231
-0.173754
-0.173312
-0.172886
-0.172502
-0.172145
-0.171843
-0.171581
-0.171381
-0.171237
-0.171166
-0.171161
-0.171238
-0.171396
-0.171642
-0.171981
-0.172419
-0.172957
-0.173595
-0.174332
-0.175171
-0.176098
-0.177135
-0.178311
-0.179658
-0.181198
-0.182942
-0.184902
-0.187099
-0.189551
-0.192281
-0.195298
-0.198663
-0.202464
-0.206794
-0.211711
-0.217245
-0.223403
-0.23041
-0.238226
-0.247248
-0.258171
-0.271751
-0.288678
-0.309178
-0.332856
-0.358554
-0.384244
-0.412935
-0.454843
-0.477028
-0.18747
-0.186779
-0.186067
-0.185408
-0.184742
-0.184112
-0.183487
-0.18289
-0.182298
-0.181733
-0.181174
-0.180647
-0.180132
-0.179658
-0.179208
-0.178811
-0.178453
-0.178156
-0.177914
-0.177744
-0.17764
-0.177618
-0.177675
-0.177822
-0.178063
-0.178405
-0.17885
-0.179399
-0.180054
-0.180811
-0.181675
-0.182651
-0.183783
-0.185106
-0.186648
-0.188423
-0.190451
-0.192759
-0.195372
-0.198323
-0.20163
-0.205362
-0.209619
-0.214512
-0.22013
-0.226535
-0.23376
-0.242044
-0.251324
-0.261969
-0.274628
-0.289965
-0.308546
-0.330475
-0.355256
-0.381691
-0.407722
-0.436825
-0.478615
-0.502818
-0.195662
-0.1949
-0.194116
-0.193384
-0.192643
-0.191937
-0.191234
-0.190559
-0.189888
-0.189245
-0.188605
-0.187998
-0.187401
-0.186844
-0.186309
-0.185825
-0.185377
-0.184989
-0.184653
-0.184388
-0.184188
-0.184068
-0.184029
-0.184079
-0.184225
-0.184473
-0.184828
-0.185291
-0.185864
-0.186551
-0.187343
-0.188266
-0.189357
-0.190659
-0.192205
-0.194015
-0.196115
-0.198538
-0.201317
-0.204494
-0.208099
-0.212205
-0.216927
-0.222394
-0.228726
-0.236015
-0.244316
-0.253885
-0.264633
-0.276901
-0.291294
-0.308389
-0.328635
-0.352013
-0.377922
-0.405102
-0.431448
-0.460839
-0.502053
-0.528705
-0.204036
-0.203197
-0.202335
-0.201524
-0.200703
-0.199917
-0.199135
-0.198378
-0.197623
-0.196894
-0.196167
-0.195469
-0.19478
-0.194128
-0.193498
-0.192917
-0.192373
-0.191889
-0.191455
-0.191094
-0.190798
-0.190582
-0.190447
-0.190403
-0.190455
-0.190612
-0.190879
-0.191258
-0.191754
-0.192365
-0.193099
-0.193967
-0.19502
-0.196304
-0.197856
-0.199703
-0.201876
-0.204417
-0.207365
-0.210773
-0.21468
-0.219168
-0.224362
-0.230414
-0.237471
-0.245655
-0.255044
-0.265903
-0.278126
-0.292022
-0.308155
-0.32702
-0.348949
-0.373802
-0.400866
-0.428805
-0.455452
-0.485023
-0.525121
-0.554734
-0.212375
-0.211463
-0.210528
-0.209642
-0.208745
-0.207881
-0.207019
-0.206182
-0.205345
-0.204534
-0.203723
-0.202942
-0.202168
-0.201431
-0.200714
-0.200045
-0.199411
-0.198835
-0.198309
-0.197854
-0.197462
-0.197152
-0.196923
-0.196785
-0.196744
-0.196812
-0.196993
-0.19729
-0.197709
-0.198257
-0.198924
-0.199744
-0.200761
-0.202028
-0.203591
-0.205478
-0.207729
-0.210392
-0.213515
-0.217159
-0.221376
-0.226253
-0.23193
-0.238578
-0.246372
-0.255463
-0.265949
-0.27811
-0.291814
-0.307343
-0.325221
-0.345862
-0.369489
-0.39584
-0.424084
-0.45279
-0.479709
-0.509342
-0.547618
-0.580795
-0.220856
-0.219866
-0.218852
-0.217887
-0.21691
-0.215966
-0.215023
-0.214104
-0.213184
-0.212287
-0.211388
-0.210516
-0.209649
-0.208817
-0.208003
-0.207239
-0.206507
-0.205835
-0.205212
-0.204661
-0.204175
-0.203769
-0.203446
-0.203215
-0.203084
-0.203064
-0.203159
-0.203378
-0.203724
-0.204199
-0.204814
-0.205583
-0.206566
-0.207821
-0.209396
-0.211326
-0.213656
-0.216444
-0.219745
-0.223631
-0.228163
-0.233437
-0.239605
-0.246858
-0.255401
-0.26541
-0.277006
-0.290476
-0.305672
-0.322845
-0.342478
-0.364912
-0.390258
-0.418136
-0.447587
-0.477076
-0.504252
-0.533868
-0.569474
-0.606935
-0.229278
-0.228214
-0.227128
-0.226088
-0.225034
-0.224013
-0.222989
-0.22199
-0.220988
-0.220009
-0.219027
-0.218072
-0.21712
-0.216203
-0.215303
-0.21445
-0.213628
-0.212864
-0.212149
-0.211504
-0.210924
-0.210425
-0.210008
-0.209685
-0.209464
-0.209356
-0.209369
-0.209508
-0.209781
-0.210196
-0.210747
-0.211473
-0.212425
-0.21367
-0.215259
-0.217236
-0.219652
-0.22257
-0.226055
-0.230189
-0.235044
-0.240723
-0.247392
-0.255261
-0.264564
-0.275505
-0.288222
-0.303014
-0.319712
-0.338538
-0.359937
-0.384177
-0.411264
-0.440695
-0.471379
-0.501659
-0.529071
-0.558627
-0.590405
-0.633135
-0.237806
-0.236667
-0.235503
-0.234386
-0.233253
-0.232153
-0.23105
-0.229969
-0.228884
-0.22782
-0.22675
-0.225705
-0.22466
-0.223649
-0.222653
-0.221704
-0.220786
-0.219927
-0.219115
-0.218376
-0.2177
-0.217107
-0.216597
-0.216183
-0.215872
-0.215678
-0.215608
-0.21567
-0.215874
-0.216221
-0.216723
-0.217402
-0.218327
-0.219563
-0.22117
-0.223196
-0.225698
-0.228749
-0.232423
-0.236809
-0.241993
-0.248085
-0.255264
-0.26376
-0.273836
-0.28572
-0.299571
-0.315697
-0.333909
-0.354403
-0.377585
-0.403652
-0.432506
-0.46352
-0.495469
-0.526557
-0.5542
-0.583708
-0.610856
-0.659779
-0.246246
-0.245035
-0.2438
-0.242609
-0.241401
-0.240225
-0.239043
-0.237884
-0.236719
-0.235575
-0.234423
-0.233296
-0.232168
-0.231073
-0.229991
-0.228955
-0.227947
-0.226997
-0.226093
-0.225261
-0.224492
-0.223806
-0.223204
-0.222699
-0.222299
-0.22202
-0.221869
-0.221855
-0.221988
-0.222278
-0.222721
-0.223361
-0.224258
-0.225488
-0.227116
-0.229195
-0.231789
-0.234979
-0.238846
-0.243492
-0.249013
-0.255527
-0.263225
-0.27236
-0.283221
-0.296063
-0.311061
-0.328534
-0.348276
-0.370451
-0.395433
-0.423346
-0.453991
-0.486618
-0.519861
-0.551771
-0.579634
-0.609113
-0.631862
-0.687241
-0.254784
-0.253497
-0.252184
-0.250915
-0.249628
-0.248373
-0.247113
-0.245873
-0.244626
-0.243397
-0.242159
-0.240942
-0.239723
-0.238535
-0.237358
-0.236227
-0.235124
-0.234079
-0.23308
-0.232153
-0.23129
-0.230512
-0.229818
-0.229223
-0.228736
-0.228373
-0.228141
-0.228053
-0.228119
-0.228343
-0.22874
-0.229336
-0.230208
-0.231435
-0.233085
-0.235219
-0.237907
-0.241239
-0.245305
-0.250216
-0.25608
-0.263024
-0.271251
-0.281036
-0.292694
-0.306507
-0.322667
-0.341502
-0.362789
-0.386663
-0.413465
-0.44325
-0.475718
-0.509992
-0.544563
-0.57732
-0.605412
-0.634867
-0.654266
-0.715757
-0.263243
-0.261882
-0.260496
-0.259152
-0.257789
-0.256457
-0.255117
-0.253799
-0.25247
-0.25116
-0.249839
-0.248541
-0.247237
-0.245965
-0.244701
-0.243483
-0.24229
-0.241154
-0.240063
-0.239044
-0.238089
-0.237218
-0.236434
-0.235749
-0.235175
-0.234728
-0.234417
-0.234253
-0.23425
-0.234418
-0.234759
-0.235317
-0.236166
-0.23739
-0.239067
-0.241259
-0.244046
-0.247525
-0.251795
-0.256978
-0.263194
-0.270577
-0.279344
-0.28979
-0.302259
-0.317058
-0.334396
-0.35461
-0.37746
-0.403053
-0.431696
-0.463378
-0.497697
-0.533653
-0.569587
-0.603211
-0.631536
-0.660987
-0.67778
-0.745178
-0.271789
-0.270353
-0.26889
-0.267468
-0.266026
-0.264615
-0.263195
-0.261795
-0.260383
-0.258988
-0.257579
-0.256189
-0.254793
-0.253426
-0.252067
-0.250752
-0.249463
-0.248231
-0.247045
-0.245931
-0.244882
-0.243918
-0.243042
-0.242268
-0.241607
-0.241075
-0.240684
-0.240447
-0.240376
-0.240481
-0.240776
-0.241293
-0.24212
-0.243344
-0.245048
-0.247301
-0.250189
-0.253819
-0.258297
-0.263757
-0.270332
-0.278163
-0.28748
-0.2986
-0.311894
-0.327693
-0.346225
-0.367836
-0.392269
-0.4196
-0.450111
-0.48372
-0.519926
-0.557601
-0.594937
-0.62946
-0.658037
-0.687487
-0.702297
-0.77551
-0.280254
-0.278745
-0.277208
-0.275713
-0.274194
-0.272706
-0.271206
-0.269726
-0.268231
-0.266754
-0.26526
-0.263787
-0.262305
-0.260851
-0.259403
-0.257999
-0.256619
-0.255294
-0.254014
-0.252806
-0.251663
-0.250606
-0.249638
-0.248773
-0.248024
-0.247407
-0.246936
-0.246623
-0.246484
-0.246533
-0.246772
-0.247253
-0.248058
-0.249284
-0.251017
-0.253335
-0.256329
-0.260114
-0.264807
-0.270552
-0.277493
-0.285782
-0.29566
-0.307466
-0.321599
-0.338415
-0.358159
-0.381187
-0.407224
-0.436318
-0.468721
-0.504287
-0.542413
-0.581848
-0.620624
-0.656077
-0.684922
-0.714382
-0.727591
-0.806642
-0.288823
-0.287236
-0.28562
-0.284044
-0.282444
-0.280874
-0.279292
-0.277728
-0.276148
-0.274583
-0.272999
-0.271432
-0.269854
-0.268304
-0.266757
-0.265254
-0.263774
-0.262351
-0.260972
-0.259667
-0.258427
-0.257275
-0.256213
-0.255257
-0.254418
-0.253715
-0.253162
-0.252774
-0.252567
-0.252551
-0.252744
-0.253185
-0.25397
-0.255198
-0.256963
-0.259347
-0.262449
-0.266393
-0.271305
-0.277341
-0.284656
-0.293411
-0.303862
-0.316366
-0.331354
-0.349204
-0.370178
-0.394643
-0.422306
-0.453188
-0.487513
-0.52507
-0.565156
-0.606392
-0.646654
-0.683076
-0.712215
-0.741669
-0.75366
-0.838571
-0.297321
-0.295658
-0.293965
-0.292311
-0.290631
-0.28898
-0.287314
-0.285666
-0.284
-0.282348
-0.280676
-0.279021
-0.277353
-0.275712
-0.274073
-0.272476
-0.270901
-0.269381
-0.267906
-0.266504
-0.265166
-0.263917
-0.262759
-0.261709
-0.260779
-0.259989
-0.259352
-0.258887
-0.258609
-0.258536
-0.258673
-0.259079
-0.259844
-0.261076
-0.262875
-0.265328
-0.268542
-0.27265
-0.277787
-0.28412
-0.291819
-0.30105
-0.312084
-0.325301
-0.34116
-0.36006
-0.382285
-0.40821
-0.437526
-0.470223
-0.506501
-0.546083
-0.588166
-0.631247
-0.67304
-0.710471
-0.739927
-0.769372
-0.780344
-0.871183
-0.305888
-0.304147
-0.302374
-0.300638
-0.298874
-0.297139
-0.295388
-0.293653
-0.291898
-0.290155
-0.288388
-0.286637
-0.28487
-0.283128
-0.281387
-0.279688
-0.27801
-0.276388
-0.27481
-0.273307
-0.271869
-0.270522
-0.269266
-0.26812
-0.267097
-0.266217
-0.265496
-0.264952
-0.264604
-0.264466
-0.264557
-0.264923
-0.265669
-0.266907
-0.26874
-0.271264
-0.274592
-0.278868
-0.284234
-0.290871
-0.29896
-0.308677
-0.320306
-0.334249
-0.350995
-0.370966
-0.394462
-0.421871
-0.452864
-0.487406
-0.525669
-0.567314
-0.611439
-0.656411
-0.699787
-0.738275
-0.768082
-0.797473
-0.807654
-0.904442
-0.314338
-0.31252
-0.31067
-0.308855
-0.307011
-0.305195
-0.30336
-0.30154
-0.299697
-0.297867
-0.296011
-0.294169
-0.29231
-0.290475
-0.288639
-0.286844
-0.285068
-0.283347
-0.281669
-0.280065
-0.278527
-0.277079
-0.275724
-0.274481
-0.273363
-0.272392
-0.271585
-0.270961
-0.270541
-0.270343
-0.270378
-0.270708
-0.271435
-0.272678
-0.274548
-0.277145
-0.280592
-0.285039
-0.29064
-0.297587
-0.306076
-0.31629
-0.328526
-0.343209
-0.36086
-0.38192
-0.406709
-0.435629
-0.468329
-0.504747
-0.54503
-0.588776
-0.634985
-0.681897
-0.726908
-0.766502
-0.796695
-0.826009
-0.83548
-0.938221
-0.322809
-0.320913
-0.318983
-0.317087
-0.315161
-0.313262
-0.311343
-0.309437
-0.307507
-0.305585
-0.303635
-0.301697
-0.299738
-0.297801
-0.295862
-0.293964
-0.292084
-0.290259
-0.288478
-0.286772
-0.285131
-0.283581
-0.282126
-0.280784
-0.27957
-0.278506
-0.277611
-0.276907
-0.276413
-0.276148
-0.276134
-0.276423
-0.277131
-0.27838
-0.280287
-0.282958
-0.286525
-0.291146
-0.296988
-0.304252
-0.313147
-0.323868
-0.336723
-0.352162
-0.370736
-0.392906
-0.419012
-0.449467
-0.483905
-0.522229
-0.564569
-0.610459
-0.658798
-0.707702
-0.754405
-0.795165
-0.825787
-0.854956
-0.863842
-0.972438
-0.331165
-0.329194
-0.327189
-0.325218
-0.323213
-0.321234
-0.31923
-0.317238
-0.315218
-0.313206
-0.311162
-0.30913
-0.307076
-0.305044
-0.303009
-0.301013
-0.299035
-0.297111
-0.295228
-0.29342
-0.291676
-0.290024
-0.288467
-0.287024
-0.285711
-0.284553
-0.283568
-0.282779
-0.28221
-0.281881
-0.281808
-0.282059
-0.282746
-0.284001
-0.285946
-0.288694
-0.292383
-0.297184
-0.30327
-0.310858
-0.320169
-0.331407
-0.344891
-0.361102
-0.380619
-0.403921
-0.431367
-0.46339
-0.499598
-0.539866
-0.584301
-0.632375
-0.682892
-0.73384
-0.782296
-0.824281
-0.855382
-0.884376
-0.892689
-1.00693
-0.339738
-0.337668
-0.335564
-0.333492
-0.331384
-0.329302
-0.327194
-0.325098
-0.322971
-0.320852
-0.318701
-0.316562
-0.314402
-0.312265
-0.310124
-0.308025
-0.305942
-0.303913
-0.301926
-0.300013
-0.298163
-0.296406
-0.294744
-0.293197
-0.291783
-0.290526
-0.289448
-0.288573
-0.287925
-0.287526
-0.2874
-0.287606
-0.288272
-0.289531
-0.291513
-0.294338
-0.298151
-0.303133
-0.309469
-0.317387
-0.327123
-0.33889
-0.353016
-0.370015
-0.390495
-0.414952
-0.443761
-0.477382
-0.515392
-0.557639
-0.604209
-0.654514
-0.707258
-0.760306
-0.810577
-0.853861
-0.885504
-0.914246
-0.922055
-1.04156
-0.348093
-0.345926
-0.343727
-0.341565
-0.339367
-0.337195
-0.334998
-0.332812
-0.330592
-0.328381
-0.326137
-0.323906
-0.321651
-0.319419
-0.317182
-0.314983
-0.312798
-0.310666
-0.308573
-0.306551
-0.304593
-0.302726
-0.300955
-0.299301
-0.297781
-0.296423
-0.295248
-0.294282
-0.293552
-0.293082
-0.292891
-0.293054
-0.293696
-0.294958
-0.296978
-0.29988
-0.30382
-0.308987
-0.315577
-0.323832
-0.334001
-0.346307
-0.36109
-0.378894
-0.400356
-0.425991
-0.456191
-0.491445
-0.531294
-0.57556
-0.624308
-0.676888
-0.731909
-0.787115
-0.839268
-0.883924
-0.916185
-0.94466
-0.951976
-1.07609
-0.356776
-0.354528
-0.352238
-0.349974
-0.347667
-0.345381
-0.343064
-0.340755
-0.338412
-0.336076
-0.333706
-0.331349
-0.32897
-0.326616
-0.324257
-0.321939
-0.319636
-0.317386
-0.315176
-0.313039
-0.310965
-0.308983
-0.307098
-0.305331
-0.303701
-0.302236
-0.300959
-0.299899
-0.299081
-0.298532
-0.29828
-0.298393
-0.299008
-0.300271
-0.302327
-0.305307
-0.309374
-0.314729
-0.321577
-0.330175
-0.340787
-0.353645
-0.369098
-0.387727
-0.410188
-0.43703
-0.468643
-0.505565
-0.547288
-0.593612
-0.64458
-0.699485
-0.756835
-0.814258
-0.868365
-0.914479
-0.947448
-0.975609
-0.982514
-1.11035
-0.365009
-0.362678
-0.36031
-0.357971
-0.355588
-0.353227
-0.350831
-0.348442
-0.346013
-0.343588
-0.341124
-0.338671
-0.336191
-0.333731
-0.331264
-0.328835
-0.326417
-0.324051
-0.321723
-0.319466
-0.317271
-0.31517
-0.313165
-0.31128
-0.309535
-0.307957
-0.306574
-0.305411
-0.304502
-0.303873
-0.303549
-0.303612
-0.304197
-0.30546
-0.30755
-0.310607
-0.314803
-0.320347
-0.32746
-0.336406
-0.347471
-0.360889
-0.377032
-0.3965
-0.419984
-0.448054
-0.481116
-0.519739
-0.563378
-0.611806
-0.665042
-0.722318
-0.782052
-0.841753
-0.897886
-0.945545
-0.979336
-1.00724
-1.01382
-1.14419
-0.373551
-0.371139
-0.368682
-0.366245
-0.363759
-0.36129
-0.358784
-0.35628
-0.353735
-0.351191
-0.348607
-0.346031
-0.343427
-0.340843
-0.33825
-0.335695
-0.333151
-0.330659
-0.328205
-0.325822
-0.323502
-0.321275
-0.319146
-0.317137
-0.315271
-0.313576
-0.312079
-0.310812
-0.309805
-0.309088
-0.308695
-0.3087
-0.309252
-0.310511
-0.312634
-0.315768
-0.320092
-0.325829
-0.333208
-0.342511
-0.354037
-0.36803
-0.384877
-0.405205
-0.429731
-0.459058
-0.493598
-0.533957
-0.57955
-0.630125
-0.685676
-0.745375
-0.807547
-0.869589
-0.927825
-0.97713
-1.01187
-1.03957
-1.046
-1.17747
-0.381698
-0.379197
-0.376654
-0.374137
-0.37157
-0.369023
-0.366435
-0.36385
-0.361218
-0.358585
-0.355907
-0.353234
-0.350526
-0.347835
-0.34513
-0.34246
-0.339796
-0.337181
-0.334601
-0.332091
-0.329641
-0.327285
-0.325027
-0.32289
-0.320898
-0.31908
-0.317466
-0.316087
-0.314979
-0.314173
-0.313699
-0.313646
-0.314162
-0.315415
-0.317568
-0.320778
-0.32523
-0.331161
-0.338811
-0.348476
-0.360471
-0.375051
-0.392619
-0.413824
-0.439418
-0.470025
-0.506089
-0.548214
-0.595805
-0.648579
-0.706496
-0.768667
-0.833333
-0.89778
-0.958199
-1.00925
-1.04511
-1.07282
-1.07935
-1.21023
-0.390106
-0.387524
-0.384892
-0.382277
-0.379606
-0.376949
-0.374249
-0.371548
-0.368797
-0.366043
-0.363241
-0.360444
-0.357609
-0.35479
-0.351956
-0.349156
-0.346362
-0.343616
-0.340904
-0.338262
-0.335679
-0.33319
-0.330798
-0.328528
-0.326406
-0.324461
-0.322724
-0.32123
-0.320013
-0.319111
-0.318559
-0.31844
-0.318916
-0.320158
-0.32234
-0.325622