/*--------------------------------*- C++ -*----------------------------------*\
  =========                 |
  \\      /  F ield         | OpenFOAM: The Open Source CFD Toolbox
   \\    /   O peration     | Website:  https://openfoam.org
    \\  /    A nd           | Version:  6.0
     \\/     M anipulation  |
\*---------------------------------------------------------------------------*/
FoamFile
{
    version     2.0;
    format      ascii;
    class       surfaceScalarField;
    location    "6";
    object      phi;
}
// * * * * * * * * * * * * * * * * * * * * * * * * * * * * * * * * * * * * * //

dimensions      [0 3 -1 0 0 0 0];

internalField   nonuniform List<scalar> 
123526
(
-0.000157287
2.63286e-05
0.000157869
-0.000156665
2.85021e-05
-0.000155988
3.08544e-05
-0.000155267
3.34075e-05
-0.00015449
3.61763e-05
-0.000153669
3.91798e-05
-0.000152785
4.24378e-05
-0.000151854
4.59726e-05
-0.000150855
4.98066e-05
-0.000149802
5.39659e-05
-0.00014867
5.84789e-05
-0.000147477
6.33758e-05
-0.000146193
6.86894e-05
-0.000144832
7.44535e-05
-0.000143363
8.07085e-05
-0.000141802
8.75019e-05
-0.000140119
9.48772e-05
-0.000138317
0.000102878
-0.000136368
0.00011157
-0.000134284
0.000121015
-0.000132024
0.000131265
-0.000129591
0.000142402
-0.000126965
0.000154511
-0.000124123
0.000167648
-0.00012105
0.000181939
-0.00011773
0.000197458
-0.000114127
0.000214316
-0.000110237
0.000232636
-0.00010601
0.000252519
-0.000101441
0.000274122
-9.6471e-05
0.000297552
-9.10707e-05
0.000322987
-8.51876e-05
0.000350557
-7.87752e-05
0.000380439
-7.17851e-05
0.000412807
-6.41318e-05
0.000447815
-5.57636e-05
0.000485678
-4.65929e-05
0.000526557
-3.65381e-05
0.000570635
-2.55395e-05
0.000618111
-1.35472e-05
0.000669131
-5.21027e-07
0.000723825
1.34953e-05
0.000782321
2.84168e-05
0.000844639
4.41473e-05
0.000910617
6.06448e-05
0.00097985
7.79534e-05
0.00105148
9.62852e-05
0.00112384
0.000115962
0.0011941
0.000137311
0.00125793
0.000160426
0.00130958
0.000185062
0.00134241
0.000210579
0.00134984
0.000236111
0.00132586
0.000260676
0.0012648
0.000283379
0.00115949
0.000303482
0.000999345
0.000320624
0.000773278
0.000298972
0.000511376
-9.06961e-05
0.000196318
-0.000159826
2.58109e-05
0.000160368
-0.000159242
2.79245e-05
-0.000158586
3.02127e-05
-0.000157869
3.26961e-05
-0.000157069
3.53904e-05
-0.0001562
3.83146e-05
-0.000155238
4.14892e-05
-0.000154199
4.49369e-05
-0.000153059
4.868e-05
-0.000151834
5.27445e-05
-0.000150501
5.71604e-05
-0.000149079
6.19575e-05
-0.000147542
6.71686e-05
-0.000145907
7.28247e-05
-0.000144149
7.89671e-05
-0.000142286
8.56469e-05
-0.000140294
9.29036e-05
-0.000138178
0.000100773
-0.000135917
0.000109327
-0.000133521
0.000118631
-0.000130958
0.000128721
-0.000128228
0.000139685
-0.000125316
0.000151618
-0.000122196
0.000164545
-0.000118862
0.000178625
-0.000115292
0.000193908
-0.00011146
0.000210507
-0.000107354
0.000228556
-0.000102938
0.000248129
-9.82047e-05
0.000269413
-9.31056e-05
0.00029248
-8.76197e-05
0.000317535
-8.17023e-05
0.000344682
-7.53218e-05
0.000374104
-6.84415e-05
0.000405976
-6.09959e-05
0.00044042
-5.29491e-05
0.000477686
-4.42347e-05
0.000517901
-3.47845e-05
0.000561247
-2.45483e-05
0.000607941
-1.34694e-05
0.000658122
-1.48743e-06
0.00071192
1.14012e-05
0.000769512
2.51914e-05
0.00083094
3.9901e-05
0.000896005
5.56241e-05
0.00096425
7.25218e-05
0.00103473
9.0869e-05
0.00110569
0.00011096
0.00117428
0.000133006
0.00123625
0.000156924
0.00128613
0.000182274
0.00131768
0.000208278
0.00132463
0.000234022
0.00130112
0.000258557
0.00124139
0.000281135
0.00113836
0.000301024
0.000981491
0.00031516
0.000761893
0.000330159
0.000499818
-8.2996e-05
0.00032644
-0.000159715
2.53668e-05
0.000160173
-0.000159222
2.74327e-05
-0.000158667
2.96688e-05
-0.000158061
3.20933e-05
-0.00015738
3.47219e-05
-0.000156637
3.75732e-05
-0.000155803
4.06677e-05
-0.000154892
4.4028e-05
-0.000153875
4.76755e-05
-0.000152766
5.16365e-05
-0.000151534
5.59423e-05
-0.000150197
6.06224e-05
-0.000148723
6.57103e-05
-0.000147129
7.1235e-05
-0.000145385
7.72396e-05
-0.00014351
8.37796e-05
-0.00014148
9.08916e-05
-0.000139302
9.86037e-05
-0.000136954
0.000106998
-0.000134451
0.000116139
-0.000131763
0.000126051
-0.000128894
0.000136829
-0.000125831
0.000148573
-0.000122552
0.000161282
-0.000119052
0.000175144
-0.000115312
0.000190188
-0.00011131
0.000206527
-0.000107036
0.000224305
-0.000102457
0.000243574
-9.75695e-05
0.000264547
-9.23291e-05
0.000287264
-8.67196e-05
0.000311957
-8.0704e-05
0.000338705
-7.42582e-05
0.000367702
-6.73572e-05
0.000399121
-5.9947e-05
0.000433058
-5.20059e-05
0.000469796
-4.3481e-05
0.000509429
-3.43162e-05
0.000552137
-2.44676e-05
0.000598149
-1.38761e-05
0.000647589
-2.46837e-06
0.000700574
9.80713e-06
0.000757296
2.30238e-05
0.000817788
3.72808e-05
0.000881809
5.27503e-05
0.000948848
6.96425e-05
0.0010179
8.82272e-05
0.00108719
0.000108724
0.00115389
0.000131221
0.0012139
0.000155497
0.00126203
0.000181013
0.00129237
0.000206963
0.00129892
0.000232458
0.00127592
0.000256621
0.00121747
0.00027878
0.00111645
0.000298203
0.000962272
0.000312292
0.000747954
0.000320859
0.000491141
-6.5682e-05
0.00030296
-0.000157916
2.49563e-05
0.000158354
-0.000157464
2.69857e-05
-0.00015696
2.91812e-05
-0.000156421
3.15595e-05
-0.000155819
3.41361e-05
-0.000155171
3.69288e-05
-0.000154446
3.99575e-05
-0.000153659
4.32441e-05
-0.000152778
4.68089e-05
-0.000151817
5.06775e-05
-0.000150741
5.48818e-05
-0.000149567
5.94506e-05
-0.000148258
6.44175e-05
-0.000146827
6.98094e-05
-0.000145241
7.56707e-05
-0.000143515
8.20614e-05
-0.000141621
8.90159e-05
-0.000139564
9.65556e-05
-0.000137319
0.000104772
-0.0001349
0.000113731
-0.000132276
0.000123445
-0.00012945
0.000134017
-0.000126412
0.000145553
-0.000123141
0.000158026
-0.000119633
0.000171655
-0.000115871
0.000186444
-0.000111835
0.000202512
-0.000107516
0.00022001
-0.000102887
0.000238966
-9.79435e-05
0.000259624
-9.26453e-05
0.000281988
-8.69777e-05
0.000306319
-8.09082e-05
0.000332673
-7.44177e-05
0.000361252
-6.74866e-05
0.000392234
-6.00679e-05
0.000425686
-5.21471e-05
0.000461925
-4.36794e-05
0.000501015
-3.4615e-05
0.00054313
-2.49151e-05
0.000588512
-1.45199e-05
0.000637261
-3.35143e-06
0.00068948
8.67232e-06
0.000745351
2.16767e-05
0.000804873
3.58037e-05
0.000867776
5.12576e-05
0.00093351
6.82544e-05
0.00100104
8.70375e-05
0.00106858
0.000107758
0.00113339
0.000130414
0.00119155
0.000154711
0.00123812
0.000180072
0.00126751
0.000205706
0.00127394
0.000230766
0.00125168
0.000254436
0.00119474
0.000276075
0.00109605
0.000294922
0.000945192
0.000308615
0.000736683
0.000316341
0.000486584
-4.93094e-05
0.000303687
-0.000155635
2.45526e-05
0.000156057
-0.000155197
2.65492e-05
-0.000154712
2.8709e-05
-0.000154197
3.10477e-05
-0.000153627
3.35803e-05
-0.00015302
3.6324e-05
-0.000152347
3.92979e-05
-0.000151624
4.25232e-05
-0.00015082
4.60187e-05
-0.000149951
4.98089e-05
-0.000148981
5.3926e-05
-0.000147926
5.83974e-05
-0.000146749
6.32563e-05
-0.000145463
6.85267e-05
-0.000144029
7.4254e-05
-0.000142462
8.0502e-05
-0.000140731
8.73023e-05
-0.000138836
9.46697e-05
-0.00013675
0.000102705
-0.000134484
0.000111476
-0.000132004
0.000120983
-0.000129312
0.000131337
-0.000126394
0.000142652
-0.000123229
0.000154875
-0.000119814
0.000168257
-0.00011613
0.000182778
-0.000112159
0.000198561
-0.000107893
0.000215765
-0.000103304
0.000234398
-9.8391e-05
0.000254728
-9.31128e-05
0.000276731
-8.74579e-05
0.000300692
-8.13947e-05
0.000326645
-7.49065e-05
0.000354803
-6.79768e-05
0.000385346
-6.05622e-05
0.000418315
-5.26519e-05
0.00045406
-4.42052e-05
0.000492616
-3.51765e-05
0.000534151
-2.55296e-05
0.000578917
-1.52058e-05
0.00062699
-4.1253e-06
0.000678455
7.81127e-06
0.000733469
2.07602e-05
0.000791982
3.4885e-05
0.000853702
5.0397e-05
0.000918053
6.74998e-05
0.000983984
8.64045e-05
0.00104974
0.000107203
0.00111265
0.000129835
0.00116899
0.000153965
0.00121408
0.000179007
0.00124257
0.000204204
0.00124885
0.000228756
0.00122726
0.000251894
0.00117167
0.00027299
0.001075
0.000291215
0.000926919
0.000304429
0.000723298
0.000310934
0.000479557
-3.96479e-05
0.00030021
-0.000153171
2.41558e-05
0.000153595
-0.000152739
2.61214e-05
-0.000152261
2.82477e-05
-0.000151759
3.05498e-05
-0.000151204
3.30422e-05
-0.000150619
3.57416e-05
-0.000149973
3.86668e-05
-0.000149285
4.18381e-05
-0.000148525
4.52729e-05
-0.000147709
4.89946e-05
-0.000146803
5.30354e-05
-0.000145825
5.74215e-05
-0.000144737
6.21849e-05
-0.000143553
6.73466e-05
-0.000142234
7.29524e-05
-0.000140795
7.90695e-05
-0.000139201
8.57261e-05
-0.000137452
9.293e-05
-0.00013552
0.00010079
-0.00013341
0.000109378
-0.000131089
0.000118678
-0.000128553
0.000128813
-0.000125789
0.000139904
-0.000122771
0.000151872
-0.000119496
0.000164998
-0.000115943
0.000179243
-0.000112094
0.00019473
-0.000107938
0.000211631
-0.00010345
0.000229929
-9.86254e-05
0.000249921
-9.34264e-05
0.000271549
-8.78387e-05
0.00029513
-8.18324e-05
0.000320672
-7.53911e-05
0.000348399
-6.84991e-05
0.000378494
-6.11143e-05
0.000410973
-5.32274e-05
0.000446219
-4.47996e-05
0.000484237
-3.57869e-05
0.000525193
-2.61553e-05
0.000569344
-1.58471e-05
0.000616746
-4.78217e-06
0.000667463
7.14654e-06
0.000721617
2.01111e-05
0.000779107
3.42817e-05
0.000839625
4.98644e-05
0.000902585
6.70401e-05
0.000966933
8.59883e-05
0.00103096
0.000106752
0.00109209
0.000129231
0.00114678
0.00015307
0.00119058
0.000177695
0.00121838
0.000202389
0.00122472
0.000226398
0.00120397
0.000248991
0.00114991
0.000269545
0.00105554
0.000287177
0.000910881
0.000299949
0.000712719
0.000305444
0.000476955
-2.70164e-05
0.000296229
-0.000150672
2.37623e-05
0.000151086
-0.000150245
2.56969e-05
-0.000149773
2.779e-05
-0.000149276
3.00562e-05
-0.000148728
3.25099e-05
-0.000148152
3.51674e-05
-0.000147518
3.80469e-05
-0.000146848
4.11685e-05
-0.000146108
4.4548e-05
-0.000145322
4.8208e-05
-0.000144452
5.21807e-05
-0.00014352
5.64907e-05
-0.000142488
6.11691e-05
-0.000141372
6.62336e-05
-0.000140132
7.17301e-05
-0.000138786
7.77287e-05
-0.000137295
8.4254e-05
-0.000135663
9.13064e-05
-0.000133858
9.90031e-05
-0.000131885
0.000107416
-0.000129708
0.000116518
-0.000127323
0.00012644
-0.000124712
0.00013731
-0.00012185
0.000149024
-0.000118729
0.000161893
-0.000115328
0.000175858
-0.000111625
0.000191046
-0.000107611
0.000207636
-0.000103257
0.000225593
-9.85588e-05
0.000245238
-9.34755e-05
0.000266484
-8.79943e-05
0.000289673
-8.20831e-05
0.000314793
-7.57249e-05
0.000342077
-6.89034e-05
0.00037171
-6.15763e-05
0.000403685
-5.37337e-05
0.000438418
-4.5337e-05
0.000475884
-3.63426e-05
0.000516243
-2.67173e-05
0.000559765
-1.64041e-05
0.000606481
-5.32387e-06
0.000656433
6.63179e-06
0.00070971
1.96381e-05
0.000766151
3.38631e-05
0.000825442
4.94987e-05
0.000886995
6.67002e-05
0.000949766
8.5617e-05
0.00101208
0.000106252
0.00107149
0.000128482
0.00112459
0.000151948
0.00116716
0.000176094
0.00119427
0.00020025
0.0012006
0.000223704
0.00118055
0.000245754
0.00112782
0.00026578
0.00103541
0.000282861
0.000893595
0.0002952
0.000700005
0.000299905
0.000471429
-2.03613e-05
0.000291825
-0.000148133
2.33742e-05
0.000148548
-0.000147711
2.52784e-05
-0.000147243
2.73389e-05
-0.000146753
2.95699e-05
-0.000146212
3.19858e-05
-0.000145645
3.46025e-05
-0.00014502
3.74379e-05
-0.000144362
4.05119e-05
-0.000143638
4.38388e-05
-0.00014287
4.74408e-05
-0.000142024
5.13499e-05
-0.000141122
5.55896e-05
-0.000140126
6.01901e-05
-0.000139055
6.51656e-05
-0.00013787
7.05623e-05
-0.000136588
7.64527e-05
-0.000135174
8.28578e-05
-0.00013363
8.97703e-05
-0.000131924
9.73149e-05
-0.000130062
0.000105564
-0.000128006
0.00011448
-0.000125752
0.000124198
-0.00012328
0.000134854
-0.000120563
0.00014632
-0.000117591
0.000158937
-0.000114342
0.000172625
-0.000110792
0.000187513
-0.000106929
0.000203792
-0.000102724
0.000221404
-9.81686e-05
0.000240698
-9.32242e-05
0.000261554
-8.78728e-05
0.000284345
-8.20825e-05
0.000309032
-7.58341e-05
0.000335862
-6.91098e-05
0.000365022
-6.18658e-05
0.00039648
-5.40904e-05
0.000430685
-4.57441e-05
0.000467583
-3.67826e-05
0.000507332
-2.71723e-05
0.000550211
-1.68572e-05
0.000596228
-5.7587e-06
0.000645405
6.22751e-06
0.0006978
1.92721e-05
0.000753197
3.35333e-05
0.000811273
4.9187e-05
0.000871458
6.63605e-05
0.000932714
8.51789e-05
0.000993426
0.000105612
0.00105124
0.000127524
0.00110292
0.000150562
0.00114443
0.000174198
0.00117103
0.000197803
0.00117751
0.000220705
0.0011583
0.000242226
0.00110706
0.000261743
0.0010169
0.000278324
0.000878507
0.000290238
0.000690148
0.000294341
0.000470019
-1.0114e-05
0.000287248
-0.000145621
2.29909e-05
0.000146028
-0.000145206
2.48645e-05
-0.000144743
2.68921e-05
-0.000144258
2.90879e-05
-0.000143722
3.1466e-05
-0.000143161
3.40422e-05
-0.000142542
3.68342e-05
-0.000141891
3.98616e-05
-0.000141175
4.31378e-05
-0.000140419
4.6684e-05
-0.000139586
5.05328e-05
-0.000138703
5.47063e-05
-0.00013773
5.92338e-05
-0.000136688
6.41264e-05
-0.000135539
6.94305e-05
-0.000134302
7.52211e-05
-0.000132941
8.15152e-05
-0.000131461
8.8298e-05
-0.00012983
9.57014e-05
-0.000128054
0.000103798
-0.000126095
0.000112538
-0.000123949
0.000122063
-0.000121595
0.000132516
-0.000119005
0.000143744
-0.000116169
0.000156116
-0.00011306
0.000169532
-0.000109656
0.000184126
-0.000105942
0.000200096
-0.000101885
0.000217365
-9.74803e-05
0.000236305
-9.26811e-05
0.000256771
-8.7472e-05
0.000279157
-8.18171e-05
0.000303406
-7.56956e-05
0.000329773
-6.90874e-05
0.000358448
-6.19467e-05
0.000389375
-5.42596e-05
0.000423035
-4.59844e-05
0.000459347
-3.70757e-05
0.000498464
-2.74988e-05
0.000540677
-1.71981e-05
0.000585969
-6.09578e-06
0.000634348
5.90583e-06
0.000685839
1.89667e-05
0.000740182
3.32323e-05
0.00079704
4.88604e-05
0.000855872
6.59535e-05
0.000915641
8.46148e-05
0.000974801
0.00010479
0.00103107
0.000126336
0.00108139
0.000148914
0.00112186
0.000172026
0.00114792
0.000195081
0.00115444
0.000217446
0.0011359
0.000238457
0.00108592
0.000257489
0.000997658
0.000273605
0.000862056
0.000285114
0.000678085
0.000288798
0.000465238
-5.66942e-06
0.000282589
-0.000143109
2.26129e-05
0.000143514
-0.000142699
2.44565e-05
-0.000142241
2.64519e-05
-0.000141763
2.8613e-05
-0.000141234
3.09538e-05
-0.00014068
3.349e-05
-0.000140069
3.62391e-05
-0.000139427
3.92206e-05
-0.000138721
4.24466e-05
-0.000137975
4.59382e-05
-0.000137155
4.97281e-05
-0.000136286
5.38374e-05
-0.000135331
5.82948e-05
-0.00013431
6.31084e-05
-0.000133187
6.83246e-05
-0.000131982
7.40212e-05
-0.00013066
8.02113e-05
-0.000129227
8.68725e-05
-0.000127652
9.41435e-05
-0.000125942
0.000102097
-0.000124059
0.000110671
-0.000121999
0.000120014
-0.000119743
0.000130274
-0.00011726
0.000141274
-0.00011454
0.00015341
-0.000111557
0.000166564
-0.000108286
0.00018087
-0.00010471
0.000196537
-0.000100796
0.000213466
-9.65345e-05
0.000232057
-9.18825e-05
0.00025213
-8.68177e-05
0.000274112
-8.13043e-05
0.000297919
-7.53192e-05
0.000323818
-6.88393e-05
0.000352001
-6.18171e-05
0.000382388
-5.42352e-05
0.000415492
-4.60508e-05
0.000451205
-3.72154e-05
0.000489677
-2.76944e-05
0.000531208
-1.74302e-05
0.000575767
-6.34848e-06
0.000623334
5.64343e-06
0.000673924
1.86885e-05
0.000727225
3.29211e-05
0.000782902
4.84779e-05
0.000840429
6.54429e-05
0.000898799
8.38976e-05
0.00095651
0.000103773
0.00101137
0.000124923
0.00106046
0.000147025
0.00110004
0.000169611
0.0011257
0.000192129
0.00113239
0.000213973
0.00111465
0.000234496
0.00106609
0.000253069
0.000980008
0.00026876
0.000847762
0.0002799
0.000668879
0.000283274
0.000464356
2.5649e-06
0.000277943
-0.000140642
2.22411e-05
0.000141038
-0.000140239
2.40545e-05
-0.000139787
2.60174e-05
-0.000139315
2.81438e-05
-0.000138792
3.04473e-05
-0.000138245
3.29435e-05
-0.00013764
3.565e-05
-0.000137005
3.85858e-05
-0.000136305
4.17624e-05
-0.000135569
4.52002e-05
-0.000134757
4.89324e-05
-0.000133899
5.29792e-05
-0.000132957
5.73686e-05
-0.000131952
6.21058e-05
-0.000130848
6.72376e-05
-0.000129667
7.28444e-05
-0.000128373
7.89356e-05
-0.000126975
8.54815e-05
-0.000125441
9.26273e-05
-0.000123782
0.000100446
-0.000121958
0.000108864
-0.000119967
0.000118034
-0.000117789
0.000128111
-0.000115395
0.000138892
-0.000112774
0.000150804
-0.000109899
0.000163704
-0.000106745
0.000177731
-0.000103293
0.000193102
-9.95096e-05
0.000209699
-9.53857e-05
0.000227942
-9.08722e-05
0.00024763
-8.59494e-05
0.000269208
-8.05775e-05
0.000292573
-7.47314e-05
0.000318002
-6.83863e-05
0.000345687
-6.14919e-05
0.000375527
-5.40287e-05
0.000408064
-4.59507e-05
0.000443162
-3.72082e-05
0.000480972
-2.77646e-05
0.000521802
-1.75621e-05
0.000565603
-6.52739e-06
0.000612339
5.4242e-06
0.00066201
1.84197e-05
0.000714267
3.258e-05
0.00076877
4.80236e-05
0.000825018
6.48183e-05
0.00088202
8.30275e-05
0.000938328
0.000102573
0.000991833
0.000123308
0.00103972
0.00014493
0.00107841
0.000166997
0.00110359
0.000188992
0.00111034
0.000210336
0.00109322
0.000230395
0.00104585
0.000248533
0.000961577
0.000263821
0.000832048
0.00027464
0.000657379
0.000277789
0.000459922
5.04356e-06
0.000273305
-0.000138189
2.18744e-05
0.000138582
-0.000137791
2.36583e-05
-0.000137346
2.55897e-05
-0.000136881
2.76819e-05
-0.000136365
2.99487e-05
-0.000135826
3.24056e-05
-0.00013523
3.50698e-05
-0.000134605
3.79604e-05
-0.000133915
4.10878e-05
-0.000133188
4.44722e-05
-0.000132388
4.81472e-05
-0.000131542
5.21323e-05
-0.000130612
5.64547e-05
-0.000129622
6.11172e-05
-0.000128534
6.61668e-05
-0.000127372
7.16866e-05
-0.000126101
7.76825e-05
-0.000124731
8.41175e-05
-0.00012323
9.11437e-05
-0.000121609
9.88345e-05
-0.000119832
0.000107102
-0.000117896
0.000116108
-0.000115781
0.00012601
-0.000113461
0.000136584
-0.000110922
0.000148279
-0.000108139
0.000160935
-0.000105087
0.000174693
-0.000101745
0.000189777
-9.80807e-05
0.000206048
-9.40796e-05
0.000223954
-8.96984e-05
0.000243259
-8.49098e-05
0.000264437
-7.96755e-05
0.000287363
-7.39674e-05
0.000312322
-6.77593e-05
0.000339509
-6.0998e-05
0.000368799
-5.36626e-05
0.000400764
-4.57035e-05
0.000435245
-3.70705e-05
0.000472384
-2.77242e-05
0.000512508
-1.7607e-05
0.000555544
-6.6465e-06
0.000601445
5.23458e-06
0.000650205
1.81465e-05
0.000701442
3.21983e-05
0.000754813
4.74909e-05
0.000809839
6.40807e-05
0.000865557
8.2014e-05
0.00092056
0.000101209
0.000972819
0.00012152
0.00101963
0.000142663
0.00105754
0.000164224
0.00108238
0.000185714
0.0010893
0.000206579
0.00107291
0.000226196
0.00102689
0.000243922
0.000944724
0.000258832
0.000818477
0.000269378
0.000648703
0.000272321
0.000459343
1.13569e-05
0.000268714
-0.000135787
2.15144e-05
0.000136173
-0.000135397
2.32688e-05
-0.000134959
2.51684e-05
-0.000134501
2.72265e-05
-0.000133992
2.94567e-05
-0.00013346
3.18743e-05
-0.000132871
3.44965e-05
-0.000132253
3.73423e-05
-0.000131571
4.04211e-05
-0.000130853
4.37528e-05
-0.000130062
4.73713e-05
-0.000129226
5.12954e-05
-0.000128308
5.55519e-05
-0.00012733
6.01411e-05
-0.000126256
6.51101e-05
-0.000125111
7.0545e-05
-0.000123859
7.64483e-05
-0.000122512
8.27759e-05
-0.000121038
8.96866e-05
-0.000119449
9.7254e-05
-0.000117709
0.000105378
-0.000115818
0.000114226
-0.000113755
0.000123962
-0.000111495
0.000134335
-0.000109025
0.000145823
-0.000106321
0.000158244
-0.000103356
0.000171742
-0.000100111
0.000186547
-9.65504e-05
0.000202503
-9.26648e-05
0.000220076
-8.84021e-05
0.000239008
-8.37406e-05
0.000259792
-7.86367e-05
0.000282284
-7.30632e-05
0.000306776
-6.69901e-05
0.000333466
-6.03646e-05
0.000362204
-5.31616e-05
0.000393593
-4.53312e-05
0.000427447
-3.68201e-05
0.000463908
-2.75884e-05
0.00050331
-1.75771e-05
0.000545568
-6.71586e-06
0.000590618
5.06649e-06
0.000638456
1.78642e-05
0.000688675
3.17755e-05
0.000740927
4.68856e-05
0.000794754
6.32425e-05
0.000849213
8.08776e-05
0.000902947
9.97093e-05
0.000953979
0.000119593
0.000999724
0.000140264
0.00103684
0.000161332
0.00106125
0.000182337
0.00106821
0.000202743
0.00105237
0.000221937
0.00100745
0.000239273
0.000927024
0.000253824
0.00080342
0.000264127
0.0006376
0.000266893
0.00045512
1.19177e-05
0.000264118
-0.000133407
2.11592e-05
0.000133789
-0.000133022
2.2885e-05
-0.00013259
2.47537e-05
-0.00013214
2.67785e-05
-0.000131638
2.89728e-05
-0.000131116
3.13518e-05
-0.000130536
3.39326e-05
-0.000129929
3.67339e-05
-0.000129257
3.97645e-05
-0.00012855
4.30438e-05
-0.00012777
4.66063e-05
-0.000126947
5.04699e-05
-0.00012604
5.46611e-05
-0.000125076
5.91777e-05
-0.000124017
6.40673e-05
-0.000122888
6.94188e-05
-0.000121654
7.52313e-05
-0.000120326
8.14541e-05
-0.000118876
8.82524e-05
-0.000117314
9.57002e-05
-0.000115606
0.000103686
-0.000113752
0.000112381
-0.000111733
0.000121956
-0.000109523
0.000132137
-0.000107113
0.000143425
-0.000104475
0.000155621
-0.000101586
0.000168866
-9.84247e-05
0.000183403
-9.49597e-05
0.00019905
-9.11733e-05
0.000216302
-8.70226e-05
0.000234866
-8.24775e-05
0.000255264
-7.74972e-05
0.000277328
-7.20523e-05
0.000301358
-6.61117e-05
0.000327555
-5.96213e-05
0.000355745
-5.25539e-05
0.000386561
-4.48579e-05
0.000419789
-3.64789e-05
0.000455573
-2.73752e-05
0.000494256
-1.74877e-05
0.000535739
-6.74722e-06
0.000579943
4.91165e-06
0.000626873
1.75683e-05
0.000676103
3.13125e-05
0.000727281
4.62139e-05
0.000779962
6.23172e-05
0.000833243
7.96371e-05
0.000885787
9.80988e-05
0.0009357
0.000117557
0.000980476
0.000137765
0.00101689
0.000158357
0.00104098
0.000178894
0.00104809
0.00019886
0.00103293
0.000217651
0.000989276
0.000234616
0.000910875
0.000248834
0.000790475
0.000258925
0.000629308
0.000261533
0.000454741
1.64167e-05
0.000259553
-0.00013108
2.08112e-05
0.000131454
-0.000130703
2.25083e-05
-0.000130278
2.4346e-05
-0.000129835
2.63375e-05
-0.000129341
2.84961e-05
-0.000128826
3.08367e-05
-0.000128253
3.33763e-05
-0.000127655
3.61337e-05
-0.000126992
3.91166e-05
-0.000126295
4.23441e-05
-0.000125525
4.58513e-05
-0.000124712
4.96552e-05
-0.000123817
5.37819e-05
-0.000122866
5.82269e-05
-0.00012182
6.30382e-05
-0.000120706
6.83075e-05
-0.000119489
7.40308e-05
-0.00011818
8.01508e-05
-0.00011675
8.68392e-05
-0.000115213
9.41704e-05
-0.000113533
0.000102021
-0.000111712
0.000110569
-0.00010973
0.000119988
-0.000107564
0.000129982
-0.000105204
0.000141078
-0.000102625
0.000153055
-9.98015e-05
0.000166057
-9.67158e-05
0.000180332
-9.33323e-05
0.000195681
-8.96404e-05
0.000212617
-8.55884e-05
0.000230826
-8.11517e-05
0.000250845
-7.62875e-05
0.000272487
-7.09645e-05
0.000296063
-6.51523e-05
0.000321771
-5.87943e-05
0.000349418
-5.18633e-05
0.000379659
-4.43049e-05
0.000412263
-3.60649e-05
0.000447364
-2.70994e-05
0.000485323
-1.735e-05
0.000526021
-6.74792e-06
0.000569372
4.76622e-06
0.000615387
1.72603e-05
0.000663635
3.0815e-05
0.000713746
4.54886e-05
0.000765307
6.13219e-05
0.00081742
7.83164e-05
0.000868804
9.64052e-05
0.000917604
0.000115443
0.000961407
0.0001352
0.000997082
0.000155331
0.00102077
0.000175417
0.00102789
0.00019496
0.00101322
0.000213363
0.000970593
0.000229975
0.000893847
0.000243883
0.000775998
0.000253783
0.00061853
0.000256283
0.000450678
1.53502e-05
0.000255
-0.000128778
2.04676e-05
0.000129148
-0.000128407
2.21369e-05
-0.000127987
2.39446e-05
-0.000127552
2.59037e-05
-0.000127066
2.80273e-05
-0.00012656
3.03303e-05
-0.000125997
3.28294e-05
-0.000125409
3.55434e-05
-0.000124757
3.84791e-05
-0.000124072
4.16553e-05
-0.000123313
4.51076e-05
-0.000122514
4.88522e-05
-0.000121632
5.29151e-05
-0.000120695
5.72892e-05
-0.000119664
6.20231e-05
-0.000118565
6.72112e-05
-0.000117364
7.28467e-05
-0.000116074
7.88656e-05
-0.000114665
8.54461e-05
-0.000113151
9.26632e-05
-0.000111496
0.000100382
-0.000109704
0.000108786
-0.000107756
0.000118054
-0.000105629
0.000127867
-0.000103314
0.000138775
-0.000100786
0.00015054
-9.80218e-05
0.000163306
-9.5002e-05
0.000177328
-9.1695e-05
0.000192387
-8.80839e-05
0.000209019
-8.41254e-05
0.000226876
-7.97887e-05
0.000246525
-7.50324e-05
0.000267755
-6.98259e-05
0.000290884
-6.41365e-05
0.00031611
-5.79086e-05
0.00034322
-5.11123e-05
0.000372896
-4.36937e-05
0.000404881
-3.55967e-05
0.00043931
-2.67776e-05
0.000476552
-1.71766e-05
0.000516476
-6.72783e-06
0.000558986
4.62563e-06
0.00060411
1.69387e-05
0.000651404
3.02878e-05
0.000700497
4.47177e-05
0.000750985
6.02711e-05
0.000802005
7.69336e-05
0.000852295
9.465e-05
0.000900073
0.000113275
0.000942993
0.000132592
0.000978024
0.000152277
0.00100141
0.000171929
0.00100865
0.000191065
0.000994591
0.000209093
0.000953156
0.000225368
0.000878359
0.000238993
0.000763611
0.000248725
0.000610571
0.000251158
0.000450402
1.83741e-05
0.000250508
-0.000126529
2.01315e-05
0.000126891
-0.000126166
2.17728e-05
-0.000125753
2.35505e-05
-0.000125326
2.54772e-05
-0.000124846
2.7566e-05
-0.000124349
2.98316e-05
-0.000123794
3.22907e-05
-0.000123215
3.49618e-05
-0.000122571
3.78509e-05
-0.000121896
4.09766e-05
-0.000121148
4.43748e-05
-0.00012036
4.8061e-05
-0.00011949
5.20608e-05
-0.000118567
5.63649e-05
-0.000117549
6.10224e-05
-0.000116467
6.61304e-05
-0.000115282
7.16791e-05
-0.00011401
7.75984e-05
-0.000112621
8.40728e-05
-0.000111128
9.11777e-05
-0.000109498
9.87673e-05
-0.000107733
0.000107031
-0.000105817
0.000116151
-0.000103726
0.000125787
-0.000101451
0.000136514
-9.89697e-05
0.000148072
-9.62583e-05
0.000160609
-9.32994e-05
0.000174385
-9.00587e-05
0.000189162
-8.65264e-05
0.000205494
-8.26509e-05
0.000223013
-7.84078e-05
0.000242299
-7.37529e-05
0.000263125
-6.86562e-05
0.000285814
-6.30846e-05
0.000310567
-5.69827e-05
0.000337146
-5.03192e-05
0.000366262
-4.30401e-05
0.000397631
-3.50886e-05
0.000431388
-2.64206e-05
0.000467912
-1.69762e-05
0.000507061
-6.6912e-06
0.000548726
4.48818e-06
0.000592957
1.66072e-05
0.000639303
2.97377e-05
0.000687386
4.39141e-05
0.000736815
5.91803e-05
0.00078675
7.55085e-05
0.00083596
9.28552e-05
0.000882713
0.000111076
0.00092473
0.000129966
0.000959067
0.000149219
0.000982054
0.000168452
0.000989278
0.000187193
0.000975659
0.000204861
0.000935172
0.000220812
0.000861946
0.000234168
0.00074963
0.000243755
0.000600024
0.000246166
0.000446323
1.60258e-05
0.00024605
-0.000124306
1.97993e-05
0.000124664
-0.000123948
2.14137e-05
-0.000123542
2.31623e-05
-0.000123122
2.50576e-05
-0.00012265
2.71125e-05
-0.000122162
2.93415e-05
-0.000121617
3.17613e-05
-0.000121048
3.43901e-05
-0.000120416
3.72333e-05
-0.000119753
4.0309e-05
-0.000119017
4.36535e-05
-0.000118242
4.7282e-05
-0.000117386
5.12194e-05
-0.000116477
5.54542e-05
-0.000115475
6.00362e-05
-0.000114408
6.50651e-05
-0.000113241
7.05282e-05
-0.000111987
7.63492e-05
-0.000110617
8.27191e-05
-0.000109146
8.97138e-05
-0.00010754
9.71764e-05
-0.000105802
0.000105302
-0.000103915
0.000114278
-0.000101857
0.000123741
-9.96208e-05
0.00013429
-9.71823e-05
0.000145647
-9.45201e-05
0.00015796
-9.16161e-05
0.000171496
-8.84401e-05
0.000185998
-8.49754e-05
0.000202041
-8.11809e-05
0.000219225
-7.70239e-05
0.000238159
-7.24647e-05
0.000258589
-6.74721e-05
0.000280848
-6.20138e-05
0.000305136
-5.60336e-05
0.000331195
-4.95006e-05
0.00035976
-4.23598e-05
0.000390525
-3.45548e-05
0.000423623
-2.60409e-05
0.000459445
-1.67586e-05
0.000497833
-6.6451e-06
0.000538674
4.35059e-06
0.000582036
1.62658e-05
0.000627467
2.91689e-05
0.000674584
4.30848e-05
0.000723003
5.80603e-05
0.000771916
7.40544e-05
0.000820108
9.10361e-05
0.000865913
0.000108861
0.000907109
0.000127337
0.000940839
0.000146173
0.000963526
0.000164999
0.000970842
0.000183358
0.00095778
0.000200675
0.000918416
0.000216315
0.000847052
0.000229421
0.000737711
0.000238888
0.000592287
0.000241311
0.000445973
1.78916e-05
0.00024167
-0.000122135
1.94752e-05
0.000122487
-0.000121785
2.10626e-05
-0.000121386
2.27821e-05
-0.000120974
2.4646e-05
-0.00012051
2.66671e-05
-0.00012003
2.88599e-05
-0.000119492
3.12407e-05
-0.000118933
3.38278e-05
-0.00011831
3.66256e-05
-0.000117657
3.9652e-05
-0.000116932
4.29438e-05
-0.000116169
4.65153e-05
-0.000115325
5.03911e-05
-0.00011443
5.45576e-05
-0.000113442
5.9065e-05
-0.000112391
6.40157e-05
-0.000111241
6.93942e-05
-0.000110005
7.51183e-05
-0.000108655
8.13851e-05
-0.000107205
8.82711e-05
-0.000105623
9.56088e-05
-0.000103911
0.000103598
-0.000102052
0.000112432
-0.000100027
0.000121727
-9.78262e-05
0.000132102
-9.54285e-05
0.000143262
-9.28123e-05
0.000155357
-8.99608e-05
0.000168658
-8.68417e-05
0.000182892
-8.34462e-05
0.00019865
-7.9723e-05
0.000215513
-7.56485e-05
0.000234099
-7.11794e-05
0.000254143
-6.62859e-05
0.00027598
-6.09358e-05
0.000299812
-5.50735e-05
0.000325359
-4.86675e-05
0.00035338
-4.16632e-05
0.000383547
-3.40043e-05
0.00041599
-2.56457e-05
0.000451111
-1.65289e-05
0.000488741
-6.59202e-06
0.000528758
4.21316e-06
0.000571252
1.59182e-05
0.000615774
2.85878e-05
0.000661929
4.22401e-05
0.000709348
5.69232e-05
0.000757241
7.25861e-05
0.000804419
8.92083e-05
0.000849267
0.000106648
0.000889617
0.000124722
0.000922688
0.000143152
0.000944983
0.000161585
0.000952258
0.000179572
0.00093958
0.000196549
0.000901097
0.000211887
0.000831216
0.000224752
0.00072418
0.000234119
0.000581896
0.00023659
0.000441789
1.46048e-05
0.00023734
-0.000119993
1.91551e-05
0.00012034
-0.00011965
2.07163e-05
-0.000119257
2.24075e-05
-0.000118852
2.42409e-05
-0.000118396
2.6229e-05
-0.000117925
2.83862e-05
-0.000117397
3.07287e-05
-0.000116847
3.32747e-05
-0.000116235
3.60278e-05
-0.000115594
3.90056e-05
-0.000114881
4.22452e-05
-0.000114131
4.57604e-05
-0.000113301
4.95755e-05
-0.00011242
5.36746e-05
-0.000111448
5.81084e-05
-0.000110413
6.2982e-05
-0.00010928
6.82771e-05
-0.000108063
7.39057e-05
-0.000106733
8.00708e-05
-0.000105305
8.68497e-05
-0.000103746
9.40643e-05
-0.000102059
0.00010192
-0.000100229
0.000110615
-9.82351e-05
0.000119743
-9.60694e-05
0.000129947
-9.37107e-05
0.000140915
-9.11385e-05
0.000152796
-8.83359e-05
0.000165869
-8.52744e-05
0.000179839
-8.19379e-05
0.000195322
-7.82867e-05
0.000211865
-7.4289e-05
0.000230115
-6.99057e-05
0.000249781
-6.51073e-05
0.000271206
-5.98613e-05
0.000294592
-5.41131e-05
0.000319637
-4.78311e-05
0.000347127
-4.09609e-05
0.00037671
-3.34469e-05
0.000408514
-2.52439e-05
0.000442952
-1.62941e-05
0.000479843
-6.53705e-06
0.00051906
4.07346e-06
0.000560714
1.55642e-05
0.00060436
2.79972e-05
0.000649596
4.13845e-05
0.000696062
5.5776e-05
0.00074299
7.1112e-05
0.000789216
8.73813e-05
0.000833175
0.000104445
0.000872756
0.000122128
0.000905251