/*--------------------------------*- C++ -*----------------------------------*\
  =========                 |
  \\      /  F ield         | OpenFOAM: The Open Source CFD Toolbox
   \\    /   O peration     | Website:  https://openfoam.org
    \\  /    A nd           | Version:  6.0
     \\/     M anipulation  |
\*---------------------------------------------------------------------------*/
FoamFile
{
    version     2.0;
    format      ascii;
    class       surfaceScalarField;
    location    "7.2";
    object      phi;
}
// * * * * * * * * * * * * * * * * * * * * * * * * * * * * * * * * * * * * * //

dimensions      [0 3 -1 0 0 0 0];

internalField   nonuniform List<scalar> 
68636
(
3.0229e-05
0.00310561
2.50055e-09
6.08425e-05
0.00307074
9.1091e-05
0.00300251
0.00012048
0.00290143
0.000148623
0.00276854
0.000175172
0.0026053
0.000199816
0.00241352
0.000222268
0.00219533
0.000242271
0.00195313
0.000259598
0.00168959
0.000274053
0.00140758
0.000285472
0.00111018
0.000293735
0.000800696
0.00029872
0.000482279
0.000156923
0.000299708
2.99491e-05
0.00307565
8.51632e-09
6.0285e-05
0.0030404
9.0259e-05
0.00297254
0.000119381
0.00287231
0.000147268
0.00274066
0.000173575
0.002579
0.000197994
0.00238911
0.00022024
0.00217309
0.00024006
0.00193332
0.000257229
0.00167242
0.000271553
0.00139327
0.000282868
0.00109888
0.000291071
0.000792503
0.000295929
0.000477434
0.000155886
0.00029699
2.96715e-05
0.00304596
1.43874e-08
5.97323e-05
0.00301034
8.94345e-05
0.00294283
0.000118292
0.00284345
0.000145926
0.00271303
0.000171994
0.00255293
0.00019619
0.00236492
0.000218234
0.00215105
0.000237874
0.00191368
0.000254886
0.00165541
0.000269079
0.00137907
0.000280288
0.00108766
0.000288418
0.00078437
0.000293274
0.000472571
0.000154637
0.000294507
2.93967e-05
0.00301655
2.00421e-08
5.91849e-05
0.00298055
8.86179e-05
0.0029134
0.000117214
0.00281486
0.000144597
0.00268564
0.000170428
0.0025271
0.000194404
0.00234094
0.000216246
0.00212921
0.000235706
0.00189422
0.000252563
0.00163856
0.000266626
0.00136501
0.000277732
0.00107656
0.000285781
0.000776327
0.000290623
0.000467737
0.000153319
0.000291954
2.91246e-05
0.0029874
2.53691e-08
5.86427e-05
0.00295103
8.78087e-05
0.00288424
0.000116145
0.00278652
0.00014328
0.00265851
0.000168875
0.00250151
0.000192633
0.00231719
0.000214275
0.00210756
0.000233558
0.00187494
0.00025026
0.00162185
0.000264195
0.00135107
0.000275199
0.00106556
0.000283166
0.000768356
0.000287973
0.000462923
0.000151903
0.000289372
2.88551e-05
0.00295851
3.03257e-08
5.81055e-05
0.00292178
8.70069e-05
0.00285534
0.000115086
0.00275844
0.000141974
0.00263162
0.000167337
0.00247614
0.000190877
0.00229365
0.000212322
0.00208612
0.000231429
0.00185584
0.000247979
0.00160531
0.000261786
0.00133727
0.00027269
0.00105465
0.000280577
0.000760471
0.000285344
0.000458161
0.000150464
0.000286791
2.85881e-05
0.00292989
3.49618e-08
5.75731e-05
0.0028928
8.62121e-05
0.0028267
0.000114036
0.00273062
0.000140679
0.00260498
0.000165811
0.00245101
0.000189137
0.00227032
0.000210387
0.00206487
0.000229319
0.0018369
0.000245718
0.0015889
0.0002594
0.00132359
0.000270204
0.00104385
0.000278015
0.000752657
0.000282738
0.000453432
0.000148975
0.000284212
2.83237e-05
0.00290153
3.9231e-08
5.70456e-05
0.00286408
8.54246e-05
0.00279832
0.000112996
0.00270305
0.000139397
0.00257858
0.0001643
0.00242611
0.000187414
0.00224721
0.00020847
0.00204381
0.000227229
0.00181814
0.000243478
0.00157266
0.000257035
0.00131003
0.000267742
0.00103314
0.000275478
0.000744923
0.000280157
0.000448756
0.000147497
0.000281641
2.80618e-05
0.00287342
4.31598e-08
5.65228e-05
0.00283561
8.4644e-05
0.0027702
0.000111965
0.00267573
0.000138125
0.00255242
0.000162802
0.00240143
0.000185705
0.0022243
0.00020657
0.00202295
0.000225158
0.00179955
0.000241259
0.00155655
0.000254692
0.0012966
0.000265302
0.00102253
0.000272966
0.000737256
0.000277601
0.000444116
0.000145998
0.000279086
2.78024e-05
0.00284557
4.68055e-08
5.60048e-05
0.00280741
8.38705e-05
0.00274233
0.000110943
0.00264865
0.000136866
0.0025265
0.000161318
0.00237698
0.000184012
0.00220161
0.000204686
0.00200227
0.000223106
0.00178114
0.00023906
0.0015406
0.000252371
0.00128329
0.000262884
0.00101202
0.000270478
0.000729665
0.00027507
0.000439527
0.00014452
0.000276553
2.75454e-05
0.00281798
5.01959e-08
5.54916e-05
0.00277947
8.31039e-05
0.00271472
0.00010993
0.00262183
0.000135617
0.00250081
0.000159846
0.00235275
0.000182334
0.00217912
0.00020282
0.00198179
0.000221072
0.00176288
0.000236881
0.00152479
0.00025007
0.0012701
0.000260489
0.0010016
0.000268013
0.000722137
0.000272564
0.000434972
0.000143027
0.000274044
2.72909e-05
0.00279063
5.34024e-08
5.49829e-05
0.00275177
8.23442e-05
0.00268736
0.000108926
0.00259525
0.000134379
0.00247536
0.000158388
0.00232874
0.000180672
0.00215684
0.000200971
0.00196149
0.000219057
0.0017448
0.000234722
0.00150913
0.000247791
0.00125703
0.000258115
0.000991274
0.000265571
0.000714682
0.000270081
0.000430465
0.000141554
0.000271558
2.70386e-05
0.00276354
5.65092e-08
5.44788e-05
0.00272433
8.15912e-05
0.00266025
0.000107932
0.0025689
0.000133153
0.00245014
0.000156943
0.00230495
0.000179024
0.00213476
0.000199139
0.00194137
0.00021706
0.00172688
0.000232582
0.0014936
0.000245532
0.00124408
0.000255763
0.000981042
0.000263152
0.00070729
0.000267622
0.00042599
0.000140069
0.000269097
2.67887e-05
0.00273669
5.95831e-08
5.39793e-05
0.00269714
8.0845e-05
0.00263338
0.000106946
0.0025428
0.000131938
0.00242514
0.000155512
0.00228138
0.000177391
0.00211288
0.000197323
0.00192144
0.000215081
0.00170912
0.000230462
0.00147822
0.000243294
0.00123125
0.000253432
0.000970906
0.000260754
0.000699969
0.000265186
0.000421561
0.000138603
0.000266657
2.65411e-05
0.00271009
6.27022e-08
5.34842e-05
0.0026702
8.01055e-05
0.00260676
0.000105969
0.00251694
0.000130733
0.00240038
0.000154093
0.00225802
0.000175773
0.0020912
0.000195524
0.00190169
0.00021312
0.00169152
0.000228362
0.00146298
0.000241077
0.00121853
0.000251123
0.000960858
0.000258379
0.00069271
0.000262772
0.000417165
0.000137127
0.000264237
2.62957e-05
0.00268372
6.59286e-08
5.29936e-05
0.0026435
7.93726e-05
0.00258038
0.000105001
0.00249131
0.00012954
0.00237584
0.000152687
0.00223487
0.00017417
0.00206972
0.000193741
0.00188212
0.000211178
0.00167409
0.000226281
0.00144788
0.00023888
0.00120593
0.000248834
0.000950905
0.000256026
0.000685521
0.00026038
0.000412813
0.000135674
0.000261837
2.60525e-05
0.0026576
6.92984e-08
5.25074e-05
0.00261705
7.86463e-05
0.00255424
0.000104041
0.00246592
0.000128357
0.00235153
0.000151293
0.00221193
0.000172581
0.00204843
0.000191975
0.00186272
0.000209253
0.00165681
0.000224218
0.00143291
0.000236703
0.00119344
0.000246567
0.00094104
0.000253694
0.000678392
0.000258009
0.000408495
0.000134217
0.000259457
2.58114e-05
0.00263172
7.28317e-08
5.20255e-05
0.00259083
7.79265e-05
0.00252834
0.00010309
0.00244075
0.000127185
0.00232743
0.000149913
0.0021892
0.000171007
0.00202733
0.000190224
0.00184351
0.000207345
0.00163969
0.000222175
0.00141808
0.000234546
0.00118107
0.000244321
0.000931267
0.000251383
0.000671331
0.00025566
0.00040422
0.000132785
0.000257097
2.55725e-05
0.00260607
7.65244e-08
5.1548e-05
0.00256486
7.72132e-05
0.00250268
0.000102148
0.00241582
0.000126023
0.00230355
0.000148545
0.00216668
0.000169447
0.00200643
0.00018849
0.00182446
0.000205455
0.00162272
0.00022015
0.00140338
0.000232409
0.00116881
0.000242095
0.00092158
0.000249094
0.000664331
0.000253332
0.000399978
0.000131351
0.000254758
2.53358e-05
0.00258065
8.03494e-08
5.10748e-05
0.00253912
7.65064e-05
0.00247724
0.000101214
0.00239111
0.000124872
0.0022799
0.000147189
0.00214437
0.000167902
0.00198572
0.000186771
0.00180559
0.000203582
0.00160591
0.000218144
0.00138882
0.000230292
0.00115667
0.000239889
0.000911983
0.000246825
0.000657396
0.000251026
0.00039578
0.000129941
0.00025244
2.51011e-05
0.00255547
8.42712e-08
5.06058e-05
0.00251361
7.58058e-05
0.00245204
0.000100289
0.00236663
0.000123732
0.00225645
0.000145845
0.00212225
0.00016637
0.00196519
0.000185068
0.00178689
0.000201726
0.00158925
0.000216156
0.00137439
0.000228193
0.00114463
0.000237704
0.000902471
0.000244578
0.000650521
0.000248741
0.000391614
0.000128529
0.000250145
2.48686e-05
0.00253051
8.824e-08
5.0141e-05
0.00248834
7.51116e-05
0.00242707
9.93717e-05
0.00234237
0.000122602
0.00223322
0.000144514
0.00210034
0.000164852
0.00194485
0.00018338
0.00176837
0.000199887
0.00157275
0.000214186
0.0013601
0.000226114
0.0011327
0.000235539
0.000893048
0.00024235
0.000643711
0.000246477
0.000387489
0.00012714
0.00024787
2.4638e-05
0.00250578
9.2206e-08
4.96804e-05
0.0024633
7.44237e-05
0.00240233
9.8463e-05
0.00231833
0.000121482
0.00221021
0.000143195
0.00207863
0.000163348
0.0019247
0.000181708
0.00175001
0.000198065
0.00155639
0.000212234
0.00134593
0.000224054
0.00112088
0.000233393
0.000883708
0.000240143
0.000636959
0.000244233
0.000383396
0.00012575
0.000245617
2.44096e-05
0.00248127
9.61177e-08
4.92239e-05
0.00243848
7.37419e-05
0.00237781
9.75625e-05
0.00229451
0.000120372
0.0021874
0.000141888
0.00205711
0.000161858
0.00190473
0.000180051
0.00173181
0.00019626
0.00154018
0.0002103
0.00133189
0.000222012
0.00110917
0.000231267
0.000874454
0.000237957
0.00063027
0.00024201
0.000379344
0.000124381
0.000243383
2.41831e-05
0.00245699
9.99289e-08
4.87716e-05
0.0024139
7.30664e-05
0.00235352
9.66701e-05
0.0022709
0.000119272
0.00216479
0.000140592
0.00203579
0.000160381
0.00188494
0.000178409
0.00171379
0.00019447
0.00152412
0.000208383
0.00131797
0.00021999
0.00109756
0.00022916
0.000865283
0.00023579
0.000623639
0.000239808
0.000375324
0.000123013
0.00024117
2.39587e-05
0.00243293
1.03598e-07
4.83233e-05
0.00238953
7.23969e-05
0.00232944
9.57859e-05
0.00224752
0.000118182
0.0021424
0.000139309
0.00201466
0.000158918
0.00186533
0.000176782
0.00169592
0.000192697
0.0015082
0.000206484
0.00130419
0.000217985
0.00108606
0.000227073
0.000856196
0.000233643
0.000617071
0.000237625
0.000371344
0.000121666
0.000238976
2.37363e-05
0.00240909
1.07094e-07
4.7879e-05
0.00236539
7.17334e-05
0.00230559
9.49096e-05
0.00222434
0.000117102
0.00212021
0.000138037
0.00199373
0.000157468
0.0018459
0.00017517
0.00167822
0.000190941
0.00149243
0.000204602
0.00129053
0.000215999
0.00107466
0.000225004
0.00084719
0.000231515
0.000610558
0.000235462
0.000367395
0.00012032
0.000236801
2.35159e-05
0.00238546
1.10394e-07
4.74388e-05
0.00234147
7.1076e-05
0.00228195
9.40413e-05
0.00220137
0.000116032
0.00209822
0.000136777
0.00197298
0.000156031
0.00182665
0.000173572
0.00166068
0.0001892
0.00147681
0.000202737
0.00127699
0.000214031
0.00106337
0.000222955
0.000838267
0.000229407
0.000604107
0.000233319
0.000363485
0.000118996
0.000234647
2.32975e-05
0.00236205
1.13495e-07
4.70025e-05
0.00231776
7.04245e-05
0.00225853
9.31808e-05
0.00217862
0.000114972
0.00207642
0.000135528
0.00195243
0.000154607
0.00180757
0.000171989
0.0016433
0.000187475
0.00146132
0.000200889
0.00126358
0.000212081
0.00105218
0.000220924
0.000829423
0.000227318
0.000597712
0.000231195
0.000359606
0.000117674
0.000232512
2.30811e-05
0.00233885
1.16405e-07
4.65702e-05
0.00229427
6.9779e-05
0.00223532
9.23282e-05
0.00215607
0.000113921
0.00205483
0.00013429
0.00193206
0.000153196
0.00178866
0.00017042
0.00162607
0.000185765
0.00144597
0.000199058
0.00125028
0.000210148
0.00104109
0.000218912
0.00082066
0.000225249
0.000591376
0.000229091
0.000355766
0.000116372
0.000230396
2.28666e-05
0.00231586
1.19148e-07
4.61418e-05
0.002271
6.91392e-05
0.00221232
9.14833e-05
0.00213372
0.000112879
0.00203344
0.000133063
0.00191187
0.000151798
0.00176993
0.000168865
0.001609
0.000184072
0.00143077
0.000197244
0.00123711
0.000208234
0.0010301
0.000216918
0.000811976
0.000223198
0.000585095
0.000227006
0.000351956
0.000115073
0.000228301
2.26541e-05
0.00229309
1.21762e-07
4.57173e-05
0.00224793
6.85053e-05
0.00218954
9.0646e-05
0.00211158
0.000111848
0.00201223
0.000131848
0.00189187
0.000150412
0.00175137
0.000167325
0.00159209
0.000182393
0.0014157
0.000195446
0.00122406
0.000206336
0.00101921
0.000214942
0.000803371
0.000221166
0.000578872
0.00022494
0.000348183
0.000113792
0.000226224
2.24435e-05
0.00227052
1.24295e-07
4.52966e-05
0.00222508
6.78772e-05
0.00216696
8.98164e-05
0.00208965
0.000110825
0.00199123
0.000130644
0.00187206
0.000149039
0.00173297
0.000165798
0.00157533
0.00018073
0.00140077
0.000193664
0.00121112
0.000204456
0.00100841
0.000212984
0.000794842
0.000219152
0.000572703
0.000222893
0.000344441
0.000112514
0.000224166
2.22349e-05
0.00224816
1.26795e-07
4.48798e-05
0.00220244
6.72547e-05
0.00214458
8.89942e-05
0.00206791
0.000109812
0.00197041
0.00012945
0.00185242
0.000147679
0.00171474
0.000164286
0.00155873
0.000179082
0.00138597
0.000191899
0.00119831
0.000202593
0.000997721
0.000211044
0.000786392
0.000217157
0.000566592
0.000220864
0.000340735
0.000111255
0.000222127
2.20282e-05
0.002226
1.29311e-07
4.44668e-05
0.00218
6.66379e-05
0.00212241
8.81796e-05
0.00204636
0.000108808
0.00194978
0.000128268
0.00183296
0.000146331
0.00169668
0.000162787
0.00154227
0.000177449
0.00137131
0.00019015
0.0011856
0.000200747
0.000987123
0.000209122
0.000778017
0.00021518
0.000560533
0.000218854
0.000337058
0.000109999
0.000220106
2.18234e-05
0.00220405
1.31878e-07
4.40575e-05
0.00215776
6.60268e-05
0.00210044
8.73723e-05
0.00202502
0.000107813
0.00192934
0.000127096
0.00181367
0.000144995
0.00167878
0.000161302
0.00152596
0.000175831
0.00135678
0.000188417
0.00117302
0.000198918
0.000976622
0.000207217
0.000769718
0.000213221
0.000554531
0.000216862
0.000333418
0.000108761
0.000218104
2.16205e-05
0.00218229
1.34526e-07
4.3652e-05
0.00213573
6.54211e-05
0.00207867
8.65724e-05
0.00200387
0.000106827
0.00190908
0.000125935
0.00179457
0.000143671
0.00166104
0.00015983
0.0015098
0.000174227
0.00134238
0.000186699
0.00116055
0.000197106
0.000966215
0.00020533
0.000761494
0.00021128
0.000548581
0.000214889
0.000329807
0.000107527
0.000216119
2.14194e-05
0.00216074
1.37265e-07
4.32502e-05
0.0021139
6.4821e-05
0.0020571
8.57798e-05
0.00198291
0.00010585
0.00188901
0.000124784
0.00177563
0.000142359
0.00164347
0.000158372
0.00149379
0.000172638
0.00132812
0.000184998
0.00114819
0.00019531
0.000955903
0.00020346
0.000753344
0.000209356
0.000542686
0.000212934
0.000326231
0.000106311
0.000214153
2.12202e-05
0.00213937
1.40096e-07
4.2852e-05
0.00209227
6.42264e-05
0.00203573
8.49944e-05
0.00196214
0.000104882
0.00186913
0.000123644
0.00175687
0.00014106
0.00162605
0.000156927
0.00147792
0.000171064
0.00131398
0.000183311
0.00113594
0.000193531
0.000945684
0.000201607
0.000745267
0.000207451
0.000536842
0.000210996
0.000322685
0.000105098
0.000212205
2.10229e-05
0.00211821
1.43005e-07
4.24576e-05
0.00207084
6.36372e-05
0.00201455
8.42161e-05
0.00194156
0.000103923
0.00184942
0.000122515
0.00173828
0.000139772
0.0016088
0.000155495
0.0014622
0.000169504
0.00129997
0.000181641
0.0011238
0.000191768
0.000935557
0.000199772
0.000737264
0.000205562
0.000531052
0.000209076
0.000319172
0.000103902
0.000210275
2.08273e-05
0.00209724
1.4597e-07
4.20667e-05
0.0020496
6.30534e-05
0.00199356
8.34449e-05
0.00192117
0.000102973
0.00182989
0.000121395
0.00171986
0.000138496
0.0015917
0.000154076
0.00144662
0.000167958
0.00128609
0.000179985
0.00111178
0.000190021
0.000925521
0.000197952
0.000729332
0.000203691
0.000525313
0.000207174
0.000315688
0.000102711
0.000208362
2.06336e-05
0.00207645
1.48961e-07
4.16794e-05
0.00202855
6.24748e-05
0.00197276
8.26807e-05
0.00190096
0.000102031
0.00181054
0.000120286
0.0017016
0.000137231
0.00157475
0.00015267
0.00143118
0.000166427
0.00127233
0.000178345
0.00109986
0.00018829
0.000915577
0.00019615
0.000721472
0.000201837
0.000519626
0.000205289
0.000312237
0.000101535
0.000206468
2.04416e-05
0.00205586
1.51949e-07
4.12956e-05
0.0020077
6.19016e-05
0.00195216
8.19235e-05
0.00188094
0.000101097
0.00179137
0.000119187
0.00168351
0.000135978
0.00155796
0.000151277
0.00141588
0.000164909
0.0012587
0.000176719
0.00108805
0.000186574
0.000905721
0.000194364
0.000713682
0.000200001
0.000513989
0.000203422
0.000308815
0.000100365
0.00020459
2.02515e-05
0.00203545
1.54899e-07
4.09153e-05
0.00198703
6.13336e-05
0.00193174
8.11732e-05
0.0018611
0.000100173
0.00177237
0.000118098
0.00166559
0.000134736
0.00154132
0.000149897
0.00140072
0.000163405
0.00124519
0.000175109
0.00107635
0.000184875
0.000895956
0.000192594
0.000705963
0.00019818
0.000508404
0.000201571
0.000305426
9.92088e-05
0.000202729
2.0063e-05
0.00201523
1.5778e-07
4.05386e-05
0.00196656
6.07708e-05
0.00191151
8.04297e-05
0.00184144
9.92564e-05
0.00175354
0.000117018
0.00164783
0.000133506
0.00152483
0.000148529
0.0013857
0.000161915
0.00123181
0.000173513
0.00106475
0.000183191
0.000886277
0.000190841
0.000698313
0.000196377
0.000502867
0.000199737
0.000302064
9.80585e-05
0.000200886
1.98763e-05
0.0019952
1.60565e-07
4.01652e-05
0.00194627
6.02131e-05
0.00189146
7.96931e-05
0.00182196
9.83485e-05
0.00173489
0.000115949
0.00163022
0.000132287
0.0015085
0.000147174
0.00137081
0.000160439
0.00121854
0.000171932
0.00105326
0.000181523
0.000876687
0.000189104
0.000690732
0.00019459
0.000497382
0.000197921
0.000298734
9.69224e-05
0.000199059
1.96913e-05
0.00197534
1.63233e-07
3.97953e-05
0.00192616
5.96605e-05
0.00187159
7.89631e-05
0.00180266
9.74488e-05
0.0017164
0.000114889
0.00161278
0.000131079
0.00149231
0.000145831
0.00135606
0.000158976
0.0012054
0.000170365
0.00104187
0.000179869
0.000867182
0.000187382
0.000683219
0.00019282
0.000491944
0.000196121
0.000295433
9.57922e-05
0.000197249
1.9508e-05
0.00195567
1.65766e-07
3.94288e-05
0.00190624
5.91129e-05
0.00185191
7.82398e-05
0.00178353
9.65574e-05
0.00169808
0.00011384
0.0015955
0.000129882
0.00147626
0.000144501
0.00134144
0.000157527
0.00119237
0.000168813
0.00103058
0.000178231
0.000857764
0.000185677
0.000675774
0.000191065
0.000486556
0.000194337
0.000292162
9.46756e-05
0.000195456
1.93264e-05
0.00193617
1.68158e-07
3.90656e-05
0.0018865
5.85704e-05
0.0018324
7.75231e-05
0.00176458
9.56741e-05
0.00167993
0.000112799
0.00157838
0.000128697
0.00146037
0.000143182
0.00132696
0.00015609
0.00117946
0.000167275
0.0010194
0.000176608
0.00084843
0.000183987
0.000668395
0.000189327
0.000481215
0.00019257
0.000288918
9.35652e-05
0.000193679
1.91464e-05
0.00191686
1.70411e-07
3.87057e-05
0.00186694
5.80328e-05
0.00181308
7.6813e-05
0.0017458
9.47988e-05
0.00166195
0.000111768
0.00156141
0.000127522
0.00144461
0.000141876
0.0013126
0.000154667
0.00116667
0.000165751
0.00100831
0.000175
0.000839181
0.000182312
0.000661084
0.000187605
0.000475924
0.000190819
0.000285705
9.24676e-05
0.000191918
1.89681e-05
0.00189771
1.72536e-07
3.83491e-05
0.00184756
5.75001e-05
0.00179393
7.61093e-05
0.00172719
9.39316e-05
0.00164412
0.000110747
0.00154459
0.000126357
0.001429
0.000140582
0.00129838
0.000153257
0.001154
0.00016424
0.000997331
0.000173407
0.000830015
0.000180653
0.000653837
0.000185898
0.000470678
0.000189084
0.00028252
9.13766e-05
0.000190173
1.87915e-05
0.00187875
1.74552e-07
3.79957e-05
0.00182836
5.69722e-05
0.00177495
7.54121e-05
0.00170875
9.30723e-05
0.00162646
0.000109735
0.00152793
0.000125204
0.00141353
0.000139299
0.00128428
0.00015186
0.00114143
0.000162744
0.000986448
0.000171828
0.000820931
0.000179009
0.000646656
0.000184208
0.000465481
0.000187364
0.000279363
9.02977e-05
0.000188445
1.86164e-05
0.00185996
1.76487e-07
3.76456e-05
0.00180933
5.64492e-05
0.00175615
7.47212e-05
0.00169048
9.22209e-05
0.00160896
0.000108732
0.00151142
0.000124061
0.0013982
0.000138029
0.00127031
0.000150476
0.00112899
0.000161262
0.000975662
0.000170264
0.000811929
0.00017738
0.000639539
0.000182532
0.000460329
0.000185661
0.000276234
8.92258e-05
0.000186732
1.8443e-05
0.00184133
1.78374e-07
3.72987e-05
0.00179047
5.5931e-05
0.00173751
7.40367e-05
0.00167237
9.13772e-05
0.00159162
0.000107739
0.00149506
0.000122928
0.00138302
0.00013677
0.00125647
0.000149105
0.00111665
0.000159793
0.000964974
0.000168714
0.000803009
0.000175767
0.000632487
0.000180872
0.000455224
0.000183973
0.000273133
8.81654e-05
0.000185035
1.82711e-05
0.00182288
1.80248e-07
3.6955e-05
0.00177179
5.54175e-05
0.00171905
7.33584e-05
0.00165443
9.05413e-05
0.00157444
0.000106754
0.00147884
0.000121806
0.00136796
0.000135522
0.00124276
0.000147746
0.00110443
0.000158337
0.000954383
0.000167178
0.000794168
0.000174168
0.000625497
0.000179228
0.000450164
0.000182301
0.000270059
8.71122e-05
0.000183354
1.81008e-05
0.0018046
1.82141e-07
3.66144e-05
0.00175328
5.49087e-05
0.00170076
7.26863e-05
0.00163666
8.97131e-05
0.00155741
0.000105779
0.00146278
0.000120694
0.00135305
0.000134286
0.00122916
0.000146399
0.00109232
0.000156895
0.000943887
0.000165656
0.000785408
0.000172583
0.000618571
0.000177598
0.000445149
0.000180644
0.000267014
8.60698e-05
0.000181688
1.7932e-05
0.00178648
1.84082e-07
3.62769e-05
0.00173493
5.44046e-05
0.00168263
7.20204e-05
0.00161904
8.88924e-05
0.00154054
0.000104812
0.00144686
0.000119592
0.00133827
0.000133061
0.0012157
0.000145065
0.00108031
0.000155467
0.000933485
0.000164149
0.000776726
0.000171013
0.000611706
0.000175983
0.000440179
0.000179003
0.000263994
8.50351e-05
0.000180037
1.77648e-05
0.00176853
1.86091e-07
3.59425e-05
0.00171675
5.39051e-05
0.00166467
7.13606e-05
0.00160159
8.80792e-05
0.00152382
0.000103855
0.00143108
0.000118501
0.00132362
0.000131848
0.00120235
0.000143743
0.00106842
0.000154051
0.000923177
0.000162655
0.000768122
0.000169458
0.000604904
0.000174384
0.000435254
0.000177376
0.000261002
8.40105e-05
0.000178402
1.75992e-05
0.00175074
1.88181e-07
3.56111e-05
0.00169874
5.34101e-05
0.00164687
7.07069e-05
0.00158429
8.72735e-05
0.00150726
0.000102906
0.00141545
0.000117419
0.00130911
0.000130646
0.00118912
0.000142433
0.00105663
0.000152648
0.000912962
0.000161175
0.000759595
0.000167917
0.000598162
0.000172798
0.000430373
0.000175764
0.000258036
8.29936e-05
0.000176781
1.7435e-05
0.00173312
1.90353e-07
3.52828e-05
0.0016809
5.29197e-05
0.00162923
7.00591e-05
0.00156715
8.64752e-05
0.00149084
0.000101966
0.00139996
0.000116347
0.00129473
0.000129454
0.00117602
0.000141135
0.00104495
0.000151258
0.00090284
0.000159708
0.000751146
0.00016639
0.00059148
0.000171228
0.000425535
0.000174168
0.000255097
8.19863e-05
0.000175176
1.72724e-05
0.00171565
1.92599e-07
3.49575e-05
0.00166321
5.24338e-05
0.00161175
6.94172e-05
0.00155017
8.56842e-05
0.00147457
0.000101034
0.00138461
0.000115286
0.00128048
0.000128274
0.00116303
0.00013985
0.00103337
0.000149881
0.000892808
0.000158255
0.000742772
0.000164877
0.000584859
0.000169672
0.000420741
0.000172585
0.000252183
8.09871e-05
0.000173585
1.71112e-05
0.00169835
1.94901e-07
3.46352e-05
0.00164569
5.19524e-05
0.00159444
6.87813e-05
0.00153334
8.49005e-05
0.00145845
0.000100111
0.0013694
0.000114234
0.00126635
0.000127104
0.00115016
0.000138576
0.0010219
0.000148517
0.000882867
0.000156816
0.000734473
0.000163378
0.000578297
0.00016813
0.000415989
0.000171018
0.000249295
7.99967e-05
0.000172009
1.69515e-05
0.0016812
1.97237e-07
3.43159e-05
0.00162832
5.14753e-05
0.00157728
6.81512e-05
0.00151666
8.41239e-05
0.00144248
9.91966e-05
0.00135433
0.000113191
0.00125236
0.000125946
0.0011374
0.000137313
0.00101053
0.000147165
0.000873016
0.000155389
0.000726249
0.000161893
0.000571794
0.000166602
0.00041128
0.000169465
0.000246433
7.90147e-05
0.000170447
1.67933e-05
0.00166421
1.99578e-07
3.39995e-05
0.00161112
5.10027e-05
0.00156027
6.75268e-05
0.00150014
8.33545e-05
0.00142665
9.82905e-05
0.00133939
0.000112158
0.00123849
0.000124798
0.00112476
0.000136063
0.000999269
0.000145826
0.000863253
0.000153976
0.000718099
0.000160421
0.000565349
0.000165089
0.000406612
0.000167926
0.000243596
7.8041e-05
0.0001689
1.66366e-05
0.00164737
2.01896e-07
3.3686e-05
0.00159407
5.05344e-05
0.00154342
6.69082e-05
0.00148376
8.25922e-05
0.00141097
9.73927e-05
0.00132459
0.000111135
0.00122475
0.00012366
0.00111224
0.000134824
0.000988106
0.000144499
0.000853578
0.000152576
0.000710023
0.000158963
0.000558961
0.000163589
0.000401987
0.000166401
0.000240784
7.70758e-05
0.000167367
1.64812e-05
0.00163068
2.04162e-07
3.33753e-05
0.00157717
5.00703e-05
0.00152673
6.62953e-05
0.00146754
8.18368e-05
0.00139543
9.65032e-05
0.00130993
0.000110121
0.00121113
0.000122533
0.00109983
0.000133596
0.000977043
0.000143184
0.00084399
0.000151188
0.000702018
0.000157519
0.000552631
0.000162104
0.000397402
0.000164891
0.000237997
7.61184e-05
0.000165849
1.63274e-05
0.00161415
2.06352e-07
3.30676e-05
0.00156043
4.96106e-05
0.00151019
6.5688e-05
0.00145146
8.10884e-05
0.00138003
9.56218e-05
0.00129539
0.000109116
0.00119764
0.000121416
0.00108753
0.000132379
0.00096608
0.000141881
0.000834488
0.000149814
0.000694086
0.000156088
0.000546357
0.000160632
0.000392858
0.000163394
0.000235235
7.51698e-05
0.000164344
1.61749e-05
0.00159777
2.08446e-07
3.27626e-05
0.00154384
4.91551e-05
0.00149379
6.50863e-05
0.00143553
8.03469e-05
0.00136477
9.47486e-05
0.00128099
0.000108121
0.00118426
0.00012031
0.00107534
0.000131174
0.000955216
0.00014059
0.000825072
0.000148452
0.000686224
0.00015467
0.00054014
0.000159173
0.000388355
0.000161911
0.000232497
7.42284e-05
0.000162853
1.60239e-05
0.00158153
2.10432e-07
3.24605e-05
0.00152741
4.87037e-05
0.00147755
6.44902e-05
0.00141974
7.96122e-05
0.00134964
9.38833e-05
0.00126672
0.000107135
0.00117101
0.000119213
0.00106326
0.00012998
0.000944449
0.000139312
0.000815741
0.000147103
0.000678434
0.000153265
0.000533978
0.000157728
0.000383892
0.000160442
0.000229783
7.3296e-05
0.000161376
1.58742e-05
0.00156544
2.12306e-07
3.21612e-05
0.00151112
4.82565e-05
0.00146146
6.38995e-05
0.0014041
7.88843e-05
0.00133466
9.30261e-05
0.00125258
0.000106158
0.00115788
0.000118127
0.00105129
0.000128797
0.00093378
0.000138045
0.000806493
0.000145766
0.000670713
0.000151873
0.000527871
0.000156297
0.000379468
0.000158987
0.000227093
7.23703e-05
0.000159913
1.57259e-05
0.0015495
2.14071e-07
3.18646e-05
0.00149498
4.78135e-05
0.00144551
6.33142e-05
0.0013886
7.8163e-05
0.00131981
9.21767e-05
0.00123856
0.00010519
0.00114487
0.000117051
0.00103943
0.000127625
0.000923207
0.000136789
0.000797329
0.000144441
0.000663061
0.000150494
0.000521819
0.000154878
0.000375084
0.000157545
0.000224427
7.14537e-05
0.000158463
1.5579e-05
0.00153371
2.1574e-07
3.15707e-05
0.00147899
4.73745e-05
0.0014297
6.27344e-05
0.00137324
7.74484e-05
0.0013051
9.13352e-05
0.00122468
0.000104231
0.00113197
0.000115985
0.00102768
0.000126463
0.000912728
0.000135546
0.000788246
0.000143129
0.000655478
0.000149127
0.000515821
0.000153473
0.000370739
0.000156116
0.000221784
7.05433e-05
0.000157026
1.54335e-05
0.00151806
2.17331e-07
3.12796e-05
0.00146314
4.69395e-05
0.00141404
6.21598e-05
0.00135802
7.67404e-05
0.00129052
9.05014e-05
0.00121092
0.00010328
0.00111919
0.000114929
0.00101603
0.000125313
0.000902345
0.000134313
0.000779246
0.000141829
0.000647962
0.000147774
0.000509877
0.000152081
0.000366433
0.0001547
0.000219164
6.96423e-05
0.000155603
1.52893e-05
0.00150255
2.18867e-07
3.09911e-05
0.00144744
4.65086e-05
0.00139852
6.15906e-05
0.00134294
7.60389e-05
0.00127607
8.96753e-05
0.00119728
0.000102339
0.00110653
0.000113882
0.00100448
0.000124172
0.000892054
0.000133093
0.000770326
0.000140541
0.000640514
0.000146433
0.000503985
0.000150701
0.000362164
0.000153298
0.000216567
6.87469e-05
0.000154193
1.51465e-05
0.00148718
2.20374e-07
3.07053e-05
0.00143188
4.60816e-05
0.00138315
6.10266e-05
0.00132799
7.53439e-05
0.00126175
8.88569e-05
0.00118377
0.000101406
0.00109398
0.000112845
0.000993045
0.000123043
0.000881857
0.000131883
0.000761486
0.000139264
0.000633133
0.000145104
0.000498146
0.000149335
0.000357934
0.000151909
0.000213994
6.78611e-05
0.000152796
1.50049e-05
0.00147196
2.21878e-07
3.04221e-05
0.00141647
4.56585e-05
0.00136791
6.04678e-05
0.00131318
7.46552e-05
0.00124756
8.80459e-05
0.00117038
0.000100482
0.00108154
0.000111818
0.000981709
0.000121924
0.000871751
0.000130685
0.000752726
0.000138
0.000625818
0.000143787
0.000492359
0.000147981
0.000353741
0.000150532
0.000211442
6.69804e-05
0.000151413
1.48647e-05
0.00145687
2.23401e-07
3.01415e-05
0.00140119
4.52394e-05
0.00135281
5.99142e-05
0.00129851
7.3973e-05
0.0012335
8.72425e-05
0.00115711
9.95659e-05
0.00106922
0.0001108
0.000970475
0.000120815
0.000861735
0.000129497
0.000744044
0.000136747
0.000618568
0.000142483
0.000486624
0.000146639
0.000349585
0.000149168
0.000208914
6.61094e-05
0.000150041
1.47258e-05
0.00144192
2.24963e-07
2.98635e-05
0.00138605
4.48241e-05
0.00133785
5.93656e-05
0.00128397
7.3297e-05
0.00121957
8.64465e-05
0.00114396
9.86586e-05
0.00105701
0.000109791
0.000959342
0.000119717
0.00085181
0.000128321
0.00073544
0.000135506
0.000611383
0.000141191
0.000480939
0.00014531
0.000345466
0.000147817
0.000206407
6.52432e-05
0.000148683
1.45881e-05
0.0014271
2.26576e-07
2.95881e-05
0.00137105
4.44126e-05
0.00132303
5.88221e-05
0.00126956
7.26273e-05
0.00120577
8.56578e-05
0.00113093
9.77597e-05
0.00104491
0.000108792
0.000948309
0.000118629
0.000841974
0.000127156
0.000726913
0.000134277
0.000604262
0.000139911
0.000475306
0.000143994
0.000341384
0.000146479
0.000203922
6.43867e-05
0.000147337
1.44517e-05
0.00141242
2.28244e-07
2.93152e-05
0.00135619
4.4005e-05
0.00130834
5.82837e-05
0.00125528
7.19637e-05
0.00119209
8.48765e-05
0.00111801
9.68692e-05
0.00103291
0.000107803
0.000937376
0.00011755
0.000832226
0.000126001
0.000718462
0.000133059
0.000597205
0.000138642
0.000469722
0.000142689
0.000337337
0.000145153
0.000201459
6.35345e-05
0.000146004
1.43166e-05
0.00139788
2.29967e-07
2.90448e-05
0.00134146
4.36011e-05
0.00129378
5.77502e-05
0.00124113
7.13063e-05
0.00117853
8.41023e-05
0.00110522
9.59869e-05
0.00102103
0.000106822
0.000926541
0.000116482
0.000822566
0.000124857
0.000710087
0.000131852
0.000590211
0.000137386
0.000464188
0.000141397
0.000333327
0.000143839
0.000199018
6.26922e-05
0.000144684
1.41827e-05
0.00138346
2.31735e-07
2.87769e-05
0.00132687
4.32009e-05
0.00127936
5.72216e-05
0.00122711
7.0655e-05
0.0011651
8.33353e-05
0.00109254
9.51128e-05
0.00100925
0.00010585
0.000915804
0.000115424
0.000812993
0.000123724