1.45 	0 	0 	-0.0071822 	-0.00262742 	3.87413e-21
2.35 	0 	0 	0.0638882 	-0.00671529 	2.40436e-21
