1.45 	0 	0 	-0.305697
2.35 	0 	0 	-0.133313
