1.45 	0 	0 	-0.00796168 	-0.00257756 	3.79914e-21
2.35 	0 	0 	0.0616602 	-0.00664264 	2.30904e-21
