1.45 	0 	0 	0.0279912 	-0.0061373 	3.75238e-21
2.35 	0 	0 	0.206289 	-0.0109768 	9.63728e-22
