/*--------------------------------*- C++ -*----------------------------------*\
  =========                 |
  \\      /  F ield         | OpenFOAM: The Open Source CFD Toolbox
   \\    /   O peration     | Website:  https://openfoam.org
    \\  /    A nd           | Version:  6.0
     \\/     M anipulation  |
\*---------------------------------------------------------------------------*/
FoamFile
{
    version     2.0;
    format      ascii;
    class       surfaceScalarField;
    location    "1.1";
    object      phi;
}
// * * * * * * * * * * * * * * * * * * * * * * * * * * * * * * * * * * * * * //

dimensions      [0 3 -1 0 0 0 0];

internalField   nonuniform List<scalar> 
47678
(
2.98133e-05
0.00388594
8.10064e-10
5.98488e-05
0.00381844
8.91149e-05
0.00368586
0.000116963
0.00349022
0.000142855
0.00323492
0.000166313
0.00292442
0.000186915
0.00256406
0.000204296
0.00216007
0.000218145
0.0017194
0.00022822
0.00124964
0.000234338
0.00075954
0.000260429
0.000236907
2.96246e-05
0.00385631
5.16003e-10
5.94698e-05
0.0037886
8.85503e-05
0.00365679
0.000116221
0.00346256
0.000141947
0.0032092
0.000165254
0.00290113
0.000185724
0.00254361
0.000202993
0.00214281
0.000216755
0.00170565
0.000226762
0.00123965
0.000232927
0.000753392
0.000257826
0.000235556
2.94366e-05
0.00382688
1.91792e-10
5.90928e-05
0.00375894
8.79891e-05
0.0036279
0.000115484
0.00343506
0.000141046
0.00318365
0.000164204
0.00287797
0.000184543
0.00252327
0.000201702
0.00212565
0.000215377
0.00169198
0.000225316
0.00122971
0.000231459
0.000747247
0.000255238
0.000234034
2.92497e-05
0.00379763
-1.53661e-10
5.87183e-05
0.00372948
8.74316e-05
0.00359919
0.000114752
0.00340775
0.00014015
0.00315826
0.00016316
0.00285497
0.000183369
0.00250307
0.000200418
0.00210861
0.000214007
0.0016784
0.000223882
0.00121984
0.000229976
0.000741167
0.000252765
0.000232472
2.90643e-05
0.00376856
-6.43961e-10
5.83464e-05
0.00370019
8.68778e-05
0.00357066
0.000114024
0.0033806
0.00013926
0.00313302
0.000162122
0.00283211
0.000182202
0.00248299
0.000199142
0.00209167
0.000212645
0.0016649
0.000222458
0.00121003
0.0002285
0.000735122
0.000250322
0.000230929
2.88801e-05
0.00373969
-1.14137e-09
5.79769e-05
0.0036711
8.63273e-05
0.00354231
0.0001133
0.00335364
0.000138375
0.00310796
0.000161091
0.0028094
0.000181042
0.00246305
0.000197874
0.00207485
0.000211292
0.00165149
0.000221045
0.00120028
0.000227038
0.000729141
0.000247966
0.000229415
2.86972e-05
0.00371099
-1.6724e-09
5.76097e-05
0.00364219
8.57801e-05
0.00351415
0.000112581
0.00332683
0.000137495
0.00308304
0.000160066
0.00278683
0.00017989
0.00244323
0.000196614
0.00205812
0.000209948
0.00163815
0.000219642
0.00119058
0.000225592
0.000723187
0.000245622
0.000227924
2.85155e-05
0.00368248
-2.23281e-09
5.72447e-05
0.00361346
8.52362e-05
0.00348616
0.000111866
0.00330021
0.000136621
0.00305829
0.000159048
0.00276441
0.000178746
0.00242354
0.000195364
0.00204151
0.000208613
0.00162491
0.000218249
0.00118096
0.000224158
0.000717289
0.000243353
0.000226448
2.83349e-05
0.00365415
-2.81658e-09
5.68819e-05
0.00358491
8.46954e-05
0.00345834
0.000111155
0.00327375
0.000135752
0.0030337
0.000158036
0.00274212
0.000177608
0.00240396
0.000194121
0.00202499
0.000207286
0.00161175
0.000216865
0.00117137
0.000222735
0.000711413
0.000241096
0.000224984
2.81555e-05
0.003626
-3.43495e-09
5.65213e-05
0.00355655
8.41578e-05
0.00343071
0.000110449
0.00324746
0.000134889
0.00300926
0.000157031
0.00271998
0.000176479
0.00238452
0.000192886
0.00200859
0.000205968
0.00159867
0.000215489
0.00116186
0.000221322
0.000705591
0.000238904
0.000223533
2.79771e-05
0.00359802
-4.07205e-09
5.61627e-05
0.00352836
8.36233e-05
0.00340325
0.000109747
0.00322134
0.000134031
0.00298498
0.000156032
0.00269798
0.000175356
0.0023652
0.00019166
0.00199229
0.000204659
0.00158567
0.000214122
0.00115239
0.000219917
0.00069979
0.000236717
0.000222096
2.77998e-05
0.00357023
-4.70582e-09
5.58063e-05
0.00350036
8.30919e-05
0.00337597
0.000109049
0.00319538
0.000133179
0.00296085
0.00015504
0.00267613
0.000174241
0.002346
0.000190441
0.00197609
0.000203358
0.00157276
0.000212764
0.001143
0.000218522
0.000694041
0.000234586
0.00022067
2.76235e-05
0.00354261
-5.27709e-09
5.54518e-05
0.00347253
8.25637e-05
0.00334886
0.000108356
0.00316959
0.000132332
0.00293687
0.000154054
0.0026544
0.000173133
0.00232692
0.00018923
0.00195999
0.000202066
0.00155992
0.000211414
0.00113364
0.000217136
0.000688314
0.000232457
0.000219256
2.74482e-05
0.00351517
-5.69285e-09
5.50995e-05
0.00344488
8.20386e-05
0.00332192
0.000107666
0.00314396
0.00013149
0.00291305
0.000153074
0.00263282
0.000172032
0.00230797
0.000188028
0.001944
0.000200782
0.00154717
0.000210073
0.00112436
0.000215758
0.000682637
0.000230379
0.000217853
2.72738e-05
0.0034879
-5.85146e-09
5.47491e-05
0.0034174
8.15167e-05
0.00329515
0.000106981
0.0031185
0.000130654
0.00288938
0.000152101
0.00261137
0.000170938
0.00228913
0.000186833
0.00192811
0.000199507
0.00153449
0.00020874
0.00111512
0.00021439
0.000676981
0.000228297
0.00021646
2.71003e-05
0.00346081
-5.63689e-09
5.44008e-05
0.00339011
8.09979e-05
0.00326856
0.000106301
0.0030932
0.000129823
0.00286586
0.000151133
0.00259007
0.000169851
0.00227042
0.000185645
0.00191232
0.00019824
0.00152191
0.000207416
0.00110595
0.00021303
0.000671376
0.000226264
0.000215077
2.69278e-05
0.00343388
-4.97123e-09
5.40546e-05
0.00336298
8.04823e-05
0.00324213
0.000105624
0.00306805
0.000128997
0.00284249
0.000150172
0.00256889
0.000168772
0.00225181
0.000184466
0.00189662
0.000196981
0.00150939
0.000206101
0.00109683
0.000211679
0.00066579
0.000224224
0.000213704
2.67561e-05
0.00340713
-3.81455e-09
5.37104e-05
0.00333603
7.997e-05
0.00321587
0.000104952
0.00304307
0.000128176
0.00281927
0.000149218
0.00254785
0.000167699
0.00223334
0.000183294
0.00188103
0.00019573
0.00149696
0.000204793
0.00108777
0.000210337
0.000660256
0.000222232
0.000212341
2.65854e-05
0.00338055
-2.18336e-09
5.33682e-05
0.00330924
7.94608e-05
0.00318978
0.000104284
0.00301825
0.000127361
0.00279619
0.000148269
0.00252694
0.000166633
0.00221497
0.00018213
0.00186553
0.000194488
0.0014846
0.000203495
0.00107876
0.000209003
0.00065474
0.000220229
0.000210988
2.64156e-05
0.00335414
-1.47637e-10
5.3028e-05
0.00328263
7.89548e-05
0.00316385
0.000103621
0.00299359
0.000126551
0.00277326
0.000147326
0.00250617
0.000165574
0.00219673
0.000180973
0.00185014
0.000193253
0.00147232
0.000202204
0.00106982
0.000207678
0.000649275
0.000218275
0.000209643
2.62467e-05
0.00332789
2.18845e-09
5.269e-05
0.00325619
7.84519e-05
0.00313809
0.000102961
0.00296907
0.000125746
0.00275048
0.00014639
0.00248552
0.000164522
0.00217859
0.000179824
0.00183483
0.000192027
0.00146011
0.000200922
0.00106092
0.000206361
0.000643828
0.000216307
0.000208308
2.60787e-05
0.0033018
4.70959e-09
5.23539e-05
0.00322991
7.79522e-05
0.00311249
0.000102306
0.00294472
0.000124946
0.00272784
0.000145459
0.00246501
0.000163477
0.00216058
0.000178682
0.00181963
0.000190808
0.00144799
0.000199647
0.00105209
0.000205052
0.000638432
0.00021439
0.000206982
2.59116e-05
0.00327588
7.30558e-09
5.20199e-05
0.0032038
7.74556e-05
0.00308706
0.000101655
0.00292052
0.000124152
0.00270534
0.000144535
0.00244463
0.000162439
0.00214267
0.000177547
0.00180452
0.000189597
0.00143594
0.000198381
0.0010433
0.000203752
0.000633054
0.000212456
0.000205665
2.57454e-05
0.00325013
9.90081e-09
5.16879e-05
0.00317786
7.69621e-05
0.00306179
0.000101008
0.00289648
0.000123362
0.00268299
0.000143616
0.00242438
0.000161407
0.00212488
0.00017642
0.00178951
0.000188394
0.00142397
0.000197123
0.00103457
0.00020246
0.000627725
0.000210573
0.000204357
2.55802e-05
0.00322454
1.24472e-08
5.13579e-05
0.00315209
7.64717e-05
0.00303667
0.000100365
0.00287258
0.000122577
0.00266077
0.000142703
0.00240425
0.000160381
0.0021072
0.0001753
0.00177459
0.000187198
0.00141207
0.000195873
0.00102589
0.000201176
0.000622415
0.000208674
0.000203058
2.54159e-05
0.00319911
1.49343e-08
5.103e-05
0.00312647
7.59843e-05
0.00301172
9.9726e-05
0.00284885
0.000121798
0.0026387
0.000141796
0.00238425
0.000159363
0.00208964
0.000174187
0.00175977
0.000186011
0.00140025
0.000194631
0.00101728
0.000199901
0.000617154
0.000206824
0.000201767
2.52526e-05
0.00317384
1.73702e-08
5.0704e-05
0.00310102
7.54999e-05
0.00298692
9.90911e-05
0.00282525
0.000121023
0.00261677
0.000140895
0.00236438
0.00015835
0.00207218
0.000173081
0.00174503
0.00018483
0.0013885
0.000193397
0.00100871
0.000198633
0.000611909
0.000204956
0.000200485
2.50902e-05
0.00314873
1.97756e-08
5.038e-05
0.00307573
7.50186e-05
0.00296228
9.84602e-05
0.00280181
0.000120253
0.00259498
0.000139999
0.00234464
0.000157345
0.00205484
0.000171983
0.0017304
0.000183658
0.00137683
0.000192171
0.0010002
0.000197374
0.000606715
0.000203137
0.000199212
2.49287e-05
0.00312378
2.21655e-08
5.00581e-05
0.0030506
7.45403e-05
0.0029378
9.78333e-05
0.00277852
0.000119488
0.00257332
0.00013911
0.00232501
0.000156345
0.0020376
0.000170891
0.00171585
0.000182493
0.00136522
0.000190952
0.000991735
0.000196123
0.000601536
0.000201301
0.000197946
2.47682e-05
0.00309898
2.45481e-08
4.9738e-05
0.00302563
7.40649e-05
0.00291348
9.72103e-05
0.00275537
0.000118728
0.00255181
0.000138226
0.00230552
0.000155352
0.00202048
0.000169807
0.0017014
0.000181335
0.0013537
0.000189741
0.000983335
0.000194879
0.000596407
0.000199511
0.000196689
2.46087e-05
0.00307435
2.69118e-08
4.942e-05
0.00300082
7.35925e-05
0.0028893
9.65913e-05
0.00273237
0.000117973
0.00253042
0.000137347
0.00228614
0.000154366
0.00200346
0.000168729
0.00168703
0.000180185
0.00134224
0.000188538
0.000974976
0.000193644
0.000591293
0.000197705
0.00019544
2.44501e-05
0.00304987
2.92357e-08
4.91039e-05
0.00297617
7.31231e-05
0.00286528
9.59762e-05
0.00270952
0.000117223
0.00250918
0.000136474
0.00226689
0.000153386
0.00198655
0.000167658
0.00167276
0.000179042
0.00133086
0.000187343
0.000966682
0.000192416
0.000586228
0.000195943
0.000194199
2.42925e-05
0.00302554
3.1483e-08
4.87898e-05
0.00295167
7.26566e-05
0.00284142
9.53649e-05
0.00268681
0.000116477
0.00248806
0.000135607
0.00224776
0.000152412
0.00196974
0.000166594
0.00165858
0.000177907
0.00131954
0.000186155
0.000958427
0.000191196
0.000581178
0.000194163
0.000192966
2.41359e-05
0.00300138
3.36162e-08
4.84777e-05
0.00292733
7.21931e-05
0.0028177
9.47576e-05
0.00266425
0.000115736
0.00246709
0.000134745
0.00222875
0.000151444
0.00195305
0.000165537
0.00164449
0.000176778
0.00130831
0.000184975
0.000950237
0.000189984
0.000576177
0.000192425
0.000191741
2.39802e-05
0.00297736
3.55943e-08
4.81676e-05
0.00290314
7.17325e-05
0.00279414
9.41541e-05
0.00264183
0.000115
0.00244624
0.000133889
0.00220986
0.000150482
0.00193645
0.000164487
0.00163048
0.000175657
0.00129713
0.000183802
0.000942085
0.00018878
0.000571191
0.000190671
0.000190523
2.38256e-05
0.0029535
3.73876e-08
4.78594e-05
0.00287911
7.12748e-05
0.00277072
9.35544e-05
0.00261955
0.000114269
0.00242553
0.000133038
0.00219109
0.000149527
0.00191996
0.000163443
0.00161657
0.000174543
0.00128604
0.000182637
0.000933998
0.000187583
0.000566253
0.000188956
0.000189314
2.3672e-05
0.00292978
3.89728e-08
4.75532e-05
0.00285523
7.08201e-05
0.00274745
9.29586e-05
0.00259741
0.000113542
0.00240494
0.000132193
0.00217244
0.000148578
0.00190358
0.000162406
0.00160274
0.000173436
0.001275
0.000181479
0.000925949
0.000186393
0.000561329
0.000187223
0.000188112
2.35193e-05
0.00290623
4.03446e-08
4.72489e-05
0.0028315
7.03682e-05
0.00272434
9.23666e-05
0.00257541
0.00011282
0.00238449
0.000131353
0.00215391
0.000147634
0.0018873
0.000161376
0.001589
0.000172336
0.00126405
0.000180328
0.000917963
0.000185212
0.000556453
0.000185529
0.000186918
2.33677e-05
0.00288282
4.15065e-08
4.69466e-05
0.00280792
6.99193e-05
0.00270136
9.17784e-05
0.00255355
0.000112102
0.00236416
0.000130519
0.00213549
0.000146697
0.00187112
0.000160352
0.00157534
0.000171243
0.00125315
0.000179185
0.000910014
0.000184037
0.00055159
0.000183817
0.000185732
2.32171e-05
0.00285956
4.2477e-08
4.66463e-05
0.00278449
6.94733e-05
0.00267854
9.1194e-05
0.00253183
0.000111389
0.00234397
0.00012969
0.00211719
0.000145766
0.00185504
0.000159335
0.00156177
0.000170157
0.00124233
0.000178049
0.000902128
0.000182871
0.000546776
0.000182144
0.000184553
2.30674e-05
0.00283644
4.3277e-08
4.63479e-05
0.00276121
6.90301e-05
0.00265585
9.06133e-05
0.00251024
0.000110681
0.0023239
0.000128866
0.002099
0.000144841
0.00183906
0.000158324
0.00154829
0.000169078
0.00123157
0.00017692
0.000894279
0.000181711
0.000541975
0.000180451
0.000183382
2.29189e-05
0.00281348
4.3933e-08
4.60514e-05
0.00273808
6.85898e-05
0.00263332
9.00364e-05
0.0024888
0.000109977
0.00230396
0.000128047
0.00208094
0.000143921
0.00182319
0.000157319
0.00153489
0.000168006
0.00122089
0.000175799
0.000886493
0.000180559
0.000537222
0.0001788
0.000182218
2.27713e-05
0.00279067
4.44642e-08
4.57569e-05
0.00271509
6.81524e-05
0.00261092
8.94632e-05
0.00246749
0.000109278
0.00228414
0.000127234
0.00206298
0.000143007
0.00180742
0.000156321
0.00152157
0.000166941
0.00121026
0.000174684
0.000878742
0.000179414
0.00053248
0.000177127
0.000181062
2.26247e-05
0.002768
4.48876e-08
4.54644e-05
0.00269225
6.77178e-05
0.00258867
8.88937e-05
0.00244631
0.000108583
0.00226446
0.000126425
0.00204514
0.0001421
0.00179174
0.000155329
0.00150835
0.000165882
0.00119972
0.000173577
0.000871053
0.000178277
0.000527786
0.000175497
0.000179913
2.24792e-05
0.00274547
4.52096e-08
4.51737e-05
0.00266955
6.7286e-05
0.00256655
8.83278e-05
0.00242527
0.000107893
0.00224489
0.000125622
0.0020274
0.000141198
0.00177616
0.000154344
0.0014952
0.00016483
0.00118923
0.000172476
0.000863399
0.000177146
0.000523104
0.000173844
0.000178772
2.23346e-05
0.00272309
4.54362e-08
4.4885e-05
0.00264701
6.68571e-05
0.00254458
8.77657e-05
0.00240436
0.000107207
0.00222545
0.000124824
0.00200979
0.000140301
0.00176069
0.000153365
0.00148214
0.000163785
0.00117881
0.000171383
0.000855807
0.000176023
0.000518469
0.000172237
0.000177638
2.21911e-05
0.00270085
4.55685e-08
4.45982e-05
0.0026246
6.64309e-05
0.00252275
8.72071e-05
0.00238358
0.000106525
0.00220613
0.000124031
0.00199228
0.000139411
0.00174531
0.000152392
0.00146915
0.000162746
0.00116845
0.000170297
0.000848248
0.000174907
0.000513841
0.000170606
0.000176512
2.20486e-05
0.00267876
4.56164e-08
4.43133e-05
0.00260233
6.60075e-05
0.00250105
8.66521e-05
0.00236294
0.000105848
0.00218693
0.000123244
0.00197489
0.000138526
0.00173003
0.000151425
0.00145626
0.000161714
0.00115816
0.000169217
0.000840751
0.000173798
0.000509262
0.000169022
0.000175393
2.19071e-05
0.0026568
4.55948e-08
4.40302e-05
0.00258021
6.55869e-05
0.00247949
8.61007e-05
0.00234242
0.000105175
0.00216785
0.000122461
0.0019576
0.000137647
0.00171484
0.000150464
0.00144344
0.000160689
0.00114793
0.000168144
0.000833287
0.000172697
0.000504691
0.000167417
0.000174281
2.17665e-05
0.00263499
4.55336e-08
4.3749e-05
0.00255823
6.5169e-05
0.00245808
8.55529e-05
0.00232204
0.000104507
0.0021489
0.000121683
0.00194042
0.000136773
0.00169975
0.00014951
0.0014307
0.00015967
0.00113778
0.000167078
0.000825884
0.000171602
0.000500168
0.000165859
0.000173176
2.16269e-05
0.00261332
4.547e-08
4.34697e-05
0.00253638
6.47538e-05
0.00243679
8.50085e-05
0.00230178
0.000103843
0.00213007
0.00012091
0.00192335
0.000135905
0.00168475
0.000148561
0.00141804
0.000158657
0.00112768
0.000166019
0.000818514
0.000170514
0.000495652
0.000164277
0.000172079
2.14883e-05
0.00259179
4.54527e-08
4.31923e-05
0.00251468
6.43412e-05
0.00241564
8.44677e-05
0.00228166
0.000103183
0.00211135
0.000120142
0.00190639
0.000135042
0.00166986
0.000147619
0.00140547
0.000157651
0.00111765
0.000164967
0.000811203
0.000169433
0.000491184
0.000162743
0.000170988
2.13507e-05
0.00257039
4.5528e-08
4.29166e-05
0.00249311
6.39314e-05
0.00239462
8.39303e-05
0.00226166
0.000102527
0.00209275
0.000119379
0.00188954
0.000134185
0.00165505
0.000146682
0.00139297
0.000156651
0.00110767
0.000163921
0.000803924
0.00016836
0.000486723
0.000161187
0.000169905
2.1214e-05
0.00254913
4.57408e-08
4.26428e-05
0.00247169
6.35242e-05
0.00237375
8.33963e-05
0.00224179
0.000101875
0.00207428
0.000118621
0.00187279
0.000133333
0.00164034
0.000145751
0.00138055
0.000155658
0.00109777
0.000162882
0.000796705
0.000167293
0.000482312
0.000159675
0.000168828
2.10782e-05
0.002528
4.61207e-08
4.23708e-05
0.00245039
6.31196e-05
0.00235299
8.28658e-05
0.00222204
0.000101227
0.00205591
0.000117867
0.00185615
0.000132487
0.00162571
0.000144827
0.00136821
0.000154671
0.00108792
0.00016185
0.000789517
0.000166233
0.000477908
0.000158141
0.000167759
2.09434e-05
0.00250701
4.66853e-08
4.21005e-05
0.00242924
6.27177e-05
0.00233238
8.23387e-05
0.00220242
0.000100584
0.00203767
0.000117119
0.00183962
0.000131646
0.00161119
0.000143908
0.00135595
0.00015369
0.00107814
0.000160824
0.000782388
0.00016518
0.000473553
0.000156647
0.000166696
2.08094e-05
0.00248615
4.74309e-08
4.1832e-05
0.00240821
6.23183e-05
0.00231189
8.18149e-05
0.00218292
9.99447e-05
0.00201953
0.000116375
0.00182318
0.00013081
0.00159675
0.000142995
0.00134376
0.000152716
0.00106841
0.000159805
0.000775289
0.000164133
0.000469206
0.000155129
0.00016564
2.06764e-05
0.00246543
4.83418e-08
4.15653e-05
0.00238732
6.19215e-05
0.00229154
8.12945e-05
0.00216355
9.93095e-05
0.00200152
0.000115636
0.00180686
0.00012998
0.00158241
0.000142088
0.00133165
0.000151748
0.00105876
0.000158792
0.000768249
0.000163093
0.000464906
0.00015365
0.00016459
2.05442e-05
0.00244483
4.93873e-08
4.13003e-05
0.00236657
6.15272e-05
0.00227131
8.07773e-05
0.00214429
9.86782e-05
0.00198362
0.000114901
0.00179063
0.000129155
0.00156815
0.000141187
0.00131961
0.000150786
0.00104915
0.000157786
0.000761239
0.00016206
0.000460614
0.000152146
0.000163548
2.04129e-05
0.00242437
5.05344e-08
4.1037e-05
0.00234594
6.11354e-05
0.00225121
8.02635e-05
0.00212517
9.8051e-05
0.00196583
0.000114171
0.00177451
0.000128335
0.00155399
0.000140291
0.00130766
0.00014983
0.00103961
0.000156786
0.000754286
0.000161034
0.000456368
0.000150681
0.000162512
2.02824e-05
0.00240403
5.17463e-08
4.07754e-05
0.00232545
6.07462e-05
0.00223124
7.97529e-05
0.00210616
9.74278e-05
0.00194815
0.000113446
0.00175849
0.00012752
0.00153991
0.000139401
0.00129577
0.00014888
0.00103013
0.000155793
0.000747362
0.000160014
0.00045213
0.000149189
0.000161483
2.01528e-05
0.00238382
5.29949e-08
4.05155e-05
0.00230509
6.03594e-05
0.00221139
7.92456e-05
0.00208727
9.68085e-05
0.00193059
0.000112726
0.00174257
0.000126711
0.00152593
0.000138517
0.00128397
0.000147936
0.00102071
0.000154806
0.000740496
0.000159001
0.000447938
0.000147737
0.00016046
2.0024e-05
0.00236374
5.42557e-08
4.02573e-05
0.00228485
5.99751e-05
0.00219167
7.87415e-05
0.0020685
9.61932e-05
0.00191314
0.00011201
0.00172675
0.000125907
0.00151203
0.000137639
0.00127223
0.000146999
0.00101134
0.000153825
0.000733657
0.000157994
0.000443753
0.000146258
0.000159444
1.9896e-05
0.00234379
5.55168e-08
4.00006e-05
0.00226475
5.95932e-05
0.00217208
7.82406e-05
0.00204986
9.55817e-05
0.0018958
0.000111298
0.00171104
0.000125108
0.00149822
0.000136766
0.00126058
0.000146067
0.00100204
0.000152851
0.000726876
0.000156994
0.000439611
0.000144824
0.000158435
1.97689e-05
0.00232396
5.67693e-08
3.97457e-05
0.00224477
5.92138e-05
0.00215261
7.77429e-05
0.00203132
9.49742e-05
0.00187856
0.000110592
0.00169541
0.000124314
0.00148449
0.000135898
0.00124898
0.000145141
0.000992789
0.000151883
0.000720122
0.000156
0.000435474
0.000143359
0.000157433
1.96425e-05
0.00230426
5.80131e-08
3.94923e-05
0.00222492
5.88367e-05
0.00213327
7.72483e-05
0.00201292
9.43705e-05
0.00186144
0.000109889
0.0016799
0.000123525
0.00147086
0.000135037
0.00123747
0.000144222
0.000983606
0.000150921
0.000713425
0.000155013
0.000431381
0.000141946
0.000156437
1.95169e-05
0.00228468
5.92457e-08
3.92406e-05
0.0022052
5.84621e-05
0.00211404
7.67568e-05
0.00199462
9.37706e-05
0.00184442
0.000109191
0.00166447
0.000122741
0.0014573
0.00013418
0.00122603
0.000143308
0.000974468
0.000149966
0.000706754
0.000154032
0.000427293
0.000140504
0.000155448
1.93921e-05
0.00226523
6.04671e-08
3.89904e-05
0.0021856
5.80898e-05
0.00209495
7.62685e-05
0.00197644
9.31746e-05
0.00182752
0.000108498
0.00164915
0.000121962
0.00144384
0.00013333
0.00121466
0.0001424
0.000965399
0.000149016
0.00070014
0.000153057
0.00042325
0.000139113
0.000154466
1.9268e-05
0.0022459
6.16704e-08
3.87418e-05
0.00216612
5.77199e-05
0.00207597
7.57833e-05
0.00195837
9.25824e-05
0.00181072
0.000107809
0.00163392
0.000121188
0.00143045
0.000132485
0.00120336
0.000141498
0.000956375
0.000148073
0.000693552
0.000152089
0.000419209
0.000137691
0.00015349
1.91447e-05
0.00222669
6.28485e-08
3.84948e-05
0.00214678
5.73523e-05
0.00205711
7.53011e-05
0.00194043
9.19939e-05
0.00179403
0.000107124
0.00161879
0.00012042
0.00141716
0.000131645
0.00119213
0.000140602
0.000947419
0.000147136
0.000687019
0.000151127
0.000415215
0.000136323
0.00015252
1.90222e-05
0.0022076
6.39869e-08
3.82493e-05
0.00212755
5.6987e-05
0.00203837
7.48221e-05
0.00192259
9.14092e-05
0.00177743
0.000106444
0.00160375
0.000119656
0.00140394
0.00013081
0.00118097
0.000139712
0.000938506
0.000146205
0.000680512
0.000150172
0.000411223
0.000134926
0.000151557
1.89004e-05
0.00218863
6.50734e-08
3.80053e-05
0.00210844
5.6624e-05
0.00201975
7.4346e-05
0.00190487
9.08282e-05
0.00176095
0.000105768
0.00158881
0.000118897
0.00139081
0.000129982
0.00116989
0.000138827
0.000929661
0.00014528
0.000674061
0.000149223
0.000407279
0.000133579
0.0001506
1.87794e-05
0.00216978
6.6092e-08
3.77629e-05
0.00208946
5.62633e-05
0.00200125
7.3873e-05
0.00188725
9.02509e-05
0.00174457
0.000105097
0.00157396
0.000118143
0.00137776
0.000129158
0.00115886
0.000137948
0.000920859
0.000144361
0.000667634
0.00014828
0.000403337
0.0001322
0.00014965
1.8659e-05
0.00215106
6.70327e-08
3.7522e-05
0.0020706
5.59049e-05
0.00198287
7.3403e-05
0.00186976
8.96773e-05
0.0017283
0.000104429
0.00155921
0.000117393
0.0013648
0.00012834
0.00114792
0.000137075
0.000912124
0.000143448
0.000661263
0.000147343
0.000399443
0.00013087
0.000148706
1.85395e-05
0.00213245
6.7886e-08
3.72826e-05
0.00205185
5.55488e-05
0.0019646
7.29359e-05
0.00185237
8.91074e-05
0.00171212
0.000103766
0.00154455
0.000116649
0.00135191
0.000127527
0.00113703
0.000136208
0.000903431
0.000142541
0.000654916
0.000146412
0.000395551
0.000129508
0.000147768
1.84206e-05
0.00211396
6.86504e-08
3.70446e-05
0.00203323
5.51949e-05
0.00194645
7.24719e-05
0.00183509
8.85411e-05
0.00169606
0.000103108
0.00152998
0.000115909
0.00133911
0.000126719
0.00112622
0.000135346
0.000894805
0.00014164
0.000648624
0.000145488
0.000391706
0.000128192
0.000146836
1.83024e-05
0.00209558
6.93254e-08
3.68082e-05
0.00201472
5.48432e-05
0.00192841
7.20108e-05
0.00181792
8.79784e-05
0.00168008
0.000102453
0.0015155
0.000115174
0.00132638
0.000125916
0.00111547
0.00013449
0.00088622
0.000140745
0.000642355
0.000144569
0.000387863
0.000126842
0.00014591
1.8185e-05
0.00207733
6.99176e-08
3.65732e-05
0.00199634
5.44938e-05
0.0019105
7.15526e-05
0.00180086
8.74194e-05
0.00166422
0.000101803
0.00150112
0.000114444
0.00131374
0.000125119
0.00110479
0.000133639
0.000877701
0.000139855
0.000636141
0.000143657
0.000384066
0.000125542
0.00014499
1.80683e-05
0.00205918
7.0432e-08
3.63397e-05
0.00197806
5.41466e-05
0.00189269
7.10974e-05
0.00178391
8.68639e-05
0.00164845
0.000101157
0.00148682
0.000113719
0.00130117
0.000124327
0.00109417
0.000132794
0.000869222
0.000138972
0.00062995
0.000142751
0.000380271
0.000124204
0.000144076
1.79523e-05
0.00204116
7.08776e-08
3.61077e-05
0.00195991
5.38016e-05
0.00187499
7.0645e-05
0.00176707
8.6312e-05
0.00163278
0.000100515
0.00147261
0.000112998
0.00128869
0.00012354
0.00108363
0.000131954
0.000860808
0.000138094
0.000623813
0.00014185
0.000376522
0.000122918
0.000143169
1.7837e-05
0.00202325
7.12596e-08
3.58771e-05
0.00194187
5.34587e-05
0.00185741
7.01956e-05
0.00175033
8.57637e-05
0.00161721
9.98775e-05
0.00145849
0.000112282
0.00127627
0.000122758
0.00107315
0.00013112
0.000852435
0.000137222
0.000617698
0.000140955
0.000372773
0.000121593
0.000142267
1.77224e-05
0.00200545
7.15852e-08
3.56479e-05
0.00192394
5.3118e-05
0.00183994
6.9749e-05
0.0017337
8.52188e-05
0.00160174
9.92439e-05
0.00144447
0.000111571
0.00126395
0.000121981
0.00106274
0.000130291
0.000844126
0.000136355
0.000611638
0.000140067
0.00036907
0.000120321
0.000141371
1.76085e-05
0.00198777
7.18577e-08
3.54202e-05
0.00190613
5.27795e-05
0.00182258
6.93053e-05
0.00171717
8.46775e-05
0.00158636
9.86145e-05
0.00143053
0.000110864
0.00125169
0.00012121
0.00105238
0.000129468
0.000835856
0.000135495
0.000605598
0.000139184
0.000365367
0.000119009
0.000140481
1.74953e-05
0.0019702
7.20843e-08
3.51939e-05
0.00188843
5.24432e-05
0.00180533
6.88644e-05
0.00170075
8.41397e-05
0.00157109
9.7989e-05
0.00141668
0.000110162
0.00123951
0.000120443
0.0010421
0.00012865
0.00082765
0.00013464
0.000599612
0.000138307
0.00036171
0.000117751
0.000139597
1.73829e-05
0.00195275
7.22703e-08
3.4969e-05
0.00187085
5.2109e-05
0.00178819
6.84264e-05
0.00168443
8.36054e-05
0.0015559
9.73677e-05
0.00140291
0.000109465
0.00122741
0.000119681
0.00103187
0.000127837
0.000819483
0.00013379
0.000593647
0.000137435
0.000358052
0.000116453
0.000138719
1.72711e-05
0.0019354
7.2428e-08
3.47455e-05
0.00185337
5.17769e-05
0.00177116
6.79912e-05
0.00166822
8.30745e-05
0.00154082
9.67504e-05
0.00138923
0.000108772
0.00121539
0.000118925
0.00102172
0.00012703
0.000811379
0.000132946
0.000587735
0.00013657
0.000354439
0.00011521
0.000137846
1.716e-05
0.00191817
7.25702e-08
3.45235e-05
0.00183601
5.1447e-05
0.00175424
6.75588e-05
0.0016521
8.25471e-05
0.00152583
9.61371e-05
0.00137563
0.000108083
0.00120343
0.000118173
0.00101162
0.000126228
0.000803312
0.000132108
0.000581843
0.00013571
0.000350825
0.000113924
0.000136979
1.70497e-05
0.00190104
7.27173e-08
3.43029e-05
0.00181876
5.11191e-05
0.00173742
6.71292e-05
0.00163609
8.20231e-05
0.00151094
9.55278e-05
0.00136213
0.000107399
0.00119156
0.000117426
0.00100159
0.000125432
0.000795308
0.000131275
0.000576004
0.000134856
0.000347257
0.000112696
0.000136118
1.694e-05
0.00188403
7.28898e-08
3.40837e-05
0.00180161
5.07934e-05
0.00172071
6.67024e-05
0.00162018
8.15025e-05
0.00149613
9.49225e-05
0.0013487
0.00010672
0.00117976
0.000116684
0.00099162
0.00012464
0.000787342
0.000130448
0.000570185
0.000134007
0.000343685
0.000111423
0.000135263
1.6831e-05
0.00186712
7.31131e-08
3.38658e-05
0.00178458
5.04698e-05
0.00170411
6.62783e-05
0.00160437
8.09853e-05
0.00148142
9.43211e-05
0.00133537
0.000106045
0.00116803
0.000115947
0.000981718
0.000123854
0.000779437
0.000129626
0.000564418
0.000133164
0.000340161
0.00011021
0.000134413
1.67228e-05
0.00185032
7.34085e-08
3.36494e-05
0.00176765
5.01483e-05
0.00168761
6.5857e-05
0.00158866
8.04714e-05
0.00146681
9.37237e-05
0.00132211
0.000105374
0.00115638
0.000115215
0.000971867
0.000123073
0.000771569
0.00012881
0.000558669
0.000132326
0.000336632
0.00010895
0.000133569
1.66152e-05
0.00183363
7.37973e-08
3.34344e-05
0.00175083
4.98288e-05
0.00167121
6.54384e-05
0.00157305
7.99609e-05
0.00145228
9.31301e-05
0.00130894
0.000104708
0.0011448
0.000114488
0.000962088
0.000122297
0.000763762
0.000127999
0.000552973
0.000131495
0.00033315
0.000107751
0.00013273
1.65083e-05
0.00181705
7.42924e-08
3.32208e-05
0.00173412
4.95114e-05
0.00165492
6.50225e-05
0.00155754
7.94538e-05
0.00143785
9.25405e-05
0.00129585
0.000104046
0.00113329
0.000113765
0.00095236
0.000121526
0.000755991
0.000127193
0.000547295
0.000130668
0.000329664
0.000106504
0.000131897
1.64021e-05
0.00180057
7.49031e-08
3.30085e-05
0.00171752
4.91961e-05
0.00163874
6.46094e-05
0.00154213
7.89499e-05
0.00142351
9.19548e-05
0.00128284
0.000103388
0.00112185
0.000113047
0.000942702
0.000120761
0.00074828
0.000126393
0.000541669
0.000129847
0.000326224
0.000105319
0.000131069
1.62966e-05
0.00178419
7.56281e-08
3.27977e-05
0.00170101
4.88829e-05
0.00162265
6.4199e-05
0.00152681
7.84494e-05
0.00140925
9.13728e-05
0.00126991
0.000102735
0.00111048
0.000112334
0.000933094
0.00012
0.000740605
0.000125598
0.00053606
0.000129032
0.000322779
0.000104085
0.000130247
1.61918e-05
0.00176792
7.64626e-08
3.25882e-05
0.00168462
4.85716e-05
0.00160667
6.37912e-05
0.00151159
7.79521e-05
0.00139509
9.07947e-05
0.00125707
0.000102086
0.00109919
0.000111626
0.000923556
0.000119244
0.000732989
0.000124808
0.000530503
0.000128221
0.00031938
0.000102913
0.000129431
1.60877e-05
0.00175176
7.73935e-08
3.23801e-05
0.00166833
4.82625e-05
0.00159078
6.33861e-05
0.00149646
7.74581e-05
0.00138102
9.02205e-05
0.0012443
0.000101442
0.00108796
0.000110922
0.000914068
0.000118494
0.000725409
0.000124024
0.000524963
0.000127417
0.000315976
0.000101691
0.000128619
1.59843e-05
0.00173569
7.84067e-08
3.21734e-05
0.00165214
4.79553e-05
0.001575
6.29837e-05
0.00148143
7.69674e-05
0.00136703
8.965e-05
0.00123162
0.000100801
0.00107681
0.000110223
0.000904647
0.000117748
0.000717887
0.000123244
0.000519474
0.000126617
0.000312619
0.000100532
0.000127813
1.58816e-05
0.00171973
7.9484e-08
3.19681e-05
0.00163605
4.76502e-05
0.00155932
6.25839e-05
0.0014665
7.64799e-05
0.00135313
8.90832e-05
0.00121901
0.000100165
0.00106572
0.000109529
0.000895276
0.000117008
0.0007104
0.00012247
0.000514
0.000125823
0.000309254
9.93231e-05
0.000127013
1.57796e-05
0.00170387
8.06099e-08
3.17641e-05
0.00162007
4.73471e-05
0.00154374
6.21868e-05
0.00145166
7.59956e-05
0.00133932
8.85203e-05
0.00120649
9.95336e-05
0.00105471
0.000108839
0.000885972
0.000116272
0.00070297
0.000121701
0.000508578
0.000125034
0.000305937
9.81771e-05
0.000126218
1.56782e-05
0.00168811
8.1768e-08
3.15614e-05
0.00160419
4.70459e-05
0.00152825
6.17923e-05
0.00143691
7.55145e-05
0.0013256
8.7961e-05
0.00119404
9.89059e-05
0.00104376
0.000108154
0.000876717
0.000115541
0.000695575
0.000120937
0.000503172
0.000124251
0.000302612
9.69796e-05
0.000125428
1.55775e-05
0.00167244
8.29464e-08
3.13601e-05
0.00158841
4.67468e-05
0.00151287
6.14003e-05
0.00142226
7.50366e-05
0.00131196
8.74054e-05
0.00118167
9.82823e-05