1.45 	0 	0 	-0.298735
2.35 	0 	0 	-0.132632
