1.45 	0 	0 	0.00315879 	-0.00372402 	3.9578e-21
2.35 	0 	0 	0.110745 	-0.00837115 	1.98919e-21
