/*--------------------------------*- C++ -*----------------------------------*\
  =========                 |
  \\      /  F ield         | OpenFOAM: The Open Source CFD Toolbox
   \\    /   O peration     | Website:  https://openfoam.org
    \\  /    A nd           | Version:  6.0
     \\/     M anipulation  |
\*---------------------------------------------------------------------------*/
FoamFile
{
    version     2.0;
    format      ascii;
    class       volScalarField;
    location    "1.8";
    object      p;
}
// * * * * * * * * * * * * * * * * * * * * * * * * * * * * * * * * * * * * * //

dimensions      [0 2 -2 0 0 0 0];

internalField   nonuniform List<scalar> 
24000
(
1.00686
1.00659
1.006
1.00518
1.00421
1.00321
1.00231
1.00153
1.00088
1.0004
1.00002
0.999773
1.00687
1.00665
1.00615
1.00544
1.00455
1.00358
1.00266
1.00182
1.00108
1.00049
0.99997
0.999635
1.00687
1.00664
1.00611
1.00538
1.00446
1.00347
1.00254
1.00169
1.00096
1.0004
0.999893
0.99959
1.00687
1.00663
1.00608
1.00532
1.0044
1.00341
1.00248
1.00165
1.00093
1.00039
0.999873
0.99957
1.00688
1.00664
1.0061
1.00535
1.00445
1.00347
1.00256
1.00172
1.001
1.00043
0.999873
0.999534
1.00689
1.00665
1.00612
1.00538
1.00449
1.00352
1.00261
1.00177
1.00103
1.00043
0.999839
0.999472
1.0069
1.00666
1.00613
1.00539
1.00449
1.00352
1.0026
1.00174
1.00099
1.00039
0.999779
0.999403
1.0069
1.00668
1.00614
1.00539
1.00448
1.00351
1.00258
1.00172
1.00096
1.00035
0.99973
0.999348
1.00691
1.00669
1.00616
1.00541
1.0045
1.00353
1.00259
1.00173
1.00096
1.00034
0.999703
0.999307
1.00693
1.00671
1.00619
1.00545
1.00454
1.00357
1.00263
1.00176
1.00098
1.00034
0.99969
0.999272
1.00694
1.00674
1.00622
1.00548
1.00458
1.00361
1.00267
1.00179
1.001
1.00035
0.999676
0.999235
1.00695
1.00676
1.00625
1.00552
1.00462
1.00365
1.00271
1.00182
1.00102
1.00035
0.999658
0.999196
1.00697
1.00678
1.00628
1.00556
1.00466
1.00369
1.00274
1.00184
1.00103
1.00035
0.999636
0.999157
1.00698
1.0068
1.00631
1.0056
1.0047
1.00372
1.00277
1.00186
1.00104
1.00034
0.999614
0.99912
1.007
1.00682
1.00634
1.00563
1.00474
1.00376
1.0028
1.00188
1.00104
1.00033
0.999593
0.999085
1.00701
1.00685
1.00637
1.00567
1.00478
1.0038
1.00283
1.0019
1.00105
1.00033
0.999574
0.999051
1.00703
1.00687
1.00639
1.0057
1.00481
1.00384
1.00286
1.00192
1.00106
1.00032
0.999553
0.999016
1.00705
1.00689
1.00641
1.00573
1.00485
1.00387
1.00288
1.00194
1.00107
1.00031
0.999532
0.998984
1.00707
1.00691
1.00643
1.00575
1.00487
1.00389
1.00291
1.00195
1.00107
1.0003
0.999511
0.998951
1.00709
1.00693
1.00646
1.00578
1.0049
1.00392
1.00293
1.00197
1.00107
1.00029
0.999491
0.99892
1.00711
1.00695
1.00648
1.0058
1.00493
1.00395
1.00295
1.00198
1.00107
1.00028
0.999471
0.99889
1.00713
1.00698
1.00651
1.00583
1.00496
1.00397
1.00297
1.002
1.00108
1.00028
0.999453
0.998861
1.00715
1.00701
1.00654
1.00587
1.00499
1.004
1.003
1.00201
1.00108
1.00027
0.999433
0.998831
1.00718
1.00704
1.00657
1.0059
1.00503
1.00404
1.00302
1.00203
1.00109
1.00026
0.999414
0.998803
1.0072
1.00707
1.00661
1.00594
1.00506
1.00407
1.00305
1.00205
1.00109
1.00025
0.999393
0.998774
1.00723
1.0071
1.00664
1.00597
1.0051
1.0041
1.00308
1.00206
1.0011
1.00024
0.999373
0.998745
1.00726
1.00714
1.00668
1.00601
1.00513
1.00413
1.0031
1.00208
1.0011
1.00023
0.999353
0.998717
1.00729
1.00717
1.00672
1.00605
1.00517
1.00417
1.00313
1.00209
1.0011
1.00022
0.999333
0.99869
1.00732
1.00721
1.00676
1.00609
1.00521
1.0042
1.00315
1.00211
1.00111
1.00021
0.999314
0.998663
1.00736
1.00725
1.0068
1.00613
1.00525
1.00423
1.00318
1.00212
1.00111
1.0002
0.999296
0.998636
1.00739
1.00729
1.00684
1.00618
1.00529
1.00427
1.00321
1.00214
1.00112
1.00019
0.999277
0.998609
1.00743
1.00733
1.00689
1.00622
1.00533
1.00431
1.00324
1.00216
1.00112
1.00019
0.99926
0.998583
1.00746
1.00738
1.00693
1.00627
1.00538
1.00435
1.00327
1.00218
1.00113
1.00018
0.999242
0.998556
1.0075
1.00742
1.00698
1.00632
1.00543
1.00439
1.0033
1.0022
1.00114
1.00017
0.999224
0.998529
1.00754
1.00747
1.00703
1.00637
1.00547
1.00444
1.00334
1.00222
1.00115
1.00016
0.999204
0.998501
1.00758
1.00751
1.00708
1.00642
1.00552
1.00448
1.00337
1.00225
1.00115
1.00016
0.999185
0.998473
1.00762
1.00756
1.00713
1.00647
1.00557
1.00452
1.0034
1.00227
1.00116
1.00015
0.999164
0.998444
1.00766
1.0076
1.00717
1.00652
1.00562
1.00456
1.00344
1.00228
1.00116
1.00014
0.999143
0.998416
1.00771
1.00765
1.00722
1.00657
1.00567
1.0046
1.00347
1.0023
1.00117
1.00013
0.999122
0.998386
1.00775
1.0077
1.00727
1.00662
1.00571
1.00464
1.0035
1.00232
1.00117
1.00012
0.9991
0.998358
1.0078
1.00775
1.00732
1.00667
1.00576
1.00468
1.00353
1.00234
1.00117
1.00011
0.999078
0.998328
1.00785
1.0078
1.00737
1.00672
1.0058
1.00472
1.00356
1.00235
1.00118
1.0001
0.999056
0.998299
1.0079
1.00785
1.00742
1.00677
1.00585
1.00476
1.00358
1.00237
1.00118
1.00008
0.999033
0.998269
1.00795
1.0079
1.00747
1.00682
1.0059
1.0048
1.00362
1.00239
1.00118
1.00007
0.999011
0.99824
1.008
1.00796
1.00753
1.00687
1.00595
1.00485
1.00365
1.00241
1.00119
1.00006
0.998988
0.99821
1.00805
1.00801
1.00759
1.00693
1.006
1.00489
1.00368
1.00243
1.00119
1.00005
0.998965
0.99818
1.0081
1.00807
1.00765
1.00699
1.00605
1.00494
1.00371
1.00244
1.0012
1.00004
0.998942
0.998149
1.00816
1.00813
1.00771
1.00705
1.00611
1.00498
1.00375
1.00246
1.0012
1.00003
0.998919
0.998119
1.00822
1.00819
1.00777
1.00711
1.00616
1.00503
1.00378
1.00248
1.0012
1.00002
0.998895
0.998088
1.00827
1.00826
1.00783
1.00717
1.00622
1.00508
1.00382
1.0025
1.00121
1.00001
0.998873
0.998056
1.00833
1.00832
1.0079
1.00724
1.00628
1.00512
1.00385
1.00252
1.00121
0.999995
0.998849
0.998024
1.00839
1.00839
1.00797
1.0073
1.00634
1.00517
1.00389
1.00255
1.00122
0.999985
0.998826
0.997991
1.00845
1.00845
1.00803
1.00737
1.0064
1.00523
1.00393
1.00257
1.00122
0.999974
0.998802
0.997957
1.00852
1.00852
1.0081
1.00744
1.00646
1.00528
1.00397
1.00259
1.00123
0.999963
0.998778
0.997922
1.00858
1.00859
1.00817
1.00751
1.00652
1.00533
1.004
1.00261
1.00124
0.999951
0.998753
0.997886
1.00865
1.00866
1.00825
1.00758
1.00659
1.00538
1.00404
1.00264
1.00124
0.99994
0.998728
0.997849
1.00871
1.00873
1.00832
1.00765
1.00665
1.00544
1.00408
1.00266
1.00125
0.999927
0.998701
0.99781
1.00878
1.00881
1.00839
1.00772
1.00672
1.00549
1.00412
1.00268
1.00125
0.999915
0.998674
0.997771
1.00885
1.00888
1.00846
1.00779
1.00678
1.00555
1.00416
1.0027
1.00126
0.999901
0.998646
0.997731
1.00892
1.00896
1.00854
1.00786
1.00685
1.0056
1.0042
1.00273
1.00126
0.999888
0.998618
0.99769
1.00899
1.00903
1.00861
1.00794
1.00691
1.00566
1.00424
1.00275
1.00126
0.999873
0.998588
0.997648
1.00906
1.00911
1.00869
1.00801
1.00698
1.00571
1.00428
1.00277
1.00127
0.999859
0.998558
0.997606
1.00913
1.00919
1.00877
1.00809
1.00704
1.00577
1.00432
1.00279
1.00127
0.999844
0.998527
0.997563
1.00921
1.00927
1.00885
1.00816
1.00711
1.00582
1.00436
1.00282
1.00127
0.999829
0.998496
0.99752
1.00928
1.00935
1.00893
1.00824
1.00718
1.00588
1.0044
1.00284
1.00128
0.999813
0.998463
0.997475
1.00936
1.00944
1.00901
1.00832
1.00725
1.00594
1.00445
1.00286
1.00128
0.999798
0.998431
0.99743
1.00944
1.00952
1.0091
1.0084
1.00732
1.006
1.00449
1.00289
1.00128
0.999782
0.998398
0.997383
1.00952
1.00961
1.00919
1.00849
1.0074
1.00606
1.00453
1.00291
1.00129
0.999766
0.998365
0.997336
1.00961
1.0097
1.00927
1.00857
1.00747
1.00612
1.00458
1.00293
1.00129
0.999749
0.998331
0.997287
1.00969
1.00979
1.00936
1.00866
1.00755
1.00619
1.00462
1.00296
1.0013
0.999732
0.998297
0.997237
1.00978
1.00989
1.00946
1.00875
1.00763
1.00625
1.00467
1.00299
1.0013
0.999714
0.998261
0.997185
1.00987
1.00998
1.00955
1.00884
1.00771
1.00632
1.00472
1.00301
1.0013
0.999697
0.998225
0.997132
1.00996
1.01008
1.00965
1.00893
1.00779
1.00638
1.00476
1.00304
1.00131
0.999678
0.998187
0.997077
1.01005
1.01017
1.00974
1.00902
1.00787
1.00645
1.00481
1.00306
1.00131
0.999659
0.99815
0.997021
1.01014
1.01027
1.00984
1.00912
1.00795
1.00652
1.00486
1.00309
1.00131
0.999638
0.99811
0.996962
1.01024
1.01038
1.00994
1.00921
1.00804
1.00659
1.00491
1.00312
1.00132
0.999618
0.998069
0.996903
1.01033
1.01048
1.01004
1.00931
1.00812
1.00666
1.00496
1.00314
1.00132
0.999595
0.998027
0.996841
1.01043
1.01058
1.01015
1.00941
1.00821
1.00673
1.00501
1.00317
1.00132
0.999573
0.997984
0.996779
1.01053
1.01069
1.01025
1.00951
1.0083
1.0068
1.00506
1.00319
1.00132
0.999549
0.997939
0.996715
1.01063
1.01079
1.01036
1.00961
1.00838
1.00687
1.00511
1.00322
1.00132
0.999524
0.997894
0.99665
1.01074
1.0109
1.01046
1.00971
1.00847
1.00694
1.00516
1.00324
1.00132
0.999498
0.997846
0.996582
1.01084
1.01102
1.01057
1.00981
1.00856
1.00701
1.00521
1.00327
1.00132
0.999472
0.997798
0.996514
1.01095
1.01113
1.01068
1.00992
1.00865
1.00709
1.00526
1.00329
1.00131
0.999443
0.997748
0.996444
1.01106
1.01124
1.0108
1.01003
1.00875
1.00716
1.00531
1.00332
1.00131
0.999415
0.997698
0.996374
1.01117
1.01136
1.01091
1.01013
1.00884
1.00724
1.00536
1.00334
1.00131
0.999385
0.997645
0.996302
1.01128
1.01148
1.01103
1.01024
1.00893
1.00731
1.00541
1.00336
1.0013
0.999355
0.997593
0.996229
1.01139
1.0116
1.01114
1.01035
1.00903
1.00739
1.00546
1.00339
1.0013
0.999324
0.997538
0.996154
1.01151
1.01172
1.01126
1.01047
1.00913
1.00747
1.00551
1.00341
1.00129
0.999292
0.997484
0.996079
1.01163
1.01185
1.01139
1.01058
1.00923
1.00754
1.00556
1.00343
1.00129
0.999258
0.997427
0.996001
1.01175
1.01197
1.01151
1.0107
1.00933
1.00762
1.00561
1.00346
1.00128
0.999225
0.997369
0.995923
1.01187
1.0121
1.01164
1.01082
1.00943
1.0077
1.00567
1.00348
1.00127
0.999189
0.99731
0.995842
1.012
1.01224
1.01176
1.01094
1.00953
1.00778
1.00572
1.0035
1.00127
0.999154
0.99725
0.995761
1.01212
1.01237
1.01189
1.01106
1.00963
1.00786
1.00577
1.00353
1.00126
0.999116
0.997187
0.995677
1.01225
1.0125
1.01203
1.01118
1.00974
1.00795
1.00583
1.00355
1.00125
0.999079
0.997125
0.995593
1.01238
1.01264
1.01216
1.01131
1.00984
1.00803
1.00588
1.00357
1.00124
0.999039
0.997059
0.995506
1.01251
1.01278
1.01229
1.01143
1.00995
1.00811
1.00594
1.00359
1.00123
0.998999
0.996994
0.995419
1.01265
1.01292
1.01243
1.01156
1.01006
1.0082
1.00599
1.00362
1.00122
0.998957
0.996925
0.995328
1.01278
1.01307
1.01257
1.01169
1.01017
1.00829
1.00604
1.00364
1.00121
0.998915
0.996857
0.995238
1.01292
1.01321
1.01271
1.01182
1.01028
1.00837
1.0061
1.00366
1.00119
0.99887
0.996785
0.995143
1.01307
1.01336
1.01285
1.01195
1.01039
1.00846
1.00615
1.00368
1.00118
0.998825
0.996713
0.995049
1.01321
1.01351
1.013
1.01209
1.0105
1.00855
1.00621
1.0037
1.00116
0.998778
0.996638
0.994951
1.01336
1.01367
1.01314
1.01223
1.01062
1.00864
1.00627
1.00372
1.00115
0.99873
0.996562
0.994853
1.0135
1.01382
1.01329
1.01236
1.01073
1.00873
1.00632
1.00374
1.00113
0.99868
0.996484
0.99475
1.01366
1.01398
1.01344
1.0125
1.01085
1.00882
1.00638
1.00376
1.00111
0.99863
0.996405
0.994648
1.01381
1.01414
1.0136
1.01265
1.01097
1.00891
1.00644
1.00378
1.0011
0.998577
0.996322
0.994542
1.01397
1.01431
1.01375
1.01279
1.01109
1.009
1.00649
1.0038
1.00108
0.998524
0.996239
0.994435
1.01413
1.01447
1.01391
1.01294
1.01122
1.0091
1.00655
1.00382
1.00106
0.998468
0.996153
0.994324
1.01429
1.01464
1.01407
1.01309
1.01134
1.0092
1.00661
1.00384
1.00104
0.998413
0.996066
0.994213
1.01445
1.01481
1.01424
1.01324
1.01147
1.00929
1.00667
1.00386
1.00101
0.998353
0.995975
0.994097
1.01462
1.01499
1.01441
1.0134
1.0116
1.00939
1.00673
1.00388
1.00099
0.998295
0.995884
0.993981
1.01479
1.01516
1.01458
1.01355
1.01173
1.0095
1.00679
1.0039
1.00097
0.998232
0.995789
0.99386
1.01497
1.01534
1.01475
1.01371
1.01187
1.0096
1.00686
1.00392
1.00094
0.99817
0.995694
0.993739
1.01515
1.01553
1.01493
1.01388
1.01201
1.0097
1.00692
1.00394
1.00092
0.998104
0.995594
0.993613
1.01533
1.01572
1.01511
1.01404
1.01215
1.00981
1.00698
1.00396
1.00089
0.998038
0.995493
0.993486
1.01551
1.01591
1.01529
1.01421
1.01229
1.00992
1.00705
1.00398
1.00086
0.997968
0.995388
0.993353
1.0157
1.0161
1.01548
1.01439
1.01243
1.01003
1.00711
1.004
1.00083
0.997898
0.995283
0.99322
1.01589
1.0163
1.01567
1.01456
1.01258
1.01014
1.00718
1.00401
1.0008
0.997824
0.995172
0.993082
1.01609
1.0165
1.01586
1.01474
1.01273
1.01025
1.00724
1.00403
1.00077
0.997749
0.995061
0.992943
1.01628
1.0167
1.01606
1.01492
1.01288
1.01037
1.00731
1.00405
1.00073
0.997671
0.994945
0.992798
1.01648
1.01691
1.01626
1.01511
1.01304
1.01048
1.00738
1.00406
1.0007
0.997592
0.994828
0.992652
1.01669
1.01712
1.01646
1.0153
1.01319
1.0106
1.00744
1.00408
1.00066
0.997508
0.994705
0.9925
1.0169
1.01734
1.01667
1.01549
1.01335
1.01072
1.00751
1.00409
1.00062
0.997424
0.994582
0.992346
1.01711
1.01756
1.01688
1.01568
1.01352
1.01084
1.00758
1.00411
1.00058
0.997336
0.994453
0.992187
1.01733
1.01778
1.0171
1.01588
1.01368
1.01097
1.00765
1.00412
1.00054
0.997246
0.994323
0.992026
1.01755
1.01801
1.01732
1.01608
1.01385
1.01109
1.00772
1.00414
1.0005
0.997152
0.994187
0.991859
1.01778
1.01824
1.01754
1.01629
1.01403
1.01122
1.0078
1.00415
1.00045
0.997058
0.99405
0.99169
1.018
1.01848
1.01777
1.0165
1.0142
1.01135
1.00787
1.00416
1.0004
0.996958
0.993907
0.991514
1.01824
1.01872
1.018
1.01672
1.01438
1.01148
1.00794
1.00418
1.00035
0.996857
0.993762
0.991336
1.01848
1.01896
1.01824
1.01694
1.01457
1.01162
1.00802
1.00419
1.0003
0.996751
0.993611
0.991152
1.01872
1.01921
1.01849
1.01716
1.01475
1.01176
1.00809
1.0042
1.00025
0.996644
0.993458
0.990965
1.01896
1.01947
1.01873
1.01739
1.01494
1.0119
1.00817
1.00421
1.00019
0.996531
0.993299
0.990771
1.01922
1.01973
1.01899
1.01762
1.01514
1.01204
1.00825
1.00421
1.00014
0.996417
0.993137
0.990575
1.01947
1.02
1.01925
1.01786
1.01533
1.01218
1.00832
1.00422
1.00007
0.996297
0.992969
0.990371
1.01973
1.02027
1.01951
1.0181
1.01554
1.01233
1.0084
1.00423
1.00001
0.996176
0.992798
0.990164
1.02
1.02054
1.01978
1.01835
1.01574
1.01248
1.00848
1.00423
0.999945
0.996048
0.99262
0.989949
1.02027
1.02083
1.02005
1.0186
1.01595
1.01263
1.00856
1.00424
0.999877
0.995918
0.99244
0.989732
1.02055
1.02112
1.02033
1.01886
1.01617
1.01278
1.00864
1.00424
0.999804
0.995782
0.992251
0.989506
1.02083
1.02141
1.02062
1.01913
1.01638
1.01294
1.00872
1.00424
0.99973
0.995644
0.99206
0.989276
1.02112
1.02171
1.02091
1.01939
1.01661
1.0131
1.0088
1.00424
0.999651
0.995498
0.991861
0.989039
1.02141
1.02202
1.02121
1.01967
1.01683
1.01326
1.00888
1.00424
0.99957
0.995351
0.991659
0.988797
1.02171
1.02233
1.02151
1.01995
1.01706
1.01342
1.00896
1.00424
0.999484
0.995196
0.991448
0.988546
1.02202
1.02265
1.02182
1.02023
1.0173
1.01359
1.00904
1.00423
0.999396
0.995038
0.991234
0.988292
1.02233
1.02297
1.02214
1.02053
1.01754
1.01376
1.00912
1.00422
0.999303
0.994873
0.991011
0.988028
1.02265
1.02331
1.02247
1.02082
1.01779
1.01393
1.00921
1.00422
0.999207
0.994704
0.990784
0.98776
1.02297
1.02365
1.0228
1.02113
1.01803
1.0141
1.00929
1.0042
0.999105
0.994528
0.990548
0.987481
1.0233
1.02399
1.02314
1.02144
1.01829
1.01428
1.00937
1.00419
0.999001
0.994348
0.990308
0.987198
1.02364
1.02435
1.02348
1.02176
1.01855
1.01446
1.00946
1.00417
0.99889
0.994159
0.990057
0.986905
1.02399
1.02471
1.02384
1.02208
1.01882
1.01464
1.00954
1.00415
0.998777
0.993967
0.989803
0.986607
1.02434
1.02508
1.0242
1.02241
1.01909
1.01483
1.00962
1.00413
0.998657
0.993766
0.989538
0.986298
1.02471
1.02546
1.02457
1.02275
1.01936
1.01502
1.00971
1.00411
0.998533
0.99356
0.989267
0.985983
1.02507
1.02585
1.02495
1.0231
1.01964
1.01521
1.00979
1.00408
0.998402
0.993345
0.988987
0.985657
1.02545
1.02624
1.02533
1.02345
1.01993
1.0154
1.00987
1.00405
0.998268
0.993125
0.9887
0.985324
1.02584
1.02665
1.02573
1.02381
1.02022
1.0156
1.00995
1.00401
0.998125
0.992895
0.988402
0.98498
1.02623
1.02706
1.02613
1.02419
1.02052
1.0158
1.01003
1.00398
0.997979
0.992659
0.988098
0.98463
1.02664
1.02748
1.02655
1.02456
1.02083
1.016
1.01011
1.00393
0.997824
0.992413
0.987782
0.984267
1.02705
1.02791
1.02697
1.02495
1.02114
1.01621
1.01019
1.00389
0.997664
0.992161
0.987459
0.983897
1.02747
1.02836
1.0274
1.02535
1.02146
1.01641
1.01027
1.00384
0.997495
0.991898
0.987124
0.983514
1.0279
1.02881
1.02785
1.02575
1.02178
1.01662
1.01035
1.00378
0.99732
0.991627
0.986782
0.983123
1.02834
1.02927
1.0283
1.02616
1.02211
1.01684
1.01042
1.00372
0.997136
0.991345
0.986426
0.982719
1.02879
1.02975
1.02877
1.02659
1.02245
1.01705
1.0105
1.00365
0.996946
0.991056
0.986062
0.982306
1.02926
1.03023
1.02924
1.02702
1.02279
1.01727
1.01057
1.00358
0.996745
0.990754
0.985684
0.981879
1.02973
1.03073
1.02973
1.02747
1.02314
1.01749
1.01064
1.0035
0.996538
0.990443
0.985298
0.981443
1.03021
1.03124
1.03023
1.02792
1.0235
1.01771
1.01071
1.00342
0.996319
0.990119
0.984897
0.980992
1.03071
1.03176
1.03074
1.02838
1.02387
1.01794
1.01077
1.00333
0.996092
0.989786
0.984486
0.980532
1.03121
1.03229
1.03127
1.02886
1.02424
1.01817
1.01083
1.00323
0.995854
0.989439
0.98406
0.980056
1.03173
1.03284
1.03181
1.02935
1.02462
1.0184
1.01089
1.00312
0.995606
0.989082
0.983624
0.97957
1.03226
1.0334
1.03236
1.02984
1.02501
1.01863
1.01095
1.003
0.995346
0.98871
0.983172
0.979067
1.0328
1.03397
1.03292
1.03036
1.0254
1.01886
1.011
1.00288
0.995076
0.988327
0.982708
0.978553
1.03336
1.03456
1.0335
1.03088
1.02581
1.0191
1.01104
1.00275
0.994792
0.987928
0.982227
0.978023
1.03393
1.03517
1.0341
1.03141
1.02622
1.01933
1.01109
1.00261
0.994497
0.987517
0.981734
0.97748
1.03451
1.03579
1.03471
1.03196
1.02664
1.01957
1.01112
1.00245
0.994187
0.987088
0.981224
0.976919
1.03511
1.03642
1.03534
1.03252
1.02707
1.01981
1.01115
1.00229
0.993864
0.986647
0.980699
0.976345
1.03573
1.03707
1.03598
1.0331
1.0275
1.02005
1.01118
1.00212
0.993525
0.986187
0.980157
0.975753
1.03636
1.03774
1.03664
1.03369
1.02795
1.02029
1.0112
1.00193
0.993173
0.985713
0.979599
0.975147
1.037
1.03843
1.03732
1.0343
1.0284
1.02053
1.0112
1.00173
0.992803
0.985219
0.979022
0.974521
1.03767
1.03914
1.03801
1.03492
1.02886
1.02077
1.01121
1.00151
0.992418
0.98471
0.97843
0.97388
1.03835
1.03986
1.03873
1.03555
1.02933
1.02101
1.0112
1.00128
0.992013
0.98418
0.977816
0.973219
1.03904
1.04061
1.03947
1.03621
1.0298
1.02124
1.01118
1.00104
0.991592
0.983632
0.977186
0.972542
1.03976
1.04137
1.04022
1.03687
1.03029
1.02148
1.01115
1.00078
0.99115
0.983063
0.976533
0.971844
1.0405
1.04216
1.041
1.03756
1.03078
1.02171
1.01111
1.0005
0.990689
0.982474
0.975863
0.971129
1.04125
1.04297
1.0418
1.03826
1.03129
1.02194
1.01106
1.0002
0.990206
0.981862
0.975169
0.970391
1.04203
1.04381
1.04262
1.03899
1.0318
1.02217
1.01099
0.999887
0.989702
0.98123
0.974456
0.969635
1.04283
1.04466
1.04347
1.03973
1.03232
1.02239
1.01091
0.999549
0.989173
0.980572
0.973719
0.968856
1.04365
1.04554
1.04434
1.04049
1.03284
1.0226
1.01082
0.99919
0.988621
0.979892
0.97296
0.968057
1.04449
1.04645
1.04524
1.04127
1.03338
1.02281
1.0107
0.998806
0.988043
0.979185
0.972176
0.967234
1.04536
1.04739
1.04616
1.04207
1.03392
1.02301
1.01057
0.998398
0.987439
0.978454
0.971369
0.966391
1.04626
1.04835
1.04711
1.04289
1.03446
1.02321
1.01041
0.997963
0.986806
0.977695
0.970536
0.965521
1.04718
1.04935
1.0481
1.04373
1.03502
1.02339
1.01024
0.997501
0.986146
0.976909
0.969678
0.96463
1.04812
1.05037
1.04911
1.04459
1.03558
1.02356
1.01004
0.997009
0.985453
0.976092
0.968791
0.963712
1.0491
1.05143
1.05015
1.04548
1.03614
1.02372
1.00981
0.996486
0.984731
0.975247
0.967879
0.962771
1.05011
1.05252
1.05123
1.04638
1.03671
1.02386
1.00956
0.995928
0.983973
0.974369
0.966937
0.961802
1.05114
1.05364
1.05234
1.04731
1.03728
1.02398
1.00927
0.995337
0.983182
0.973461
0.965967
0.960808
1.05221
1.0548
1.05349
1.04827
1.03785
1.02409
1.00896
0.994707
0.982353
0.972517
0.964965
0.959785
1.05331
1.056
1.05468
1.04925
1.03842
1.02417
1.0086
0.994039
0.981488
0.971541
0.963934
0.958736
1.05445
1.05725
1.0559
1.05025
1.039
1.02423
1.00821
0.993328
0.980581
0.970527
0.96287
0.957656
1.05563
1.05853
1.05716
1.05128
1.03957
1.02426
1.00778
0.992575
0.979634
0.969478
0.961775
0.956549
1.05684
1.05986
1.05847
1.05233
1.04013
1.02426
1.00731
0.991773
0.978643
0.968389
0.960645
0.95541
1.05809
1.06123
1.05982
1.0534
1.04069
1.02423
1.00679
0.990923
0.977608
0.967262
0.959482
0.954242
1.05939
1.06266
1.06122
1.0545
1.04124
1.02416
1.00621
0.99002
0.976525
0.966093
0.958282
0.953041
1.06073
1.06413
1.06267
1.05563
1.04177
1.02404
1.00558
0.989064
0.975394
0.964884
0.957047
0.95181
1.06211
1.06566
1.06417
1.05677
1.04229
1.02388
1.00489
0.988048
0.974211
0.963629
0.955774
0.950544
1.06355
1.06725
1.06572
1.05795
1.04279
1.02367
1.00414
0.986973
0.972977
0.962332
0.954464
0.949246
1.06503
1.0689
1.06732
1.05914
1.04327
1.0234
1.00332
0.985833
0.971686
0.960986
0.953114
0.947912
1.06657
1.07061
1.06899
1.06035
1.04372
1.02307
1.00243
0.984626
0.97034
0.959596
0.951725
0.946545
1.06816
1.0724
1.07071
1.06158
1.04413
1.02267
1.00146
0.983347
0.968933
0.958155
0.950295
0.945141
1.06982
1.07425
1.07249
1.06282
1.0445
1.02219
1.00041
0.981995
0.967466
0.956665
0.948824
0.943702
1.07154
1.07618
1.07434
1.06408
1.04482
1.02163
0.999261
0.980564
0.965935
0.955124
0.947309
0.942224
1.07332
1.07819
1.07626
1.06535
1.04509
1.02097
0.998023
0.979053
0.964339
0.953531
0.945753
0.94071
1.07517
1.08029
1.07824
1.06662
1.04529
1.02022
0.996682
0.977456
0.962676
0.951883
0.944151
0.939156
1.0771
1.08248
1.08029
1.06789
1.04542
1.01935
0.995233
0.975771
0.960944
0.950182
0.942506
0.937564
1.07911
1.08477
1.08241
1.06915
1.04546
1.01836
0.993669
0.973992
0.959139
0.948425
0.940815
0.935931
1.0812
1.08716
1.08461
1.0704
1.0454
1.01723
0.991984
0.972119
0.957263
0.946611
0.939078
0.934259
1.08338
1.08967
1.08688
1.07162
1.04522
1.01597
0.99017
0.970145
0.955311
0.944739
0.937294
0.932545
1.08565
1.09229
1.08922
1.07281
1.04492
1.01454
0.98822
0.96807
0.953283
0.94281
0.935464
0.93079
1.08803
1.09504
1.09164
1.07395
1.04447
1.01295
0.986127
0.965888
0.951177
0.940821
0.933585
0.928992
1.09051
1.09793
1.09413
1.07502
1.04386
1.01117
0.983885
0.963597
0.948993
0.938773
0.931659
0.927153
1.09311
1.10095
1.09668
1.07602
1.04306
1.00919
0.981485
0.961195
0.946728
0.936664
0.929684
0.92527
1.09584
1.10414
1.0993
1.07691
1.04205
1.007
0.978922
0.958679
0.944383
0.934495
0.927662
0.923345
1.0987
1.10748
1.10198
1.07768
1.0408
1.00457
0.976189
0.956047
0.941956
0.932266
0.925589
0.921377
1.10171
1.11101
1.1047
1.0783
1.03929
1.00191
0.973281
0.953298
0.939449
0.929977
0.923469
0.919365
1.10488
1.11471
1.10745
1.07873
1.03749
0.998976
0.970192
0.950431
0.93686
0.927627
0.9213
0.91731
1.10823
1.11861
1.11022
1.07894
1.03536
0.995771
0.96692
0.947447
0.93419
0.925219
0.919083
0.915212
1.11176
1.12272
1.11299
1.07889
1.03288
0.992273
0.96346
0.944344
0.931441
0.922751
0.916817
0.91307
1.1155
1.12704
1.11572
1.07853
1.03
0.988469
0.959812
0.941126
0.928613
0.920227
0.914504
0.910884
1.11946
1.13158
1.1184
1.07781
1.02668
0.984348
0.955975
0.937794
0.925708
0.917645
0.912143
0.908654
1.12368
1.13635
1.12097
1.07667
1.0229
0.979899
0.951952
0.934351
0.92273
0.915009
0.909737
0.906382
1.12817
1.14135
1.12338
1.07504
1.01861
0.975113
0.947746
0.930802
0.91968
0.912319
0.907285
0.904065
1.13296
1.14658
1.12558
1.07285
1.01377
0.969987
0.943365
0.927151
0.916562
0.909579
0.904788
0.901706
1.13809
1.15204
1.12749
1.07002
1.00835
0.964522
0.938815
0.923404
0.913379
0.90679
0.902248
0.899304
1.1436
1.15771
1.12902
1.06646
1.00231
0.958721
0.93411
0.919569
0.910136
0.903955
0.899665
0.896859
1.14953
1.16356
1.13008
1.06208
0.995616
0.952597
0.929263
0.915654
0.906837
0.901077
0.897041
0.894372
1.15592
1.16956
1.13053
1.05678
0.988258
0.946169
0.924292
0.911667
0.903489
0.898159
0.894378
0.891844
1.16283
1.17565
1.13025
1.05046
0.980218
0.93946
0.919214
0.907618
0.900096
0.895205
0.891677
0.889275
1.17032
1.18177
1.12907
1.04303
0.971497
0.932506
0.914054
0.903517
0.896664
0.892218
0.888939
0.886666
1.17844
1.1878
1.12679
1.03437
0.962111
0.925351
0.908833
0.899375
0.8932
0.889201
0.886167
0.88402
1.18727
1.19362
1.12323
1.0244
0.952097
0.918045
0.903577
0.895202
0.889711
0.88616
0.883363
0.881336
1.19687
1.19905
1.11814
1.01306
0.941512
0.910648
0.898311
0.89101
0.886202
0.883098
0.880528
0.878618
1.20731
1.20387
1.11127
1.00028
0.930443
0.903228
0.893062
0.886809
0.882682
0.880019
0.877667
0.875867
1.21866
1.20779
1.10235
0.986047
0.919004
0.895855
0.887851
0.88261
0.879157
0.876929
0.874782
0.873087
1.23097
1.21048
1.09109
0.970399
0.907339
0.888605
0.882702
0.878421
0.875634
0.873833
0.871879
0.87028
1.24426
1.21147
1.07722
0.953427
0.895621
0.881547
0.877631
0.874252
0.872121
0.870739
0.868967
0.867451
1.25853
1.21025
1.06046
0.935308
0.88405
0.874751
0.872653
0.87011
0.868622
0.867647
0.866045
0.864592
1.2737
1.20615
1.04057
0.916314
0.872833
0.86826
0.867774
0.866009
0.865165
0.864604
0.863169
0.861745
1.2896
1.19837
1.01742
0.89684
0.862203
0.862129
0.86299
0.861914
0.861684
0.861499
0.860217
0.858807
1.30592
1.18594
0.990991
0.877347
0.852294
0.856353
0.858385
0.858032
0.858489
0.858721
0.857547
0.856018
1.32214
1.16773
0.96163
0.858617
0.843392
0.850749
0.853459
0.853649
0.854721
0.855459
0.854481
0.852917
1.33728
1.14233
0.929767
0.840841
0.835889
0.846523
0.850034
0.850861
0.852453
0.853414
0.852261
0.850295
1.35019
1.10891
0.898475
0.824261
0.826725
0.839148
0.84347
0.845557
0.848512
0.850343
0.849347
0.847073
1.35726
1.06316
0.872064
0.817801
0.826477
0.838262
0.841292
0.843128
0.846467
0.848658
0.84765
0.845134
1.35993
0.991132
0.821945
0.79351
0.815569
0.832773
0.83819
0.84146
0.845718
0.848375
0.847559
0.845127
0.996284
0.996371
0.996974
0.99746
0.997536
0.997293
0.997016
0.99692
0.997033
0.997244
0.997432
0.997541
0.996691
0.996668
0.997093
0.997454
0.9975
0.997291
0.997053
0.996968
0.997066
0.997256
0.997431
0.997539
0.997131
0.996952
0.99715
0.997372
0.997414
0.99728
0.997109
0.997038
0.99711
0.997266
0.997422
0.997527
0.997424
0.997115
0.997145
0.997289
0.997363
0.997311
0.997197
0.997127
0.99716
0.997275
0.997408
0.997508
0.99757
0.997203
0.997156
0.997275
0.997379
0.997375
0.997285
0.997199
0.997194
0.997273
0.997387
0.997483
0.997652
0.997289
0.99722
0.997321
0.997422
0.997423
0.997334
0.997237
0.997209
0.997265
0.997365
0.997459
0.99774
0.997402
0.997317
0.997382
0.997452
0.997442
0.997356
0.997261
0.997226
0.997268
0.997355
0.997442
0.997843
0.997521
0.99741
0.99743
0.997467
0.997449
0.997372
0.997287
0.997249
0.997277
0.997349
0.997427
0.997939
0.997621
0.997482
0.997466
0.997478
0.997456
0.997389
0.997311
0.997269
0.997284
0.997342
0.997411
0.998011
0.997697
0.997539
0.997497
0.997492
0.997466
0.997403
0.997329
0.997284
0.997289
0.997336
0.997398
0.99806
0.997754
0.997587
0.997528
0.997508
0.997475
0.997413
0.997343
0.997296
0.997295
0.997332
0.997386
0.998096
0.997801
0.99763
0.997557
0.997522
0.997482
0.997421
0.997353
0.997307
0.9973
0.997328
0.997373
0.998124
0.997841
0.997667
0.997581
0.997534
0.997487
0.997426
0.997362
0.997316
0.997304
0.997323
0.997359
0.998147
0.997874
0.997697
0.9976
0.997544
0.997492
0.997432
0.997369
0.997322
0.997305
0.997316
0.997345
0.998164
0.997899
0.99772
0.997616
0.997552
0.997496
0.997435
0.997373
0.997324
0.997302
0.997307
0.997331
0.998176
0.997918
0.997739
0.99763
0.997559
0.997499
0.997436
0.997373
0.997323
0.997298
0.997299
0.997319
0.998182
0.997932
0.997753
0.99764
0.997564
0.9975
0.997434
0.99737
0.99732
0.997293
0.997292
0.997309
0.998186
0.997943
0.997764
0.997647
0.997566
0.997497
0.99743
0.997366
0.997316
0.997288
0.997285
0.9973
0.998187
0.99795
0.997772
0.99765
0.997564
0.997492
0.997424
0.99736
0.99731
0.997283
0.997278
0.997292
0.998186
0.997954
0.997775
0.99765
0.99756
0.997486
0.997417
0.997354
0.997305
0.997278
0.997271
0.997283
0.998182
0.997953
0.997774
0.997647
0.997554
0.997478
0.997409
0.997347
0.997299
0.997271
0.997263
0.997273
0.998175
0.99795
0.99777
0.997641
0.997547
0.997471
0.997402
0.99734
0.997292
0.997264
0.997254
0.997261
0.998165
0.997943
0.997764
0.997634
0.99754
0.997462
0.997393
0.997332
0.997284
0.997254
0.997243
0.997247
0.998153
0.997934
0.997757
0.997627
0.997532
0.997454
0.997384
0.997322
0.997274
0.997243
0.99723
0.997232
0.99814
0.997925
0.997748
0.997619
0.997522
0.997444
0.997374
0.997311
0.997261
0.997229
0.997214
0.997215
0.998126
0.997915
0.99774
0.99761
0.997513
0.997433
0.997362
0.997298
0.997247
0.997213
0.997197
0.997197
0.998111
0.997904
0.99773
0.9976
0.997501
0.99742
0.997347
0.997282
0.99723
0.997195
0.997178
0.997177
0.998097
0.997892
0.99772
0.997589
0.997489
0.997406
0.997331
0.997265
0.997212
0.997176
0.997158
0.997157
0.998081
0.99788
0.997708
0.997576
0.997474
0.997389
0.997313
0.997246
0.997192
0.997156
0.997137
0.997136
0.998065
0.997866
0.997695
0.997561
0.997457
0.99737
0.997294
0.997226
0.997171
0.997135
0.997116
0.997114
0.998047
0.997851
0.997679
0.997543
0.997437
0.99735
0.997272
0.997204
0.997149
0.997113
0.997093
0.997091
0.998029
0.997834
0.997662
0.997524
0.997416
0.997328
0.99725
0.997181
0.997126
0.99709
0.99707
0.997068
0.998009
0.997815
0.997642
0.997502
0.997393
0.997304
0.997226
0.997158
0.997103
0.997066
0.997046
0.997045
0.997988
0.997795
0.997621
0.997479
0.997369
0.997279
0.997201
0.997134
0.997079
0.997042
0.997022
0.99702
0.997965
0.997772
0.997597
0.997454
0.997342
0.997253
0.997175
0.997108
0.997053
0.997016
0.996997
0.996995
0.997941
0.997749
0.997572
0.997427
0.997315
0.997226
0.997149
0.997082
0.997027
0.99699
0.996971
0.99697
0.997917
0.997723
0.997545
0.997399
0.997286
0.997197
0.99712
0.997054
0.997
0.996963
0.996944
0.996944
0.997891
0.997697
0.997517
0.997369
0.997256
0.997167
0.997091
0.997025
0.996972
0.996936
0.996918
0.996918
0.997865
0.997669
0.997487
0.997338
0.997224
0.997135
0.997061
0.996995
0.996943
0.996907
0.99689
0.996891
0.997839
0.997641
0.997456
0.997305
0.997191
0.997103
0.997029
0.996965
0.996913
0.996878
0.996862
0.996864
0.997811
0.997611
0.997424
0.997271
0.997156
0.997069
0.996996
0.996933
0.996882
0.996848
0.996832
0.996835
0.997783
0.99758
0.997391
0.997236
0.997121
0.997034
0.996962
0.9969
0.99685
0.996817
0.996802
0.996805
0.997754
0.997548
0.997356
0.9972
0.997085
0.996998
0.996927
0.996865
0.996816
0.996784
0.99677
0.996774
0.997724
0.997515
0.99732
0.997163
0.997047
0.996961
0.996891
0.99683
0.996782
0.996751