/*--------------------------------*- C++ -*----------------------------------*\
  =========                 |
  \\      /  F ield         | OpenFOAM: The Open Source CFD Toolbox
   \\    /   O peration     | Website:  https://openfoam.org
    \\  /    A nd           | Version:  6.0
     \\/     M anipulation  |
\*---------------------------------------------------------------------------*/
FoamFile
{
    version     2.0;
    format      ascii;
    class       volVectorField;
    location    "1.8";
    object      U;
}
// * * * * * * * * * * * * * * * * * * * * * * * * * * * * * * * * * * * * * //

dimensions      [0 1 -1 0 0 0 0];

internalField   nonuniform List<vector> 
34500
(
(0.999996 5.75625e-06 -4.63299e-17)
(0.99997 -7.57014e-06 -8.13469e-18)
(0.999922 -3.31344e-05 1.42197e-16)
(0.999858 -7.56152e-05 -1.07633e-16)
(0.999789 -0.000136951 3.35386e-17)
(0.999725 -0.000215552 -1.01428e-16)
(0.999675 -0.00030772 -1.00945e-16)
(0.999645 -0.000407737 8.64817e-17)
(0.99964 -0.000507441 1.07201e-16)
(0.99966 -0.000598313 -6.82633e-16)
(0.999705 -0.000671094 -1.0394e-15)
(0.999768 -0.000726728 1.26642e-16)
(0.999843 -0.000749925 4.33317e-16)
(0.999971 -0.00080463 -2.06731e-16)
(0.998966 -0.0012964 7.58133e-17)
(0.999992 1.5722e-05 3.2446e-17)
(0.999945 -1.6146e-05 9.76257e-17)
(0.99986 -6.99577e-05 7.17413e-17)
(0.999748 -0.000152098 -3.02112e-16)
(0.99963 -0.000266142 -5.05687e-16)
(0.999521 -0.000409669 -5.50149e-17)
(0.999438 -0.000576047 2.55386e-16)
(0.999392 -0.000754978 -6.76879e-16)
(0.999391 -0.000930759 -1.78512e-16)
(0.999438 -0.0010873 6.80886e-16)
(0.999528 -0.00120616 1.26084e-15)
(0.99965 -0.0012889 -6.28267e-16)
(0.999783 -0.00130508 -9.82398e-16)
(1.00006 -0.00133788 -3.937e-16)
(0.999046 -0.0017766 5.17694e-16)
(0.99999 2.425e-05 1.04674e-17)
(0.999948 -2.12361e-05 -1.22903e-16)
(0.999876 -8.58406e-05 -1.2514e-16)
(0.999785 -0.000172197 4.55522e-16)
(0.999689 -0.000283056 -2.86062e-17)
(0.999605 -0.000416045 -1.63938e-16)
(0.999545 -0.00056538 9.77662e-17)
(0.999518 -0.000723088 3.84333e-16)
(0.999531 -0.000874807 2.38301e-19)
(0.999584 -0.00100697 -3.9257e-16)
(0.999675 -0.00110144 -7.27154e-16)
(0.999796 -0.00116147 4.13037e-16)
(0.999905 -0.0011619 2.24334e-16)
(1.0002 -0.00115794 1.63982e-16)
(0.999566 -0.00132462 -2.43226e-16)
(0.999986 3.17011e-05 -1.73543e-17)
(0.999952 -2.76085e-05 -9.0228e-18)
(0.999895 -0.000102749 4.83109e-17)
(0.999824 -0.000192934 -3.05288e-16)
(0.999753 -0.000300312 3.72061e-16)
(0.999694 -0.000422617 3.29749e-16)
(0.999656 -0.000555128 -3.99214e-16)
(0.999646 -0.000692246 -4.19604e-16)
(0.999669 -0.000822161 4.34603e-16)
(0.999726 -0.000934802 -4.70027e-16)
(0.999812 -0.00101434 -2.44118e-16)
(0.999926 -0.00106598 -3.84714e-16)
(1.00001 -0.0010746 5.41146e-16)
(1.00028 -0.00107161 -4.78908e-17)
(0.999852 -0.00122285 2.13959e-17)
(0.99998 3.87942e-05 -1.70432e-17)
(0.999947 -3.51467e-05 1.53299e-16)
(0.999893 -0.00012465 6.95409e-17)
(0.999826 -0.000227345 1.69701e-16)
(0.999761 -0.000345534 4.67261e-17)
(0.999709 -0.000476799 -1.58163e-16)
(0.99968 -0.000616244 1.0246e-16)
(0.999678 -0.000758286 2.6611e-16)
(0.99971 -0.000891574 -4.17332e-16)
(0.999774 -0.00100706 -2.30756e-16)
(0.999866 -0.00108957 1.0053e-15)
(0.999989 -0.00114446 6.33229e-16)
(1.00007 -0.00116154 -2.89074e-16)
(1.00031 -0.00115549 5.90798e-16)
(1.00003 -0.00129454 -5.85971e-16)
(0.999973 4.59554e-05 1.83516e-17)
(0.999938 -4.23308e-05 -9.48002e-17)
(0.999884 -0.000146797 -1.86304e-16)
(0.999817 -0.000264081 -5.29216e-17)
(0.999754 -0.000396737 1.0939e-16)
(0.999704 -0.000542065 -1.08792e-16)
(0.99968 -0.000694456 1.4809e-16)
(0.999686 -0.000847271 1.31102e-16)
(0.999727 -0.000988548 2.90788e-16)
(0.999803 -0.00110903 -1.00167e-16)
(0.999906 -0.00119339 2.87971e-18)
(1.00004 -0.00124568 -3.88688e-16)
(1.00014 -0.0012575 1.82781e-17)
(1.00036 -0.00123031 -4.67798e-16)
(1.00019 -0.00129289 7.39998e-17)
(0.999965 5.3279e-05 3.25539e-18)
(0.99993 -4.87256e-05 -3.55839e-17)
(0.999878 -0.000166922 -2.90141e-17)
(0.999815 -0.000296779 1.75694e-16)
(0.999757 -0.000440872 -2.20377e-16)
(0.999715 -0.000596337 2.75332e-16)
(0.999698 -0.000757051 -6.18918e-16)
(0.999714 -0.000915511 -3.69624e-16)
(0.999766 -0.00105916 -1.51489e-16)
(0.999853 -0.00117857 6.70782e-16)
(0.999967 -0.00125853 -7.67505e-16)
(1.00012 -0.00130169 2.97676e-16)
(1.00022 -0.00130183 4.55407e-16)
(1.00042 -0.00125041 -9.56667e-17)
(1.00035 -0.00124791 -1.20499e-16)
(0.999956 6.07922e-05 1.51159e-17)
(0.999921 -5.46182e-05 3.22829e-17)
(0.999874 -0.000185767 2.5024e-17)
(0.999818 -0.000326827 -1.50827e-16)
(0.999768 -0.000480221 3.28755e-16)
(0.999735 -0.000643042 -1.39533e-16)
(0.99973 -0.000808926 2.01443e-16)
(0.999756 -0.000969892 -1.46189e-16)
(0.999819 -0.00111291 3.97316e-16)
(0.999917 -0.00122849 1.7762e-16)
(1.00004 -0.00130183 2.44537e-16)
(1.0002 -0.00133445 -5.64503e-17)
(1.00031 -0.00132325 -5.03844e-16)
(1.00049 -0.00125284 1.13632e-15)
(1.00048 -0.00121431 1.86197e-16)
(0.999946 6.85547e-05 -1.12155e-17)
(0.999912 -6.02408e-05 9.89417e-17)
(0.999869 -0.000204259 1.50767e-16)
(0.999821 -0.000356432 1.11888e-16)
(0.99978 -0.000518904 -4.88504e-16)
(0.999757 -0.000688689 1.40909e-16)
(0.999762 -0.000859288 3.20563e-16)
(0.9998 -0.00102245 7.72086e-16)
(0.999873 -0.0011647 -3.85181e-16)
(0.999982 -0.00127645 8.99838e-17)
(1.00011 -0.00134332 4.48709e-16)
(1.00028 -0.00136594 -3.23413e-16)
(1.00041 -0.00134453 -1.5383e-16)
(1.00058 -0.00125948 -3.80244e-16)
(1.00061 -0.00119791 8.38921e-17)
(0.999934 7.66432e-05 4.06836e-17)
(0.999901 -6.56241e-05 -8.97239e-17)
(0.999862 -0.000222626 8.85056e-18)
(0.999821 -0.000386141 -1.1015e-16)
(0.99979 -0.00055793 4.105e-16)
(0.999778 -0.000734768 7.95795e-17)
(0.999794 -0.000910009 2.7012e-16)
(0.999843 -0.00107529 -5.72803e-16)
(0.999928 -0.00121682 4.15664e-17)
(1.00005 -0.00132495 -7.86383e-17)
(1.00019 -0.00138582 -1.39572e-16)
(1.00036 -0.00139932 4.40933e-17)
(1.0005 -0.00136889 5.91584e-16)
(1.00066 -0.00127271 -8.03225e-16)
(1.00072 -0.00119479 -2.68982e-16)
(0.999921 8.5111e-05 -2.62205e-17)
(0.999889 -7.07621e-05 3.52446e-17)
(0.999854 -0.000240873 -1.47496e-16)
(0.999821 -0.00041595 2.49887e-16)
(0.999799 -0.000597287 -3.61459e-16)
(0.999798 -0.000781246 -3.02971e-16)
(0.999826 -0.000960978 -3.38721e-16)
(0.999887 -0.00112814 3.90989e-17)
(0.999982 -0.00126884 -8.13732e-17)
(1.00011 -0.00137361 -4.24274e-16)
(1.00026 -0.00142931 -7.20668e-16)
(1.00044 -0.00143521 2.85601e-16)
(1.0006 -0.00139757 -3.28039e-16)
(1.00075 -0.00129374 9.05927e-16)
(1.00083 -0.0012044 5.36522e-17)
(0.999907 9.39985e-05 -2.45522e-17)
(0.999875 -7.56627e-05 -1.04217e-16)
(0.999845 -0.000259066 1.50707e-16)
(0.999818 -0.000446027 -2.34105e-16)
(0.999806 -0.000637369 7.68493e-17)
(0.999816 -0.000828884 4.54048e-16)
(0.999855 -0.00101343 5.53755e-17)
(0.999928 -0.00118272 -6.73246e-17)
(1.00004 -0.00132296 1.81474e-16)
(1.00017 -0.00142506 -1.5684e-16)
(1.00033 -0.00147678 -9.50261e-17)
(1.00052 -0.00147676 -6.67358e-17)
(1.00069 -0.00143333 -2.86886e-16)
(1.00085 -0.0013238 -6.20714e-16)
(1.00094 -0.00122373 1.24005e-17)
(0.999892 0.000103329 -2.1764e-18)
(0.99986 -8.03343e-05 1.40475e-16)
(0.999834 -0.000277272 -2.21476e-16)
(0.999814 -0.000476559 8.33899e-17)
(0.99981 -0.000678594 -9.35412e-17)
(0.99983 -0.000878494 -1.54716e-16)
(0.999881 -0.00106872 -3.88827e-17)
(0.999966 -0.00124092 3.64936e-16)
(1.00008 -0.00138149 -6.30045e-16)
(1.00023 -0.00148177 4.20116e-16)
(1.0004 -0.00153045 2.20413e-16)
(1.0006 -0.00152549 1.83974e-16)
(1.00077 -0.00147626 7.48928e-16)
(1.00094 -0.00136048 7.29334e-16)
(1.00104 -0.00124673 5.48022e-16)
(0.999875 0.000113116 8.30234e-18)
(0.999844 -8.47587e-05 5.28684e-17)
(0.999821 -0.000295459 1.76031e-16)
(0.999806 -0.000507481 5.57594e-17)
(0.999811 -0.00072086 1.70603e-16)
(0.999841 -0.000929993 1.68017e-16)
(0.999903 -0.00112684 -1.1844e-17)
(1 -0.0013028 4.92842e-17)
(1.00013 -0.00144446 9.37455e-16)
(1.00029 -0.00154345 -1.13876e-16)
(1.00047 -0.00158932 5.41977e-16)
(1.00067 -0.00157928 -7.38697e-16)
(1.00086 -0.00152289 1.36892e-16)
(1.00103 -0.00139872 -1.34359e-15)
(1.00115 -0.00126806 -6.15881e-16)
(0.999856 0.000123354 9.93863e-18)
(0.999826 -8.89204e-05 -1.17663e-16)
(0.999806 -0.000313544 1.54764e-16)
(0.999797 -0.000538553 -2.24061e-16)
(0.99981 -0.00076366 1.56805e-16)
(0.999849 -0.000982555 2.07162e-17)
(0.999922 -0.00118662 1.94973e-16)
(1.00003 -0.00136689 -2.59943e-16)
(1.00017 -0.00150997 -8.38823e-16)
(1.00035 -0.00160769 2.49199e-16)
(1.00053 -0.00165031 -5.60011e-16)
(1.00075 -0.00163428 1.12772e-16)
(1.00094 -0.00156894 -4.8996e-16)
(1.00113 -0.00143418 2.65468e-16)
(1.00127 -0.00128547 -1.08409e-16)
(0.999836 0.000134021 3.32346e-17)
(0.999807 -9.28114e-05 7.18753e-17)
(0.99979 -0.000331446 -3.58892e-16)
(0.999787 -0.000569518 2.88328e-16)
(0.999807 -0.00080642 -2.79899e-16)
(0.999856 -0.00103518 -3.72888e-16)
(0.999941 -0.00124659 -3.82845e-16)
(1.00006 -0.00143122 3.37518e-16)
(1.00021 -0.00157565 7.18688e-16)
(1.0004 -0.00167171 1.62979e-16)
(1.0006 -0.00171029 9.46761e-17)
(1.00082 -0.00168722 7.00576e-17)
(1.00103 -0.00161157 -7.32538e-16)
(1.00122 -0.00146509 6.43452e-17)
(1.00138 -0.00129971 6.32132e-16)
(0.999815 0.000145073 -8.96493e-17)
(0.999786 -9.64538e-05 -9.23817e-17)
(0.999773 -0.000349147 3.42788e-17)
(0.999776 -0.000600243 -2.64288e-16)
(0.999805 -0.000848783 -1.79633e-17)
(0.999864 -0.00108719 4.81542e-16)
(0.999959 -0.00130566 5.50575e-17)
(1.00009 -0.00149437 3.04009e-16)
(1.00026 -0.00163976 -6.02704e-16)
(1.00045 -0.00173366 -3.09576e-16)
(1.00067 -0.00176748 4.44448e-16)
(1.0009 -0.0017367 -1.49005e-16)
(1.00111 -0.00165029 4.83429e-16)
(1.00132 -0.00149235 7.48942e-16)
(1.0015 -0.00131342 -5.97827e-17)
(0.999792 0.00015646 2.8085e-17)
(0.999764 -9.98811e-05 1.14736e-17)
(0.999755 -0.000366674 1.15599e-16)
(0.999764 -0.000630729 2.25827e-18)
(0.999802 -0.000890678 9.88404e-17)
(0.999871 -0.00113837 -2.89564e-16)
(0.999979 -0.00136346 5.98088e-16)
(1.00012 -0.00155578 -1.53442e-16)
(1.0003 -0.00170173 6.52295e-16)
(1.00051 -0.00179307 -3.41226e-16)
(1.00073 -0.00182178 -5.43276e-16)
(1.00098 -0.00178325 5.24283e-16)
(1.0012 -0.00168654 -8.83788e-16)
(1.00141 -0.00151842 -1.30138e-15)
(1.0016 -0.00132936 -3.29242e-16)
(0.999767 0.000168118 3.12698e-18)
(0.999741 -0.000103145 1.94952e-17)
(0.999736 -0.000384107 -3.12093e-17)
(0.999752 -0.000661106 1.58634e-16)
(0.999798 -0.000932301 1.08798e-16)
(0.999879 -0.00118898 -4.26611e-17)
(0.999998 -0.00142029 -3.60505e-16)
(1.00016 -0.00161586 -3.4751e-16)
(1.00035 -0.00176209 -2.34883e-16)
(1.00057 -0.00185078 4.32808e-16)
(1.0008 -0.0018745 3.35329e-16)
(1.00105 -0.00182874 -4.92964e-16)
(1.00129 -0.00172277 1.09482e-15)
(1.00151 -0.00154601 1.37126e-15)
(1.00171 -0.00134932 4.63163e-17)
(0.999741 0.000179984 3.57564e-17)
(0.999716 -0.000106293 -4.75898e-17)
(0.999715 -0.000401529 2.29393e-16)
(0.999738 -0.000691548 -4.56852e-17)
(0.999794 -0.00097398 -1.74358e-16)
(0.999886 -0.00123954 7.39159e-17)
(1.00002 -0.00147692 -1.29672e-16)
(1.00019 -0.00167559 2.93408e-16)
(1.00039 -0.00182209 7.71249e-17)
(1.00063 -0.00190833 5.39119e-17)
(1.00087 -0.0019275 -2.57174e-16)
(1.00113 -0.00187532 3.4133e-16)
(1.00138 -0.00176112 1.7394e-16)
(1.0016 -0.00157685 1.55353e-16)
(1.00181 -0.0013734 3.93431e-16)
(0.999713 0.000191993 -1.83819e-17)
(0.99969 -0.000109372 2.72425e-17)
(0.999693 -0.000419022 -3.71845e-16)
(0.999723 -0.000722226 -2.37893e-16)
(0.999788 -0.00101605 3.29237e-16)
(0.999892 -0.00129061 -8.91279e-17)
(1.00004 -0.00153417 5.20619e-16)
(1.00022 -0.00173608 -1.41341e-16)
(1.00044 -0.00188309 -7.50626e-18)
(1.00068 -0.00196729 -1.4991e-16)
(1.00094 -0.00198245 3.84889e-16)
(1.00121 -0.00192455 -2.42562e-16)
(1.00146 -0.00180273 -7.97169e-16)
(1.0017 -0.00161125 -1.8965e-16)
(1.00191 -0.00140044 -4.49402e-16)
(0.999684 0.000204086 2.47448e-17)
(0.999663 -0.000112414 1.12552e-16)
(0.999669 -0.000436629 3.35149e-16)
(0.999706 -0.000753233 2.60102e-16)
(0.99978 -0.00105871 -3.20598e-17)
(0.999895 -0.00134257 -1.30234e-16)
(1.00005 -0.00159261 -5.76346e-16)
(1.00025 -0.0017981 -6.70046e-17)
(1.00048 -0.00194599 -3.42297e-16)
(1.00074 -0.00202854 1.10855e-16)
(1.00101 -0.00204009 -7.0548e-16)
(1.00129 -0.00197681 3.40257e-16)
(1.00155 -0.00184743 1.14844e-15)
(1.00179 -0.00164822 -8.84983e-16)
(1.00202 -0.00142868 5.2392e-16)
(0.999654 0.000216207 -1.99528e-17)
(0.999634 -0.000115451 -1.58366e-16)
(0.999644 -0.00045437 -1.91814e-16)
(0.999687 -0.000784584 -9.56653e-17)
(0.99977 -0.001102 -6.12645e-17)
(0.999896 -0.00139549 8.41044e-17)
(1.00006 -0.0016524 -3.22065e-17)
(1.00027 -0.00186183 -4.42336e-16)
(1.00052 -0.00201095 -1.30187e-16)
(1.00079 -0.00209216 -3.27746e-17)
(1.00107 -0.00210021 6.42129e-16)
(1.00136 -0.00203148 1.0738e-16)
(1.00164 -0.00189408 -9.54826e-16)
(1.00189 -0.00168624 5.06418e-16)
(1.00212 -0.00145662 -1.01406e-16)
(0.999623 0.000228312 1.8024e-17)
(0.999603 -0.000118501 9.31141e-17)
(0.999617 -0.000472227 9.23208e-17)
(0.999666 -0.000816213 1.79538e-16)
(0.999758 -0.00114577 -9.78152e-17)
(0.999894 -0.00144917 -2.75127e-17)
(1.00008 -0.00171325 1.98771e-16)
(1.0003 -0.00192693 2.97001e-16)
(1.00055 -0.0020775 -2.14049e-17)
(1.00084 -0.00215745 -3.58511e-16)
(1.00113 -0.00216187 -2.75542e-16)
(1.00144 -0.00208731 -4.84261e-16)
(1.00172 -0.00194129 2.03075e-17)
(1.00198 -0.00172393 2.62227e-16)
(1.00223 -0.00148359 -1.58539e-16)
(0.99959 0.000240358 -9.63733e-18)
(0.999571 -0.000121589 -5.51026e-17)
(0.999588 -0.000490187 1.40207e-16)
(0.999644 -0.00084803 1.4705e-17)
(0.999745 -0.00118984 -1.24518e-16)
(0.999892 -0.00150327 1.00406e-16)
(1.00008 -0.00177467 -4.79602e-17)
(1.00032 -0.00199275 2.73848e-16)
(1.00059 -0.00214483 5.0594e-16)
(1.00089 -0.00222345 7.8561e-17)
(1.0012 -0.00222397 2.37785e-16)
(1.00151 -0.00214315 2.41972e-16)
(1.00181 -0.00198803 5.97069e-17)
(1.00208 -0.00176068 -5.39634e-16)
(1.00233 -0.00150977 1.30704e-16)
(0.999557 0.000252321 1.29094e-17)
(0.999538 -0.000124732 1.16055e-17)
(0.999559 -0.000508233 -2.86439e-16)
(0.99962 -0.000879949 -1.25132e-16)
(0.99973 -0.00123399 1.75919e-16)
(0.999888 -0.00155743 -2.74594e-17)
(1.00009 -0.00183617 1.83643e-16)
(1.00034 -0.00205863 -2.43897e-16)
(1.00063 -0.00221218 1.39025e-16)
(1.00094 -0.00228934 1.15612e-16)
(1.00126 -0.00228571 1.22017e-16)
(1.00159 -0.00219835 1.55222e-16)
(1.00189 -0.00203401 2.15684e-16)
(1.00217 -0.00179671 3.03361e-17)
(1.00244 -0.00153604 7.68891e-17)
(0.999522 0.000264174 -3.97188e-17)
(0.999503 -0.000127962 1.05095e-16)
(0.999528 -0.000526373 1.64468e-16)
(0.999596 -0.000911936 -1.05275e-16)
(0.999714 -0.00127814 -6.8438e-17)
(0.999883 -0.00161149 3.8951e-17)
(1.0001 -0.00189746 -2.00063e-16)
(1.00036 -0.00212423 -1.30899e-16)
(1.00066 -0.00227916 -1.71919e-16)
(1.00099 -0.00235478 2.73212e-16)
(1.00132 -0.00234691 -3.78955e-16)
(1.00166 -0.00225302 2.95912e-16)
(1.00198 -0.00207968 1.44865e-16)
(1.00227 -0.00183286 5.41789e-16)
(1.00254 -0.00156346 -4.95254e-16)
(0.999486 0.000275911 1.67598e-17)
(0.999467 -0.0001313 -7.91029e-17)
(0.999495 -0.000544625 5.79151e-17)
(0.99957 -0.000944004 1.28088e-16)
(0.999698 -0.00132228 -8.87986e-17)
(0.999878 -0.00166543 -1.50064e-16)
(1.00011 -0.00195852 -7.10457e-17)
(1.00039 -0.00218953 9.79002e-17)
(1.0007 -0.00234583 -4.47779e-16)
(1.00104 -0.00241995 6.60622e-17)
(1.00139 -0.00240796 2.51794e-16)
(1.00174 -0.00230777 -7.03529e-16)
(1.00207 -0.00212586 1.41988e-16)
(1.00237 -0.00187006 2.1736e-17)
(1.00265 -0.00159254 3.6522e-16)
(0.999449 0.000287526 -6.37151e-18)
(0.99943 -0.000134775 9.69489e-17)
(0.999461 -0.000563032 -9.36617e-17)
(0.999543 -0.000976221 -5.81312e-17)
(0.99968 -0.00136654 -9.27094e-17)
(0.999872 -0.00171944 -4.90248e-17)
(1.00012 -0.00201962 -1.057e-16)
(1.00041 -0.00225489 7.54591e-17)
(1.00073 -0.00241265 2.90163e-17)
(1.00109 -0.00248545 -3.10027e-16)
(1.00145 -0.0024696 -3.69773e-16)
(1.00181 -0.00236347 4.10074e-16)
(1.00216 -0.00217344 -3.57776e-16)
(1.00246 -0.00190903 -1.13832e-16)
(1.00275 -0.00162353 -1.1184e-17)
(0.999411 0.000299028 -1.92798e-17)
(0.999391 -0.0001384 -4.47857e-17)
(0.999426 -0.000581628 3.16304e-17)
(0.999514 -0.00100867 2.25383e-16)
(0.999661 -0.00141107 3.76372e-16)
(0.999864 -0.00177378 3.07243e-16)
(1.00012 -0.00208114 3.35663e-16)
(1.00043 -0.00232081 -2.14124e-16)
(1.00077 -0.00248023 6.68834e-20)
(1.00114 -0.00255198 2.32181e-16)
(1.00151 -0.00253257 4.5709e-17)
(1.00189 -0.00242081 2.51978e-16)
(1.00224 -0.00222291 2.02384e-16)
(1.00256 -0.00194991 -5.29873e-16)
(1.00285 -0.00165589 -3.47375e-16)
(0.999371 0.000310426 9.91966e-18)
(0.999351 -0.000142191 -8.09462e-17)
(0.99939 -0.000600449 -1.61909e-16)
(0.999485 -0.00104142 -1.58922e-16)
(0.99964 -0.00145604 1.46062e-17)
(0.999856 -0.00182872 -1.73458e-16)
(1.00013 -0.00214347 -3.77647e-16)
(1.00044 -0.00238776 2.8822e-16)
(1.0008 -0.00254911 2.34385e-16)
(1.00118 -0.00262008 -5.16743e-16)
(1.00158 -0.00259733 4.23795e-16)
(1.00196 -0.00248008 -3.08846e-16)
(1.00233 -0.00227429 -1.42293e-16)
(1.00266 -0.0019924 -1.24331e-16)
(1.00296 -0.00168902 1.47997e-16)
(0.99933 0.000321741 3.77604e-17)
(0.99931 -0.000146145 1.73688e-17)
(0.999352 -0.000619506 8.75701e-17)
(0.999453 -0.00107453 4.06771e-17)
(0.999618 -0.00150154 4.78553e-17)
(0.999845 -0.00188442 2.99997e-16)
(1.00013 -0.00220681 -1.35542e-16)
(1.00046 -0.00245602 1.48096e-16)
(1.00083 -0.00261954 8.5021e-17)
(1.00123 -0.00268992 5.92404e-17)
(1.00164 -0.00266392 1.97327e-16)
(1.00204 -0.00254111 -4.20567e-17)
(1.00242 -0.00232716 9.34253e-18)
(1.00276 -0.00203583 8.67218e-16)
(1.00306 -0.00172221 2.75321e-18)
(0.999288 0.000332989 -3.66518e-17)
(0.999267 -0.000150262 -1.26581e-17)
(0.999312 -0.000638807 5.7253e-17)
(0.99942 -0.001108 -1.74554e-16)
(0.999594 -0.00154759 -2.79574e-16)
(0.999833 -0.00194092 -2.67855e-16)
(1.00013 -0.00227123 2.26936e-16)
(1.00048 -0.0025256 -8.29905e-17)
(1.00086 -0.00269148 9.67693e-18)
(1.00128 -0.00276136 -5.01461e-18)
(1.0017 -0.00273204 -2.72558e-16)
(1.00211 -0.00260343 -2.46255e-16)
(1.0025 -0.00238092 -1.5872e-16)
(1.00285 -0.00207961 2.40746e-17)
(1.00317 -0.00175515 -5.42194e-17)
(0.999244 0.000344198 -1.82978e-17)
(0.999222 -0.000154524 4.84259e-17)
(0.999271 -0.000658332 4.7643e-17)
(0.999385 -0.00114181 7.7528e-17)
(0.999569 -0.00159414 1.06036e-16)
(0.999819 -0.00199813 1.67556e-18)
(1.00013 -0.00233659 2.26838e-16)
(1.00049 -0.00259631 -5.05759e-16)
(1.00089 -0.00276466 2.57876e-16)
(1.00132 -0.00283401 2.62957e-16)
(1.00176 -0.0028012 -3.7611e-16)
(1.00219 -0.00266648 7.02195e-16)
(1.00259 -0.00243506 3.69461e-16)
(1.00295 -0.00212336 -6.8795e-16)
(1.00328 -0.00178782 -2.04459e-16)
(0.999199 0.000355384 3.78386e-17)
(0.999176 -0.000158924 2.93805e-17)
(0.999229 -0.000678071 4.58799e-18)
(0.999349 -0.00117592 -3.47546e-17)
(0.999542 -0.00164113 2.016e-17)
(0.999803 -0.00205593 2.84424e-16)
(1.00013 -0.00240268 -4.58413e-17)
(1.0005 -0.00266787 3.2456e-16)
(1.00092 -0.00283871 -4.80183e-17)
(1.00137 -0.00290747 -2.90863e-16)
(1.00182 -0.00287099 6.01711e-16)
(1.00226 -0.0027299 -3.60985e-16)
(1.00268 -0.00248935 -4.88463e-16)
(1.00305 -0.0021671 2.06329e-16)
(1.00338 -0.0018206 3.44587e-16)
(0.999152 0.000366573 -3.1466e-17)
(0.999129 -0.000163443 -1.32645e-17)
(0.999185 -0.000698003 -1.72967e-16)
(0.999311 -0.0012103 -8.45286e-17)
(0.999514 -0.00168847 5.2055e-17)
(0.999787 -0.00211417 -2.87134e-16)
(1.00012 -0.00246932 -8.4401e-17)
(1.00052 -0.00274002 2.82875e-16)
(1.00095 -0.00291335 -2.39203e-16)
(1.00141 -0.00298145 7.01348e-17)
(1.00188 -0.00294117 -3.35055e-16)
(1.00234 -0.00279358 1.05376e-17)
(1.00277 -0.00254386 2.64389e-16)
(1.00315 -0.00221109 1.39018e-16)
(1.00349 -0.00185389 -5.41172e-17)
(0.999104 0.000377779 3.00176e-17)
(0.99908 -0.000168072 -9.73903e-17)
(0.999139 -0.000718127 8.17503e-17)
(0.999273 -0.00124493 5.35041e-17)
(0.999484 -0.00173613 -4.03394e-17)
(0.999769 -0.00217282 -1.72477e-16)
(1.00012 -0.00253641 5.22923e-17)
(1.00053 -0.00281267 -1.29687e-16)
(1.00098 -0.0029885 -2.18638e-16)
(1.00146 -0.00305591 -2.73224e-17)
(1.00194 -0.00301181 -4.84209e-16)
(1.00241 -0.00285773 4.95382e-16)
(1.00285 -0.00259895 3.84849e-17)
(1.00325 -0.00225581 -7.93629e-17)
(1.0036 -0.00188818 -7.71379e-18)
(0.999053 0.000389023 -3.68178e-17)
(0.99903 -0.000172797 1.00257e-16)
(0.999092 -0.000738439 -2.30301e-17)
(0.999232 -0.00127983 -2.09788e-16)
(0.999453 -0.00178414 -9.99529e-17)
(0.999751 -0.00223187 1.16106e-16)
(1.00012 -0.00260398 -1.70356e-16)
(1.00054 -0.00288587 -1.90805e-16)
(1.00101 -0.00306424 3.24678e-16)
(1.0015 -0.00313103 1.12956e-16)
(1.002 -0.00308319 5.08075e-16)
(1.00249 -0.00292272 -3.82021e-16)
(1.00294 -0.00265504 1.37214e-16)
(1.00335 -0.00230166 -1.54388e-16)
(1.0037 -0.00192363 5.14237e-18)
(0.999002 0.000400313 2.27881e-17)
(0.998978 -0.000177613 -5.8017e-17)
(0.999044 -0.000758956 7.20651e-17)
(0.999191 -0.00131503 3.12581e-16)
(0.999422 -0.00183256 1.32643e-16)
(0.999731 -0.00229145 8.22869e-17)
(1.00011 -0.00267219 3.38366e-16)
(1.00055 -0.00295982 1.60786e-16)
(1.00104 -0.00314085 -2.64792e-16)
(1.00155 -0.00320714 4.51102e-16)
(1.00206 -0.0031557 2.50809e-16)
(1.00256 -0.00298898 -2.12204e-16)
(1.00303 -0.00271251 -4.05715e-16)
(1.00345 -0.00234891 -1.57556e-16)
(1.00381 -0.00196029 6.07706e-17)
(0.998948 0.000411666 4.67904e-18)
(0.998925 -0.000182507 -1.23606e-16)
(0.998994 -0.000779689 -9.17279e-17)
(0.999148 -0.00135059 -2.1523e-16)
(0.999388 -0.00188149 3.45718e-17)
(0.99971 -0.00235169 -3.3417e-16)
(1.00011 -0.00274123 -3.59228e-16)
(1.00056 -0.00303476 -1.44484e-16)
(1.00106 -0.00321862 3.0777e-16)
(1.00159 -0.00328457 -3.26864e-16)
(1.00212 -0.00322966 1.15557e-16)
(1.00264 -0.00305677 2.14749e-16)
(1.00312 -0.00277152 3.25868e-16)
(1.00355 -0.00239752 1.98732e-16)
(1.00392 -0.00199785 1.68604e-17)
(0.998893 0.000423087 3.28894e-17)
(0.99887 -0.000187475 2.02023e-16)
(0.998943 -0.000800658 9.40228e-17)
(0.999103 -0.00138656 1.80685e-16)
(0.999354 -0.00193102 1.08256e-16)
(0.999688 -0.00241275 4.56331e-17)
(1.0001 -0.00281129 5.26371e-17)
(1.00057 -0.00311093 -1.20926e-16)
(1.00109 -0.0032978 -1.22609e-16)
(1.00163 -0.00336356 1.43659e-17)
(1.00218 -0.00330527 -7.89594e-16)
(1.00271 -0.0031262 -3.08287e-16)
(1.00321 -0.00283204 3.24032e-16)
(1.00365 -0.00244736 -7.22207e-17)
(1.00403 -0.00203614 -1.99839e-16)
(0.998836 0.000434588 -4.42051e-17)
(0.998814 -0.000192504 -1.29461e-16)
(0.99889 -0.000821867 -1.85923e-16)
(0.999057 -0.00142298 6.10775e-17)
(0.999317 -0.00198123 -2.05381e-16)
(0.999665 -0.00247472 3.82548e-17)
(1.00009 -0.00288251 -4.73496e-17)
(1.00058 -0.00318847 -8.64315e-18)
(1.00111 -0.00337852 -1.46512e-16)
(1.00167 -0.00344419 -7.68096e-17)
(1.00224 -0.00338253 2.71922e-17)
(1.00279 -0.00319717 2.67735e-16)
(1.0033 -0.00289388 -1.34883e-16)
(1.00375 -0.00249815 2.66125e-16)
(1.00413 -0.00207484 9.39761e-17)
(0.998778 0.000446171 2.36261e-17)
(0.998756 -0.000197589 1.24023e-16)
(0.998836 -0.00084333 2.3621e-16)
(0.999009 -0.00145986 -6.82502e-17)
(0.999279 -0.00203215 -1.65574e-17)
(0.999639 -0.00253766 2.5069e-16)
(1.00008 -0.00295494 2.13151e-16)
(1.00058 -0.00326743 -1.46037e-16)
(1.00114 -0.00346079 3.9119e-16)
(1.00172 -0.00352641 3.54838e-16)
(1.0023 -0.00346132 3.77231e-16)
(1.00286 -0.00326951 -1.74124e-17)
(1.00339 -0.00295683 -2.99029e-16)
(1.00385 -0.00254972 -3.13874e-16)
(1.00424 -0.00211391 -3.02228e-17)
(0.998718 0.000457844 -2.02449e-17)
(0.998696 -0.00020272 -6.54933e-17)
(0.998779 -0.00086504 -1.95782e-16)
(0.998959 -0.00149722 1.25995e-16)
(0.99924 -0.00208378 1.20892e-16)
(0.999612 -0.00260156 -1.67855e-16)
(1.00007 -0.00302855 -8.47341e-17)
(1.00059 -0.00334773 8.37432e-18)
(1.00116 -0.00354449 -1.73853e-16)
(1.00176 -0.00361007 -3.04029e-16)
(1.00236 -0.00354145 -5.60847e-16)
(1.00294 -0.00334299 6.05545e-17)
(1.00347 -0.00302068 3.65102e-16)
(1.00395 -0.00260191 3.30387e-16)
(1.00435 -0.00215328 -6.94437e-17)
(0.998656 0.000469608 -1.61103e-17)
(0.998635 -0.000207895 -1.3174e-17)
(0.998722 -0.000887004 1.71328e-16)
(0.998908 -0.00153505 -1.61651e-16)
(0.999198 -0.00213613 -3.19424e-16)
(0.999584 -0.0026664 1.55009e-16)
(1.00005 -0.00310328 8.79561e-17)
(1.00059 -0.0034293 4.07247e-16)
(1.00118 -0.00362952 5.82216e-17)
(1.0018 -0.00369503 2.83088e-16)
(1.00242 -0.00362278 8.40427e-16)
(1.00301 -0.00341751 -2.30495e-16)
(1.00356 -0.0030854 -9.77844e-17)
(1.00405 -0.00265476 -1.15331e-17)
(1.00446 -0.00219315 -2.76593e-17)
(0.998593 0.00048147 4.50555e-17)
(0.998572 -0.00021311 4.92194e-17)
(0.998662 -0.000909215 -1.47351e-16)
(0.998855 -0.00157335 1.3688e-16)
(0.999156 -0.00218916 -9.21278e-17)
(0.999554 -0.00273212 -2.96589e-16)
(1.00004 -0.00317907 1.30338e-17)
(1.0006 -0.00351203 -3.50285e-17)
(1.0012 -0.00371576 -2.15924e-16)
(1.00184 -0.00378118 1.81985e-16)
(1.00247 -0.00370523 -7.84487e-16)
(1.00309 -0.00349304 -1.42739e-17)
(1.00365 -0.00315101 -1.74673e-16)
(1.00416 -0.00270836 3.26086e-17)
(1.00457 -0.00223359 -8.1936e-17)
(0.998529 0.000493427 -1.14972e-17)
(0.998507 -0.000218373 -1.17275e-17)
(0.998601 -0.000931685 2.03895e-17)
(0.998801 -0.00161212 -1.52217e-16)
(0.999111 -0.00224288 -2.73286e-17)
(0.999523 -0.00279871 3.62147e-16)
(1.00002 -0.00325588 -2.63915e-16)
(1.0006 -0.00359589 -3.26856e-16)
(1.00122 -0.00380318 3.49939e-16)
(1.00188 -0.00386852 -3.16558e-16)
(1.00253 -0.00378884 4.00554e-16)
(1.00316 -0.00356965 3.78839e-16)
(1.00374 -0.00321763 2.72739e-16)
(1.00426 -0.00276287 -1.81361e-16)
(1.00468 -0.00227476 -6.17602e-17)
(0.998463 0.000505486 -1.23994e-17)
(0.998441 -0.000223687 -7.19603e-17)
(0.998538 -0.000954419 -9.68964e-17)
(0.998745 -0.00165136 7.11145e-17)
(0.999065 -0.00229727 1.80228e-16)
(0.99949 -0.00286616 6.32132e-17)
(1.00001 -0.00333371 2.45273e-16)
(1.0006 -0.00368089 5.36032e-17)
(1.00124 -0.00389182 -4.60094e-16)
(1.00192 -0.0039571 1.60978e-16)
(1.00259 -0.00387369 -2.27498e-16)
(1.00324 -0.00364747 -1.88898e-16)
(1.00383 -0.00328538 -2.54326e-16)
(1.00436 -0.00281836 4.01668e-17)
(1.00479 -0.00231663 1.49154e-16)
(0.998396 0.000517644 -1.9032e-17)
(0.998373 -0.00022907 3.42751e-17)
(0.998474 -0.000977439 4.13795e-17)
(0.998687 -0.00169111 -1.42538e-16)
(0.999018 -0.00235237 6.95578e-17)
(0.999457 -0.00293453 -2.11037e-16)
(0.999989 -0.00341262 -2.58499e-17)
(1.0006 -0.0037671 3.17358e-16)
(1.00126 -0.00398175 -2.02403e-16)
(1.00195 -0.00404705 -2.67511e-16)
(1.00265 -0.00395991 2.29723e-16)
(1.00332 -0.00372662 -6.81709e-17)
(1.00392 -0.00335436 -7.20672e-16)
(1.00446 -0.00287489 7.34901e-17)
(1.00491 -0.00235926 1.07296e-16)
(0.998327 0.000529905 -9.79618e-18)
(0.998304 -0.000234532 3.34324e-17)
(0.998408 -0.00100076 1.25949e-17)
(0.998628 -0.00173137 1.90005e-17)
(0.998969 -0.00240822 1.20035e-16)
(0.999421 -0.00300383 6.66972e-17)
(0.99997 -0.00349265 -2.19664e-16)
(1.0006 -0.00385458 -2.00561e-17)
(1.00128 -0.00407308 6.06235e-16)
(1.00199 -0.00413844 -1.94418e-16)
(1.0027 -0.00404759 -5.71508e-18)
(1.00339 -0.00380716 2.87423e-17)
(1.00402 -0.00342459 2.77342e-17)
(1.00457 -0.00293244 -5.08825e-17)
(1.00502 -0.00240252 1.6937e-17)
(0.998256 0.000542263 2.58149e-17)
(0.998233 -0.000240099 -6.81959e-17)
(0.99834 -0.00102441 -7.78951e-17)
(0.998567 -0.00177219 1.49146e-19)
(0.998919 -0.00246485 -1.8125e-16)
(0.999385 -0.00307414 -2.89435e-17)
(0.99995 -0.00357388 4.26516e-17)
(1.0006 -0.00394343 -4.82942e-17)
(1.0013 -0.00416588 -4.10443e-16)
(1.00203 -0.00423136 5.46431e-16)
(1.00276 -0.00413679 -3.11792e-17)
(1.00347 -0.00388913 -5.70787e-17)
(1.00411 -0.00349609 3.36324e-16)
(1.00467 -0.00299099 -3.76992e-16)
(1.00513 -0.00244645 7.95311e-18)
(0.998184 0.000554723 2.73905e-18)
(0.998159 -0.000245785 8.18117e-17)
(0.99827 -0.00104841 2.19864e-16)
(0.998505 -0.00181359 -5.54458e-17)
(0.998867 -0.0025223 1.17793e-16)
(0.999346 -0.0031455 -1.83034e-16)
(0.999928 -0.00365635 -2.19192e-16)
(1.00059 -0.00403368 5.26439e-18)
(1.00132 -0.00426019 2.38979e-16)
(1.00207 -0.00432584 -4.76929e-16)
(1.00282 -0.0042275 1.18781e-16)
(1.00354 -0.00397249 -2.064e-17)
(1.0042 -0.00356878 2.59827e-16)
(1.00478 -0.00305045 8.02469e-17)
(1.00525 -0.00249096 -1.2489e-16)
(0.998111 0.000567275 1.05257e-18)
(0.998085 -0.000251615 -8.87933e-17)
(0.998199 -0.00107279 -1.25484e-16)
(0.99844 -0.00185561 2.07674e-17)
(0.998813 -0.0025806 -2.1884e-17)
(0.999307 -0.00321793 1.66143e-16)
(0.999906 -0.00374011 3.5988e-16)
(1.00059 -0.00412537 -3.19212e-16)
(1.00133 -0.00435603 3.63083e-16)
(1.00211 -0.00442188 3.20915e-17)
(1.00288 -0.00431973 7.12134e-17)
(1.00362 -0.00405724 -1.37506e-16)
(1.00429 -0.00364267 2.65393e-16)
(1.00488 -0.00311086 1.50329e-16)
(1.00536 -0.00253618 1.9619e-16)
(0.998035 0.00057992 -8.60852e-18)
(0.998008 -0.000257604 8.46999e-17)
(0.998125 -0.00109756 1.54561e-16)
(0.998374 -0.00189825 5.34001e-17)
(0.998758 -0.00263978 1.56189e-16)
(0.999266 -0.00329147 1.19952e-16)
(0.999881 -0.00382516 -3.23185e-16)
(1.00058 -0.00421851 6.47478e-16)
(1.00135 -0.00445341 -2.03656e-16)
(1.00214 -0.00451947 -6.77467e-17)
(1.00293 -0.00441346 -2.45172e-16)
(1.00369 -0.00414337 -1.07652e-16)
(1.00438 -0.00371775 -2.95355e-16)
(1.00499 -0.00317225 -1.08772e-16)
(1.00548 -0.00258211 4.719e-17)
(0.997958 0.000592644 -3.05713e-17)
(0.99793 -0.000263778 -9.05799e-17)
(0.99805 -0.00112276 -1.08392e-17)
(0.998306 -0.00194155 1.06232e-16)
(0.998701 -0.00269986 -1.42143e-16)
(0.999223 -0.00336613 -1.04375e-16)
(0.999856 -0.00391154 4.04424e-16)
(1.00058 -0.00431311 -1.20785e-16)
(1.00136 -0.00455235 -5.16019e-16)
(1.00218 -0.00461865 7.10124e-17)
(1.00299 -0.00450872 -1.24486e-16)
(1.00377 -0.00423092 2.30268e-16)
(1.00448 -0.00379412 3.68727e-16)
(1.0051 -0.00323472 3.28307e-16)
(1.00559 -0.00262891 -2.75001e-16)
(0.997879 0.000605444 1.8334e-18)
(0.997849 -0.000270148 -1.74723e-17)
(0.997974 -0.0011484 -7.23244e-17)
(0.998236 -0.00198553 4.50822e-17)
(0.998642 -0.00276085 -7.88166e-17)
(0.999179 -0.00344194 1.34424e-16)
(0.999829 -0.00399924 -1.16212e-16)
(1.00057 -0.0044092 3.98832e-17)
(1.00138 -0.00465286 -1.08162e-16)
(1.00221 -0.00471942 2.75158e-16)
(1.00305 -0.00460556 3.3663e-16)
(1.00384 -0.00431995 1.94537e-18)
(1.00457 -0.00387182 -5.86848e-16)
(1.00521 -0.00329832 -3.99198e-16)