/*--------------------------------*- C++ -*----------------------------------*\
  =========                 |
  \\      /  F ield         | OpenFOAM: The Open Source CFD Toolbox
   \\    /   O peration     | Website:  https://openfoam.org
    \\  /    A nd           | Version:  6.0
     \\/     M anipulation  |
\*---------------------------------------------------------------------------*/
FoamFile
{
    version     2.0;
    format      ascii;
    class       volVectorField;
    location    "0.3";
    object      U;
}
// * * * * * * * * * * * * * * * * * * * * * * * * * * * * * * * * * * * * * //

dimensions      [0 1 -1 0 0 0 0];

internalField   nonuniform List<vector> 
200
(
(9.86014e-05 -0.000208281 0)
(-0.0038838 0.00252922 0)
(-0.0141316 0.00420941 0)
(-0.0267987 0.00466358 0)
(-0.0394572 0.00452584 0)
(-0.0512359 0.00420413 0)
(-0.0619498 0.00388494 0)
(-0.0716781 0.00363008 0)
(-0.0805442 0.00342683 0)
(-0.0885578 0.00320609 0)
(-0.0954834 0.00284278 0)
(-0.10072 0.00215619 0)
(-0.103216 0.000931913 0)
(-0.101498 -0.00100908 0)
(-0.0939225 -0.0036725 0)
(-0.0792887 -0.00669443 0)
(-0.0578276 -0.00916033 0)
(-0.0324761 -0.00958889 0)
(-0.0102214 -0.00645962 0)
(-0.000515828 -0.000495858 0)
(-0.00320544 0.00404477 0)
(-0.0177288 0.0159475 0)
(-0.0439813 0.0226548 0)
(-0.0741647 0.0244382 0)
(-0.103746 0.0235968 0)
(-0.131009 0.0217451 0)
(-0.15542 0.0197177 0)
(-0.176981 0.0178222 0)
(-0.19582 0.0160113 0)
(-0.211856 0.013971 0)
(-0.224554 0.011163 0)
(-0.232743 0.00687767 0)
(-0.234549 0.00036873 0)
(-0.227528 -0.00886172 0)
(-0.209146 -0.02058 0)
(-0.177719 -0.0331853 0)
(-0.133783 -0.043149 0)
(-0.0819293 -0.0450428 0)
(-0.0335538 -0.0334003 0)
(-0.00608157 -0.00927457 0)
(-0.00659025 0.0169734 0)
(-0.0308778 0.0443466 0)
(-0.0700457 0.0579532 0)
(-0.112282 0.0608045 0)
(-0.151895 0.0578449 0)
(-0.187169 0.0525299 0)
(-0.217705 0.0467244 0)
(-0.243689 0.0411392 0)
(-0.265443 0.0356804 0)
(-0.283056 0.0296664 0)
(-0.29612 0.0219703 0)
(-0.303572 0.0111837 0)
(-0.303627 -0.00408814 0)
(-0.293867 -0.0246919 0)
(-0.271596 -0.0500753 0)
(-0.234561 -0.0771463 0)
(-0.182128 -0.0991263 0)
(-0.117437 -0.105259 0)
(-0.0524891 -0.083661 0)
(-0.0110532 -0.0314998 0)
(-0.00965303 0.0371106 0)
(-0.0420334 0.0840611 0)
(-0.090317 0.103826 0)
(-0.138802 0.105502 0)
(-0.181401 0.0980149 0)
(-0.217188 0.0870948 0)
(-0.246482 0.0757404 0)
(-0.27004 0.06506 0)
(-0.288672 0.0548872 0)
(-0.302924 0.0441681 0)
(-0.312895 0.031212 0)
(-0.318116 0.0139405 0)
(-0.317456 -0.00973026 0)
(-0.309046 -0.0412278 0)
(-0.290283 -0.0802375 0)
(-0.258019 -0.123073 0)
(-0.20919 -0.160586 0)
(-0.143145 -0.176475 0)
(-0.0694314 -0.149174 0)
(-0.0162282 -0.0642097 0)
(-0.0129379 0.0634317 0)
(-0.0518835 0.131561 0)
(-0.104326 0.154293 0)
(-0.151774 0.150941 0)
(-0.189257 0.135888 0)
(-0.217671 0.117356 0)
(-0.238605 0.0993149 0)
(-0.253659 0.0830832 0)
(-0.264243 0.0683263 0)
(-0.271436 0.0536379 0)
(-0.275949 0.0368726 0)
(-0.278101 0.015403 0)
(-0.277725 -0.0135409 0)
(-0.273925 -0.052278 0)
(-0.264676 -0.101584 0)
(-0.246274 -0.158727 0)
(-0.21295 -0.214186 0)
(-0.158589 -0.247311 0)
(-0.086201 -0.224101 0)
(-0.0229725 -0.107406 0)
(-0.0174276 0.096286 0)
(-0.0617291 0.183322 0)
(-0.11125 0.202482 0)
(-0.147739 0.188855 0)
(-0.170319 0.16328 0)
(-0.182992 0.136014 0)
(-0.188942 0.111374 0)
(-0.190526 0.0904271 0)
(-0.189506 0.0724517 0)
(-0.18721 0.0556941 0)
(-0.184718 0.0377188 0)
(-0.18299 0.0155904 0)
(-0.182854 -0.0139577 0)
(-0.18474 -0.0542024 0)
(-0.188019 -0.107663 0)
(-0.18972 -0.174233 0)
(-0.182685 -0.247005 0)
(-0.155306 -0.304593 0)
(-0.0996158 -0.300988 0)
(-0.0312454 -0.162967 0)
(-0.0241481 0.13857 0)
(-0.0717651 0.234119 0)
(-0.105948 0.237716 0)
(-0.116905 0.207875 0)
(-0.112836 0.17048 0)
(-0.101585 0.135664 0)
(-0.087388 0.106691 0)
(-0.0725979 0.0836241 0)
(-0.0585929 0.0650724 0)
(-0.0463002 0.0489678 0)
(-0.0366146 0.0328353 0)
(-0.0306824 0.013833 0)
(-0.030026 -0.011302 0)
(-0.0364374 -0.0463274 0)
(-0.0514182 -0.0953882 0)
(-0.0746205 -0.162012 0)
(-0.100711 -0.245308 0)
(-0.115853 -0.329951 0)
(-0.0985942 -0.365362 0)
(-0.03745 -0.23224 0)
(-0.0308907 0.196588 0)
(-0.0734633 0.271879 0)
(-0.0668634 0.240576 0)
(-0.0316548 0.19157 0)
(0.0102205 0.146468 0)
(0.0500023 0.109915 0)
(0.0850496 0.0821571 0)
(0.114744 0.0616558 0)
(0.139258 0.0463092 0)
(0.158871 0.03396 0)
(0.173493 0.0224632 0)
(0.182353 0.0095761 0)
(0.183795 -0.00724761 0)
(0.175149 -0.0312137 0)
(0.15282 -0.0667644 0)
(0.113192 -0.120131 0)
(0.0553701 -0.198201 0)
(-0.0128487 -0.300199 0)
(-0.0596925 -0.388323 0)
(-0.0285849 -0.306414 0)
(-0.00723554 0.254751 0)
(-0.012097 0.261415 0)
(0.077267 0.18653 0)
(0.17445 0.129375 0)
(0.252154 0.0896489 0)
(0.311729 0.0619092 0)
(0.357287 0.0429775 0)
(0.391963 0.0302575 0)
(0.418268 0.0215648 0)
(0.438004 0.0151738 0)
(0.45206 0.00968217 0)
(0.46031 0.00382275 0)
(0.461497 -0.00373865 0)
(0.453 -0.01472 0)
(0.430418 -0.0318929 0)
(0.387085 -0.0605873 0)
(0.313508 -0.111323 0)
(0.199121 -0.199368 0)
(0.0696355 -0.319023 0)
(0.0388995 -0.326594 0)
(0.285273 0.141377 0)
(0.366014 0.124923 0)
(0.509066 0.0784561 0)
(0.618199 0.0479933 0)
(0.684703 0.0295878 0)
(0.726257 0.0182087 0)
(0.753712 0.0112475 0)
(0.77231 0.00706756 0)
(0.785118 0.00454025 0)
(0.794003 0.00291033 0)
(0.799877 0.00166449 0)
(0.802865 0.000417159 0)
(0.802363 -0.00117987 0)
(0.796946 -0.00354307 0)
(0.783953 -0.00737485 0)
(0.758407 -0.0142674 0)
(0.709865 -0.0283905 0)
(0.611884 -0.0595723 0)
(0.446361 -0.119837 0)
(0.327159 -0.152579 0)
)
;

boundaryField
{
    movingWall
    {
        type            fixedValue;
        value           uniform (1 0 0);
    }
    fixedWalls
    {
        type            noSlip;
    }
    frontAndBack
    {
        type            empty;
    }
}


// ************************************************************************* //
