1.45 	0 	0 	-0.305219
2.35 	0 	0 	-0.133865
