/*--------------------------------*- C++ -*----------------------------------*\
  =========                 |
  \\      /  F ield         | OpenFOAM: The Open Source CFD Toolbox
   \\    /   O peration     | Website:  https://openfoam.org
    \\  /    A nd           | Version:  6.0
     \\/     M anipulation  |
\*---------------------------------------------------------------------------*/
FoamFile
{
    version     2.0;
    format      ascii;
    class       volVectorField;
    location    "0.3";
    object      U;
}
// * * * * * * * * * * * * * * * * * * * * * * * * * * * * * * * * * * * * * //

dimensions      [0 1 -1 0 0 0 0];

internalField   nonuniform List<vector> 
200
(
(0.000338159 -0.00042828 0)
(-0.000230605 0.000318845 0)
(-0.00266431 0.000810963 0)
(-0.00584503 0.000984913 0)
(-0.00924688 0.00109211 0)
(-0.0129084 0.0012558 0)
(-0.0170641 0.00153043 0)
(-0.0220754 0.00197996 0)
(-0.0284922 0.0027128 0)
(-0.0371176 0.00389265 0)
(-0.0489997 0.00571172 0)
(-0.065194 0.00823217 0)
(-0.0859033 0.0109583 0)
(-0.108605 0.0123016 0)
(-0.126139 0.00979302 0)
(-0.128121 0.00188331 0)
(-0.107424 -0.00949225 0)
(-0.067045 -0.0178032 0)
(-0.0225808 -0.0145377 0)
(-0.000673107 -0.00079972 0)
(-0.000886107 0.000446513 0)
(-0.00531667 0.00402979 0)
(-0.0135674 0.00609561 0)
(-0.0231826 0.00689995 0)
(-0.0331839 0.00740777 0)
(-0.0436682 0.00814401 0)
(-0.0550843 0.00939856 0)
(-0.0681521 0.0114758 0)
(-0.0839034 0.0147647 0)
(-0.103602 0.0196461 0)
(-0.128409 0.026169 0)
(-0.158589 0.0333304 0)
(-0.192028 0.0380536 0)
(-0.222401 0.03496 0)
(-0.239154 0.018599 0)
(-0.231559 -0.0119936 0)
(-0.194755 -0.0490769 0)
(-0.13273 -0.0746709 0)
(-0.0596763 -0.0642013 0)
(-0.00912573 -0.012937 0)
(-0.00245526 0.00487986 0)
(-0.0112504 0.0136942 0)
(-0.0251993 0.0180155 0)
(-0.0403027 0.0195808 0)
(-0.0553202 0.0204947 0)
(-0.0704617 0.0218986 0)
(-0.086247 0.02446 0)
(-0.10347 0.0288036 0)
(-0.1232 0.0355271 0)
(-0.146576 0.0448425 0)
(-0.174348 0.0558495 0)
(-0.206136 0.0655065 0)
(-0.239298 0.0678443 0)
(-0.26778 0.0547818 0)
(-0.282713 0.0197058 0)
(-0.275873 -0.0371526 0)
(-0.242925 -0.104149 0)
(-0.183393 -0.155344 0)
(-0.102156 -0.148828 0)
(-0.0225032 -0.0482503 0)
(-0.00395802 0.0127538 0)
(-0.0167189 0.0285463 0)
(-0.035393 0.034948 0)
(-0.0543527 0.0366522 0)
(-0.0722064 0.0373291 0)
(-0.0892968 0.0387842 0)
(-0.10609 0.0420373 0)
(-0.123235 0.0479827 0)
(-0.141586 0.0573268 0)
(-0.162031 0.0699807 0)
(-0.185185 0.0840607 0)
(-0.210948 0.0947925 0)
(-0.237746 0.0941319 0)
(-0.26161 0.0724014 0)
(-0.276546 0.0224449 0)
(-0.276735 -0.0554758 0)
(-0.257567 -0.150168 0)
(-0.213956 -0.234802 0)
(-0.140974 -0.253987 0)
(-0.0404979 -0.115424 0)
(-0.00550312 0.0237676 0)
(-0.0218258 0.0476136 0)
(-0.0440641 0.0552362 0)
(-0.0650691 0.0559018 0)
(-0.0835307 0.0552312 0)
(-0.0999855 0.0555976 0)
(-0.114737 0.0582308 0)
(-0.128092 0.0641967 0)
(-0.140469 0.0742914 0)
(-0.152393 0.0882754 0)
(-0.164496 0.103721 0)
(-0.177451 0.114935 0)
(-0.191473 0.112938 0)
(-0.205366 0.0875484 0)
(-0.216463 0.0313756 0)
(-0.221898 -0.0568294 0)
(-0.218239 -0.170808 0)
(-0.198172 -0.290722 0)
(-0.148447 -0.357541 0)
(-0.0493816 -0.223307 0)
(-0.00752811 0.0381523 0)
(-0.0275167 0.0703201 0)
(-0.0522825 0.0774032 0)
(-0.0733455 0.0753507 0)
(-0.0900506 0.0719523 0)
(-0.103394 0.0698203 0)
(-0.113528 0.0701296 0)
(-0.120353 0.0739543 0)
(-0.123728 0.0821704 0)
(-0.123661 0.0946726 0)
(-0.120667 0.109215 0)
(-0.11617 0.120338 0)
(-0.112342 0.119379 0)
(-0.111055 0.0965068 0)
(-0.113157 0.0441727 0)
(-0.118969 -0.0411321 0)
(-0.127604 -0.159923 0)
(-0.132191 -0.305068 0)
(-0.114373 -0.428154 0)
(-0.03334 -0.348339 0)
(-0.0109787 0.0572109 0)
(-0.0356131 0.0962689 0)
(-0.0615874 0.0994814 0)
(-0.07939 0.0925835 0)
(-0.0905518 0.0849598 0)
(-0.0973013 0.0789621 0)
(-0.0999578 0.075395 0)
(-0.0982917 0.0751008 0)
(-0.0918069 0.0789021 0)
(-0.0799998 0.0869409 0)
(-0.0629657 0.0977137 0)
(-0.0421597 0.107022 0)
(-0.0208439 0.107759 0)
(-0.00333728 0.0911728 0)
(0.00612184 0.0496227 0)
(0.00444464 -0.0225234 0)
(-0.0105691 -0.130799 0)
(-0.034439 -0.280498 0)
(-0.0498652 -0.444529 0)
(0.00763768 -0.441146 0)
(-0.0182277 0.0843465 0)
(-0.0490394 0.126275 0)
(-0.0730691 0.11851 0)
(-0.0765408 0.101369 0)
(-0.0720296 0.0878135 0)
(-0.0641644 0.0775293 0)
(-0.053508 0.0699512 0)
(-0.0399529 0.0652964 0)
(-0.0229697 0.0640101 0)
(-0.00169608 0.0662482 0)
(0.0243566 0.071316 0)
(0.0547064 0.0767198 0)
(0.0865811 0.0779196 0)
(0.115666 0.06835 0)
(0.135334 0.04142 0)
(0.140855 -0.00977411 0)
(0.124821 -0.093036 0)
(0.0892363 -0.221847 0)
(0.0412956 -0.394263 0)
(0.070429 -0.458468 0)
(-0.0748934 0.157012 0)
(-0.0817861 0.143482 0)
(-0.0409376 0.102782 0)
(7.72012e-05 0.0817129 0)
(0.03755 0.0679957 0)
(0.0711165 0.0574072 0)
(0.101929 0.0491189 0)
(0.131012 0.0430524 0)
(0.159231 0.0392459 0)
(0.188027 0.0376042 0)
(0.218098 0.0379251 0)
(0.250622 0.0390995 0)
(0.283347 0.0393857 0)
(0.315142 0.0352953 0)
(0.33711 0.0233897 0)
(0.346738 -0.00177116 0)
(0.326698 -0.0464246 0)
(0.281382 -0.12514 0)
(0.193067 -0.260671 0)
(0.174813 -0.357405 0)
(0.208439 0.117187 0)
(0.25268 0.103547 0)
(0.337929 0.0759177 0)
(0.411506 0.0573711 0)
(0.46691 0.0449726 0)
(0.509876 0.0358966 0)
(0.544858 0.0289759 0)
(0.574659 0.0236727 0)
(0.600573 0.0197368 0)
(0.624747 0.0168853 0)
(0.647258 0.0150273 0)
(0.670645 0.0137417 0)
(0.69163 0.012768 0)
(0.712919 0.011147 0)
(0.723201 0.00819124 0)
(0.726738 0.00225685 0)
(0.696188 -0.00850744 0)
(0.645159 -0.0283657 0)
(0.509077 -0.0654952 0)
(0.389528 -0.119636 0)
)
;

boundaryField
{
    movingWall
    {
        type            fixedValue;
        value           uniform (1 0 0);
    }
    fixedWalls
    {
        type            noSlip;
    }
    frontAndBack
    {
        type            empty;
    }
}


// ************************************************************************* //
