1.275 	2.15223e-18 	-2.76991e-20 	-0.0326744 	-0.000499747 	-2.02665e-22
1.825 	2.15223e-18 	-1.39322e-20 	-0.00723478 	-0.00290371 	1.81493e-21
2.375 	2.15223e-18 	-2.66896e-23 	0.124265 	-0.00350192 	-7.55039e-22
