1.45 	0 	0 	-0.12755
2.35 	0 	0 	0.0271635
