/*--------------------------------*- C++ -*----------------------------------*\
  =========                 |
  \\      /  F ield         | OpenFOAM: The Open Source CFD Toolbox
   \\    /   O peration     | Website:  https://openfoam.org
    \\  /    A nd           | Version:  6.0
     \\/     M anipulation  |
\*---------------------------------------------------------------------------*/
FoamFile
{
    version     2.0;
    format      ascii;
    class       volVectorField;
    location    "0.1";
    object      U;
}
// * * * * * * * * * * * * * * * * * * * * * * * * * * * * * * * * * * * * * //

dimensions      [0 1 -1 0 0 0 0];

internalField   nonuniform List<vector> 
200
(
(-0.000432121 0.000330286 0)
(-0.00380563 0.00215084 0)
(-0.0106454 0.00292371 0)
(-0.0182464 0.00299846 0)
(-0.0254696 0.002867 0)
(-0.0321303 0.00269877 0)
(-0.0382339 0.00252832 0)
(-0.0438026 0.00236226 0)
(-0.0488659 0.00220346 0)
(-0.0534468 0.00204783 0)
(-0.057529 0.00187228 0)
(-0.0609949 0.00161864 0)
(-0.0635307 0.00117644 0)
(-0.0645043 0.000374809 0)
(-0.0628656 -0.00098764 0)
(-0.0572067 -0.00302062 0)
(-0.0462397 -0.00546585 0)
(-0.0300807 -0.00728869 0)
(-0.0125979 -0.00655008 0)
(-0.00214902 -0.00203509 0)
(-0.00275529 0.0041115 0)
(-0.0127525 0.0113826 0)
(-0.0286115 0.0141205 0)
(-0.0453167 0.0141436 0)
(-0.060805 0.0132328 0)
(-0.0747069 0.0120965 0)
(-0.0869876 0.0109415 0)
(-0.0977056 0.00982808 0)
(-0.106962 0.00876778 0)
(-0.114841 0.00772259 0)
(-0.121339 0.00657104 0)
(-0.126266 0.0050622 0)
(-0.129114 0.00277114 0)
(-0.128894 -0.000905627 0)
(-0.124009 -0.00662192 0)
(-0.112328 -0.0146526 0)
(-0.0917993 -0.0239643 0)
(-0.0622274 -0.0308455 0)
(-0.0291026 -0.028401 0)
(-0.00634228 -0.0113477 0)
(-0.00444395 0.0128986 0)
(-0.0191143 0.0284605 0)
(-0.0408043 0.0335125 0)
(-0.0626359 0.032893 0)
(-0.0822363 0.0302282 0)
(-0.0993632 0.0270501 0)
(-0.114078 0.0238727 0)
(-0.126547 0.0208623 0)
(-0.136998 0.0180456 0)
(-0.145642 0.015327 0)
(-0.152603 0.0124416 0)
(-0.157831 0.00888017 0)
(-0.160963 0.00381125 0)
(-0.161118 -0.0039378 0)
(-0.15664 -0.0156852 0)
(-0.144883 -0.0321639 0)
(-0.122473 -0.0517576 0)
(-0.0871658 -0.0675202 0)
(-0.0435725 -0.065101 0)
(-0.010151 -0.0299248 0)
(-0.00578162 0.0249805 0)
(-0.0239846 0.0504087 0)
(-0.0497096 0.0573051 0)
(-0.074443 0.0550994 0)
(-0.0957996 0.049779 0)
(-0.113887 0.0437927 0)
(-0.128985 0.0379715 0)
(-0.141439 0.0325922 0)
(-0.151649 0.0277037 0)
(-0.160011 0.0231689 0)
(-0.166871 0.0186108 0)
(-0.172471 0.0133042 0)
(-0.176827 0.00603165 0)
(-0.17948 -0.00503605 0)
(-0.17901 -0.0222387 0)
(-0.172265 -0.0475887 0)
(-0.153768 -0.0801238 0)
(-0.117445 -0.110398 0)
(-0.0645971 -0.114183 0)
(-0.0164534 -0.0580865 0)
(-0.00745765 0.0399218 0)
(-0.0293022 0.076113 0)
(-0.0583562 0.083744 0)
(-0.0846047 0.0786848 0)
(-0.106072 0.0697796 0)
(-0.123486 0.0603555 0)
(-0.137456 0.0514912 0)
(-0.148557 0.0435444 0)
(-0.157391 0.0365845 0)
(-0.164549 0.0304618 0)
(-0.170614 0.0247543 0)
(-0.176166 0.0186241 0)
(-0.181719 0.0105662 0)
(-0.187496 -0.00193276 0)
(-0.192767 -0.0226289 0)
(-0.194356 -0.0559171 0)
(-0.184732 -0.103504 0)
(-0.153124 -0.155694 0)
(-0.0949777 -0.17733 0)
(-0.0273535 -0.101685 0)
(-0.0102765 0.0588973 0)
(-0.0368788 0.105889 0)
(-0.0686917 0.111969 0)
(-0.0944267 0.102193 0)
(-0.113518 0.0885763 0)
(-0.127811 0.0750795 0)
(-0.138385 0.0628705 0)
(-0.146103 0.0523065 0)
(-0.151754 0.0434336 0)
(-0.156057 0.0360843 0)
(-0.159712 0.0298438 0)
(-0.16348 0.0238844 0)
(-0.168245 0.0165876 0)
(-0.174949 0.00487418 0)
(-0.184038 -0.0166303 0)
(-0.19352 -0.0556951 0)
(-0.195626 -0.119095 0)
(-0.176444 -0.200811 0)
(-0.124131 -0.256949 0)
(-0.0403036 -0.17255 0)
(-0.0154926 0.0848958 0)
(-0.0484485 0.139987 0)
(-0.0801299 0.139583 0)
(-0.099459 0.122064 0)
(-0.110122 0.102365 0)
(-0.115939 0.08437 0)
(-0.118572 0.0689212 0)
(-0.119144 0.0561313 0)
(-0.118506 0.0458587 0)
(-0.117288 0.0378216 0)
(-0.11601 0.0315944 0)
(-0.115234 0.0264446 0)
(-0.115749 0.0208777 0)
(-0.118804 0.0116634 0)
(-0.126117 -0.00771504 0)
(-0.138465 -0.0483752 0)
(-0.151696 -0.123724 0)
(-0.153103 -0.236359 0)
(-0.124034 -0.342105 0)
(-0.0414919 -0.278743 0)
(-0.0256456 0.124344 0)
(-0.0646991 0.174417 0)
(-0.0818091 0.155927 0)
(-0.0771954 0.12699 0)
(-0.0658073 0.1016 0)
(-0.0531049 0.0806712 0)
(-0.04047 0.0638182 0)
(-0.0286302 0.0505783 0)
(-0.0179534 0.0404159 0)
(-0.00851507 0.0328176 0)
(-0.000251724 0.0273064 0)
(0.0068783 0.0233052 0)
(0.0126541 0.0197587 0)
(0.0161744 0.0141921 0)
(0.0150845 0.000878178 0)
(0.00543161 -0.0318963 0)
(-0.0160808 -0.102515 0)
(-0.0442231 -0.226807 0)
(-0.0583469 -0.377406 0)
(-0.0046115 -0.378085 0)
(-0.0465831 0.197057 0)
(-0.0609457 0.190106 0)
(-0.00496021 0.134761 0)
(0.0539546 0.100174 0)
(0.102338 0.0764412 0)
(0.141316 0.0582125 0)
(0.173025 0.0441996 0)
(0.198746 0.0337319 0)
(0.219538 0.0260727 0)
(0.236444 0.0205744 0)
(0.250402 0.0167493 0)
(0.262161 0.014182 0)
(0.272068 0.0123539 0)
(0.27976 0.0101517 0)
(0.282842 0.00493037 0)
(0.276058 -0.00987108 0)
(0.248491 -0.048447 0)
(0.192744 -0.137299 0)
(0.11428 -0.284757 0)
(0.105711 -0.356576 0)
(0.243253 0.129199 0)
(0.297476 0.115393 0)
(0.405174 0.0804318 0)
(0.494781 0.0569095 0)
(0.556255 0.0413676 0)
(0.5991 0.030184 0)
(0.630391 0.0219323 0)
(0.653703 0.0159228 0)
(0.671217 0.0116235 0)
(0.684592 0.0086005 0)
(0.695091 0.00652597 0)
(0.70366 0.00514344 0)
(0.710705 0.00423122 0)
(0.716261 0.00347628 0)
(0.718087 0.00225756 0)
(0.71292 -0.000717409 0)
(0.686933 -0.00910912 0)
(0.630279 -0.0283056 0)
(0.492506 -0.0769696 0)
(0.371577 -0.134992 0)
)
;

boundaryField
{
    movingWall
    {
        type            fixedValue;
        value           uniform (1 0 0);
    }
    fixedWalls
    {
        type            noSlip;
    }
    frontAndBack
    {
        type            empty;
    }
}


// ************************************************************************* //
