1.45 	0 	0 	-0.112458
2.35 	0 	0 	0.0290675
