1.45 	0 	0 	-0.0076376 	-0.00259449 	3.83504e-21
2.35 	0 	0 	0.0624556 	-0.00666787 	2.35828e-21
