1.45 	0 	0 	0.0508411 	-0.00778256 	3.5744e-21
2.35 	0 	0 	0.270432 	-0.0121415 	4.1561e-22
