1.45 	0 	0 	-0.291665
2.35 	0 	0 	-0.126983
