/*--------------------------------*- C++ -*----------------------------------*\
  =========                 |
  \\      /  F ield         | OpenFOAM: The Open Source CFD Toolbox
   \\    /   O peration     | Website:  https://openfoam.org
    \\  /    A nd           | Version:  6.0
     \\/     M anipulation  |
\*---------------------------------------------------------------------------*/
FoamFile
{
    version     2.0;
    format      ascii;
    class       volScalarField;
    location    "2.3";
    object      p;
}
// * * * * * * * * * * * * * * * * * * * * * * * * * * * * * * * * * * * * * //

dimensions      [0 2 -2 0 0 0 0];

internalField   nonuniform List<scalar> 
24000
(
1.00698
1.00678
1.00619
1.00538
1.00439
1.00335
1.00241
1.00159
1.00092
1.00042
1.00002
0.999761
1.00699
1.00684
1.00635
1.00565
1.00475
1.00375
1.00279
1.00191
1.00113
1.00053
0.999983
0.99963
1.00699
1.00683
1.00631
1.00559
1.00466
1.00366
1.00269
1.00181
1.00104
1.00046
0.999923
0.999604
1.007
1.00682
1.00628
1.00553
1.0046
1.0036
1.00263
1.00177
1.00102
1.00046
0.99991
0.999594
1.007
1.00683
1.00629
1.00556
1.00464
1.00365
1.0027
1.00184
1.00108
1.0005
0.999908
0.99956
1.00701
1.00684
1.00632
1.00559
1.00467
1.00369
1.00274
1.00187
1.0011
1.00049
0.999875
0.999503
1.00702
1.00686
1.00633
1.0056
1.00468
1.0037
1.00274
1.00186
1.00108
1.00046
0.999826
0.999446
1.00703
1.00687
1.00635
1.00561
1.00469
1.0037
1.00273
1.00185
1.00106
1.00043
0.999792
0.999404
1.00704
1.00689
1.00637
1.00564
1.00472
1.00373
1.00276
1.00187
1.00107
1.00044
0.999781
0.999375
1.00705
1.0069
1.0064
1.00568
1.00477
1.00378
1.00282
1.00192
1.00111
1.00046
0.999779
0.999349
1.00706
1.00692
1.00643
1.00572
1.00481
1.00383
1.00286
1.00196
1.00114
1.00048
0.999774
0.99932
1.00707
1.00694
1.00646
1.00576
1.00486
1.00387
1.0029
1.00199
1.00117
1.00049
0.999762
0.999288
1.00709
1.00696
1.00649
1.00579
1.00489
1.00391
1.00293
1.00202
1.00118
1.00049
0.999746
0.999256
1.0071
1.00698
1.00651
1.00583
1.00493
1.00395
1.00297
1.00204
1.00119
1.00049
0.999731
0.999227
1.00712
1.00699
1.00653
1.00586
1.00497
1.00399
1.003
1.00206
1.0012
1.00048
0.999717
0.999199
1.00713
1.00701
1.00655
1.00589
1.00501
1.00402
1.00303
1.00209
1.00122
1.00048
0.999705
0.999172
1.00715
1.00703
1.00657
1.00591
1.00504
1.00406
1.00306
1.00211
1.00123
1.00048
0.999692
0.999146
1.00717
1.00705
1.00659
1.00594
1.00506
1.00409
1.00309
1.00213
1.00124
1.00048
0.999679
0.999121
1.00719
1.00707
1.00661
1.00596
1.00509
1.00411
1.00311
1.00215
1.00125
1.00048
0.999666
0.999097
1.00721
1.00709
1.00664
1.00599
1.00512
1.00414
1.00314
1.00217
1.00126
1.00048
0.999655
0.999074
1.00723
1.00712
1.00667
1.00602
1.00515
1.00417
1.00316
1.00219
1.00127
1.00048
0.999644
0.999052
1.00725
1.00714
1.0067
1.00605
1.00518
1.0042
1.00319
1.00221
1.00128
1.00048
0.999634
0.999031
1.00727
1.00717
1.00673
1.00609
1.00522
1.00424
1.00322
1.00223
1.00129
1.00048
0.999623
0.99901
1.0073
1.00721
1.00677
1.00612
1.00526
1.00428
1.00326
1.00226
1.00131
1.00048
0.999613
0.99899
1.00733
1.00724
1.0068
1.00616
1.0053
1.00431
1.00329
1.00228
1.00132
1.00047
0.999602
0.99897
1.00735
1.00727
1.00684
1.0062
1.00534
1.00435
1.00332
1.0023
1.00133
1.00047
0.999592
0.998951
1.00738
1.00731
1.00688
1.00624
1.00538
1.00439
1.00335
1.00233
1.00134
1.00047
0.999582
0.998932
1.00741
1.00735
1.00692
1.00629
1.00542
1.00443
1.00339
1.00235
1.00136
1.00047
0.999573
0.998914
1.00744
1.00738
1.00696
1.00633
1.00546
1.00447
1.00342
1.00237
1.00137
1.00047
0.999564
0.998896
1.00748
1.00742
1.00701
1.00638
1.00551
1.00451
1.00345
1.0024
1.00138
1.00048
0.999556
0.998878
1.00751
1.00746
1.00705
1.00642
1.00555
1.00455
1.00349
1.00243
1.0014
1.00048
0.999547
0.99886
1.00754
1.0075
1.00709
1.00647
1.0056
1.0046
1.00353
1.00246
1.00142
1.00048
0.999539
0.998842
1.00758
1.00754
1.00714
1.00652
1.00565
1.00464
1.00357
1.00248
1.00143
1.00048
0.99953
0.998824
1.00762
1.00759
1.00719
1.00657
1.0057
1.00469
1.00361
1.00251
1.00145
1.00048
0.99952
0.998805
1.00766
1.00763
1.00723
1.00662
1.00575
1.00474
1.00364
1.00254
1.00146
1.00048
0.99951
0.998786
1.00769
1.00767
1.00728
1.00667
1.0058
1.00478
1.00368
1.00256
1.00147
1.00048
0.999499
0.998766
1.00773
1.00772
1.00732
1.00672
1.00585
1.00483
1.00372
1.00259
1.00149
1.00048
0.999487
0.998746
1.00778
1.00776
1.00737
1.00676
1.0059
1.00487
1.00375
1.00261
1.0015
1.00048
0.999475
0.998726
1.00782
1.00781
1.00742
1.00681
1.00594
1.00491
1.00379
1.00264
1.00151
1.00048
0.999463
0.998706
1.00786
1.00785
1.00746
1.00686
1.00599
1.00495
1.00382
1.00266
1.00152
1.00048
0.999451
0.998686
1.00791
1.0079
1.00751
1.00691
1.00604
1.005
1.00386
1.00268
1.00153
1.00048
0.999438
0.998666
1.00795
1.00795
1.00756
1.00696
1.00608
1.00504
1.00389
1.00271
1.00154
1.00047
0.999426
0.998646
1.008
1.008
1.00762
1.00702
1.00614
1.00509
1.00393
1.00273
1.00156
1.00047
0.999413
0.998625
1.00805
1.00806
1.00767
1.00707
1.00619
1.00513
1.00397
1.00276
1.00157
1.00047
0.9994
0.998604
1.0081
1.00811
1.00773
1.00713
1.00624
1.00518
1.00401
1.00279
1.00158
1.00047
0.999387
0.998583
1.00816
1.00817
1.00779
1.00719
1.0063
1.00523
1.00405
1.00281
1.0016
1.00047
0.999375
0.998562
1.00821
1.00823
1.00785
1.00725
1.00635
1.00528
1.00409
1.00284
1.00161
1.00047
0.999361
0.99854
1.00826
1.00829
1.00791
1.00731
1.00641
1.00533
1.00413
1.00287
1.00162
1.00047
0.999348
0.998518
1.00832
1.00835
1.00797
1.00737
1.00647
1.00538
1.00417
1.0029
1.00164
1.00046
0.999334
0.998495
1.00838
1.00841
1.00804
1.00744
1.00653
1.00544
1.00421
1.00293
1.00165
1.00046
0.999321
0.998472
1.00843
1.00847
1.0081
1.0075
1.00659
1.00549
1.00425
1.00296
1.00166
1.00046
0.999307
0.998447
1.00849
1.00854
1.00817
1.00757
1.00666
1.00555
1.0043
1.00299
1.00168
1.00046
0.999293
0.998422
1.00855
1.0086
1.00823
1.00764
1.00672
1.0056
1.00434
1.00301
1.00169
1.00046
0.999277
0.998396
1.00861
1.00867
1.0083
1.00771
1.00678
1.00566
1.00439
1.00304
1.00171
1.00045
0.999262
0.998369
1.00868
1.00874
1.00837
1.00777
1.00685
1.00572
1.00443
1.00307
1.00172
1.00045
0.999245
0.99834
1.00874
1.00881
1.00844
1.00784
1.00691
1.00577
1.00448
1.0031
1.00173
1.00045
0.999228
0.998311
1.0088
1.00888
1.00851
1.00791
1.00698
1.00583
1.00452
1.00313
1.00174
1.00044
0.999209
0.99828
1.00887
1.00895
1.00858
1.00798
1.00704
1.00589
1.00456
1.00316
1.00176
1.00044
0.99919
0.998249
1.00894
1.00902
1.00865
1.00805
1.00711
1.00594
1.00461
1.00319
1.00177
1.00043
0.999169
0.998217
1.009
1.00909
1.00873
1.00813
1.00717
1.006
1.00465
1.00322
1.00178
1.00043
0.999149
0.998185
1.00907
1.00917
1.0088
1.0082
1.00724
1.00606
1.0047
1.00325
1.00179
1.00042
0.999127
0.998151
1.00914
1.00924
1.00888
1.00827
1.00731
1.00612
1.00474
1.00328
1.0018
1.00041
0.999105
0.998117
1.00921
1.00932
1.00895
1.00835
1.00738
1.00618
1.00479
1.00331
1.00181
1.00041
0.999082
0.998081
1.00929
1.0094
1.00903
1.00843
1.00745
1.00624
1.00483
1.00334
1.00183
1.0004
0.999059
0.998046
1.00936
1.00948
1.00911
1.00851
1.00752
1.0063
1.00488
1.00337
1.00184
1.00039
0.999035
0.998009
1.00944
1.00956
1.0092
1.00859
1.00759
1.00636
1.00493
1.0034
1.00185
1.00038
0.999011
0.997972
1.00952
1.00965
1.00928
1.00867
1.00767
1.00643
1.00498
1.00343
1.00186
1.00038
0.998986
0.997933
1.0096
1.00973
1.00937
1.00875
1.00775
1.00649
1.00503
1.00346
1.00187
1.00037
0.998961
0.997893
1.00968
1.00982
1.00946
1.00884
1.00782
1.00656
1.00508
1.00349
1.00188
1.00036
0.998934
0.997851
1.00976
1.00991
1.00954
1.00893
1.0079
1.00663
1.00513
1.00352
1.00189
1.00035
0.998907
0.997809
1.00984
1.01
1.00963
1.00901
1.00798
1.00669
1.00518
1.00356
1.0019
1.00034
0.998879
0.997764
1.00993
1.01009
1.00973
1.0091
1.00806
1.00676
1.00524
1.00359
1.00191
1.00033
0.99885
0.997719
1.01001
1.01019
1.00982
1.00919
1.00815
1.00683
1.00529
1.00362
1.00192
1.00031
0.998819
0.997671
1.0101
1.01028
1.00991
1.00929
1.00823
1.0069
1.00534
1.00365
1.00193
1.0003
0.998788
0.997623
1.01019
1.01038
1.01001
1.00938
1.00831
1.00697
1.00539
1.00368
1.00194
1.00029
0.998755
0.997573
1.01028
1.01048
1.01011
1.00947
1.0084
1.00705
1.00544
1.00371
1.00195
1.00027
0.998721
0.997522
1.01037
1.01057
1.01021
1.00957
1.00848
1.00712
1.0055
1.00374
1.00195
1.00026
0.998685
0.997469
1.01047
1.01068
1.01031
1.00966
1.00857
1.00719
1.00555
1.00377
1.00196
1.00024
0.998649
0.997416
1.01056
1.01078
1.01041
1.00976
1.00865
1.00726
1.0056
1.0038
1.00196
1.00022
0.998611
0.997361
1.01066
1.01088
1.01051
1.00986
1.00874
1.00733
1.00565
1.00383
1.00197
1.0002
0.998573
0.997305
1.01076
1.01099
1.01061
1.00996
1.00883
1.00741
1.00571
1.00386
1.00197
1.00018
0.998533
0.997248
1.01086
1.0111
1.01072
1.01006
1.00892
1.00748
1.00576
1.00389
1.00198
1.00016
0.998493
0.99719
1.01097
1.0112
1.01083
1.01017
1.00901
1.00756
1.00581
1.00392
1.00198
1.00014
0.998451
0.997131
1.01107
1.01132
1.01094
1.01027
1.0091
1.00763
1.00587
1.00395
1.00198
1.00012
0.99841
0.997071
1.01118
1.01143
1.01105
1.01038
1.0092
1.00771
1.00592
1.00397
1.00198
1.0001
0.998366
0.99701
1.01129
1.01154
1.01116
1.01048
1.00929
1.00779
1.00597
1.004
1.00199
1.00008
0.998323
0.996948
1.0114
1.01166
1.01128
1.01059
1.00939
1.00786
1.00603
1.00403
1.00199
1.00005
0.998277
0.996884
1.01151
1.01178
1.0114
1.01071
1.00948
1.00794
1.00608
1.00406
1.00199
1.00003
0.998232
0.99682
1.01163
1.0119
1.01151
1.01082
1.00958
1.00802
1.00614
1.00409
1.00199
1
0.998184
0.996754
1.01174
1.01203
1.01163
1.01093
1.00968
1.0081
1.00619
1.00411
1.00199
0.999976
0.998137
0.996688
1.01186
1.01215
1.01176
1.01105
1.00978
1.00818
1.00625
1.00414
1.00199
0.999949
0.998087
0.996619
1.01198
1.01228
1.01188
1.01117
1.00988
1.00827
1.0063
1.00417
1.00199
0.999921
0.998037
0.99655
1.0121
1.01241
1.01201
1.01129
1.00999
1.00835
1.00636
1.0042
1.00198
0.999892
0.997985
0.996479
1.01223
1.01254
1.01214
1.01141
1.01009
1.00843
1.00641
1.00423
1.00198
0.999863
0.997933
0.996408
1.01235
1.01267
1.01227
1.01153
1.0102
1.00852
1.00647
1.00425
1.00198
0.999832
0.997878
0.996333
1.01248
1.01281
1.0124
1.01165
1.0103
1.0086
1.00653
1.00428
1.00197
0.999801
0.997824
0.996259
1.01261
1.01294
1.01253
1.01178
1.01041
1.00869
1.00658
1.00431
1.00197
0.999768
0.997766
0.996182
1.01275
1.01308
1.01266
1.01191
1.01052
1.00877
1.00664
1.00433
1.00196
0.999735
0.997709
0.996104
1.01288
1.01322
1.0128
1.01204
1.01063
1.00886
1.0067
1.00436
1.00196
0.9997
0.997648
0.996024
1.01302
1.01337
1.01294
1.01217
1.01074
1.00895
1.00676
1.00439
1.00195
0.999665
0.997588
0.995943
1.01316
1.01351
1.01308
1.0123
1.01085
1.00904
1.00682
1.00441
1.00194
0.999627
0.997525
0.995859
1.0133
1.01366
1.01323
1.01244
1.01097
1.00913
1.00688
1.00444
1.00194
0.99959
0.997462
0.995775
1.01344
1.01382
1.01337
1.01257
1.01108
1.00923
1.00694
1.00447
1.00193
0.99955
0.997395
0.995687
1.01359
1.01397
1.01352
1.01271
1.0112
1.00932
1.007
1.0045
1.00192
0.999511
0.997329
0.995599
1.01374
1.01413
1.01367
1.01286
1.01132
1.00942
1.00706
1.00452
1.00191
0.999469
0.997259
0.995507
1.01389
1.01429
1.01383
1.013
1.01145
1.00951
1.00712
1.00455
1.0019
0.999427
0.997189
0.995415
1.01405
1.01445
1.01399
1.01315
1.01157
1.00961
1.00718
1.00458
1.00189
0.999382
0.997116
0.995319
1.01421
1.01461
1.01415
1.0133
1.0117
1.00971
1.00725
1.0046
1.00187
0.999338
0.997042
0.995223
1.01437
1.01478
1.01431
1.01345
1.01183
1.00982
1.00731
1.00463
1.00186
0.99929
0.996965
0.995122
1.01453
1.01495
1.01448
1.01361
1.01196
1.00992
1.00738
1.00466
1.00185
0.999243
0.996887
0.995021
1.0147
1.01513
1.01465
1.01377
1.0121
1.01003
1.00744
1.00469
1.00183
0.999192
0.996806
0.994915
1.01487
1.01531
1.01482
1.01393
1.01223
1.01013
1.00751
1.00471
1.00182
0.999142
0.996724
0.994809
1.01504
1.01549
1.01499
1.01409
1.01237
1.01024
1.00758
1.00474
1.0018
0.999087
0.996638
0.994698
1.01522
1.01567
1.01517
1.01426
1.01251
1.01035
1.00765
1.00477
1.00178
0.999033
0.996551
0.994586
1.0154
1.01586
1.01536
1.01443
1.01266
1.01046
1.00772
1.00479
1.00177
0.998975
0.99646
0.994469
1.01558
1.01605
1.01554
1.01461
1.01281
1.01058
1.00779
1.00482
1.00175
0.998917
0.996368
0.994351
1.01577
1.01625
1.01573
1.01478
1.01296
1.01069
1.00786
1.00484
1.00173
0.998856
0.996272
0.994228
1.01596
1.01644
1.01593
1.01496
1.01311
1.01081
1.00793
1.00487
1.0017
0.998793
0.996175
0.994104
1.01616
1.01665
1.01612
1.01515
1.01326
1.01093
1.00801
1.0049
1.00168
0.998727
0.996073
0.993975
1.01635
1.01685
1.01632
1.01533
1.01342
1.01105
1.00808
1.00492
1.00166
0.99866
0.99597
0.993844
1.01656
1.01706
1.01653
1.01552
1.01358
1.01118
1.00816
1.00495
1.00163
0.99859
0.995862
0.993707
1.01676
1.01728
1.01674
1.01572
1.01375
1.0113
1.00823
1.00497
1.0016
0.998518
0.995752
0.993569
1.01697
1.01749
1.01695
1.01592
1.01392
1.01143
1.00831
1.00499
1.00157
0.998443
0.995638
0.993425
1.01718
1.01772
1.01717
1.01612
1.01409
1.01156
1.00839
1.00502
1.00154
0.998366
0.995522
0.99328
1.0174
1.01794
1.01739
1.01632
1.01426
1.01169
1.00847
1.00504
1.00151
0.998285
0.995401
0.993128
1.01762
1.01817
1.01761
1.01653
1.01444
1.01183
1.00855
1.00507
1.00148
0.998204
0.995278
0.992974
1.01785
1.01841
1.01784
1.01675
1.01462
1.01196
1.00863
1.00509
1.00144
0.998117
0.995149
0.992814
1.01808
1.01865
1.01808
1.01697
1.0148
1.0121
1.00871
1.00511
1.00141
0.998029
0.995019
0.992651
1.01831
1.0189
1.01832
1.01719
1.01499
1.01224
1.00879
1.00513
1.00137
0.997936
0.994882
0.992482
1.01855
1.01915
1.01856
1.01742
1.01518
1.01239
1.00888
1.00515
1.00132
0.997842
0.994744
0.99231
1.0188
1.0194
1.01881
1.01765
1.01538
1.01253
1.00896
1.00517
1.00128
0.997743
0.994599
0.992131
1.01905
1.01966
1.01907
1.01788
1.01558
1.01268
1.00905
1.00519
1.00124
0.997642
0.994451
0.99195
1.0193
1.01993
1.01933
1.01813
1.01578
1.01283
1.00913
1.00521
1.00119
0.997535
0.994297
0.991761
1.01956
1.0202
1.01959
1.01837
1.01599
1.01298
1.00922
1.00523
1.00114
0.997427
0.994141
0.991569
1.01982
1.02048
1.01986
1.01862
1.0162
1.01314
1.00931
1.00524
1.00108
0.997312
0.993977
0.991369
1.02009
1.02076
1.02014
1.01888
1.01642
1.0133
1.00939
1.00526
1.00103
0.997196
0.993811
0.991166
1.02037
1.02105
1.02042
1.01914
1.01664
1.01346
1.00948
1.00527
1.00097
0.997073
0.993637
0.990955
1.02064
1.02134
1.02071
1.01941
1.01686
1.01362
1.00957
1.00528
1.0009
0.996948
0.99346
0.99074
1.02093
1.02164
1.021
1.01968
1.01709
1.01379
1.00966
1.00529
1.00084
0.996816
0.993275
0.990517
1.02122
1.02195
1.0213
1.01996
1.01732
1.01396
1.00975
1.0053
1.00077
0.996682
0.993086
0.99029
1.02152
1.02226
1.02161
1.02024
1.01756
1.01413
1.00984
1.00531
1.0007
0.99654
0.99289
0.990054
1.02182
1.02258
1.02192
1.02053
1.0178
1.0143
1.00994
1.00532
1.00062
0.996396
0.99269
0.989814
1.02213
1.0229
1.02224
1.02083
1.01805
1.01448
1.01003
1.00532
1.00054
0.996244
0.992481
0.989565
1.02245
1.02324
1.02257
1.02113
1.0183
1.01466
1.01012
1.00532
1.00046
0.996089
0.992268
0.98931
1.02277
1.02358
1.0229
1.02144
1.01855
1.01484
1.01021
1.00532
1.00037
0.995926
0.992046
0.989047
1.0231
1.02392
1.02325
1.02175
1.01882
1.01503
1.01031
1.00532
1.00028
0.99576
0.99182
0.988778
1.02344
1.02428
1.02359
1.02208
1.01908
1.01521
1.0104
1.00532
1.00018
0.995585
0.991584
0.988499
1.02378
1.02464
1.02395
1.02241
1.01935
1.0154
1.01049
1.00531
1.00008
0.995407
0.991343
0.988215
1.02413
1.02501
1.02432
1.02274
1.01963
1.0156
1.01059
1.0053
0.999977
0.995219
0.991092
0.98792
1.02449
1.02539
1.02469
1.02309
1.01992
1.0158
1.01068
1.00529
0.999867
0.995027
0.990836
0.987619
1.02486
1.02578
1.02507
1.02344
1.0202
1.01599
1.01077
1.00527
0.99975
0.994826
0.990569
0.987307
1.02524
1.02618
1.02546
1.0238
1.0205
1.0162
1.01087
1.00525
0.999629
0.99462
0.990296
0.986988
1.02562
1.02658
1.02586
1.02416
1.0208
1.0164
1.01096
1.00523
0.999501
0.994404
0.990012
0.986658
1.02601
1.02699
1.02627
1.02454
1.02111
1.01661
1.01105
1.00521
0.999368
0.994182
0.989722
0.986321
1.02642
1.02742
1.02668
1.02492
1.02142
1.01682
1.01114
1.00518
0.999227
0.99395
0.98942
0.985972
1.02683
1.02785
1.02711
1.02531
1.02174
1.01704
1.01124
1.00514
0.999081
0.993711
0.989111
0.985616
1.02725
1.0283
1.02755
1.02571
1.02206
1.01725
1.01132
1.0051
0.998926
0.993462
0.988789
0.985247
1.02768
1.02875
1.02799
1.02613
1.02239
1.01747
1.01141
1.00506
0.998766
0.993206
0.98846
0.984869
1.02812
1.02921
1.02845
1.02654
1.02273
1.0177
1.0115
1.00501
0.998596
0.992938
0.988118
0.984478
1.02857
1.02969
1.02892
1.02697
1.02308
1.01792
1.01159
1.00496
0.99842
0.992662
0.987768
0.984079
1.02903
1.03017
1.0294
1.02741
1.02343
1.01815
1.01167
1.0049
0.998233
0.992374
0.987404
0.983666
1.0295
1.03067
1.02989
1.02786
1.02379
1.01838
1.01175
1.00484
0.99804
0.992078
0.987032
0.983243
1.02998
1.03118
1.0304
1.02832
1.02416
1.01861
1.01183
1.00476
0.997836
0.991769
0.986645
0.982806
1.03047
1.03171
1.03091
1.02879
1.02453
1.01885
1.01191
1.00469
0.997624
0.99145
0.986247
0.982359
1.03098
1.03224
1.03144
1.02927
1.02491
1.01909
1.01198
1.0046
0.9974
0.991117
0.985836
0.981896
1.03149
1.03279
1.03198
1.02977
1.0253
1.01933
1.01206
1.00451
0.997167
0.990775
0.985413
0.981423
1.03202
1.03335
1.03254
1.03027
1.0257
1.01957
1.01212
1.00441
0.996922
0.990417
0.984975
0.980934
1.03257
1.03393
1.03311
1.03079
1.0261
1.01982
1.01219
1.0043
0.996667
0.990049
0.984524
0.980433
1.03312
1.03452
1.03369
1.03132
1.02652
1.02006
1.01225
1.00418
0.996398
0.989664
0.984058
0.979915
1.03369
1.03513
1.03429
1.03186
1.02694
1.02031
1.0123
1.00405
0.996118
0.989268
0.983579
0.979385
1.03427
1.03575
1.03491
1.03242
1.02737
1.02056
1.01235
1.00391
0.995823
0.988854
0.983082
0.978838
1.03487
1.03639
1.03554
1.03299
1.0278
1.02081
1.0124
1.00377
0.995516
0.988428
0.982572
0.978277
1.03549
1.03704
1.03619
1.03357
1.02825
1.02106
1.01243
1.00361
0.995193
0.987983
0.982043
0.977698
1.03612
1.03771
1.03685
1.03417
1.0287
1.02131
1.01247
1.00343
0.994856
0.987524
0.9815
0.977105
1.03676
1.0384
1.03754
1.03478
1.02916
1.02157
1.01249
1.00325
0.994501
0.987045
0.980937
0.976492
1.03742
1.03911
1.03824
1.03541
1.02964
1.02182
1.01251
1.00305
0.994132
0.986551
0.980358
0.975864
1.0381
1.03984
1.03896
1.03606
1.03012
1.02207
1.01251
1.00284
0.993743
0.986037
0.979759
0.975216
1.0388
1.04059
1.0397
1.03672
1.0306
1.02232
1.01251
1.00261
0.993338
0.985505
0.979143
0.974552
1.03952
1.04136
1.04046
1.03739
1.0311
1.02257
1.0125
1.00236
0.992912
0.984951
0.978505
0.973867
1.04025
1.04215
1.04125
1.03809
1.03161
1.02281
1.01247
1.0021
0.992468
0.984378
0.977849
0.973164
1.04101
1.04296
1.04205
1.0388
1.03212
1.02306
1.01243
1.00182
0.992001
0.983782
0.97717
0.97244
1.04179
1.0438
1.04288
1.03953
1.03264
1.0233
1.01238
1.00152
0.991514
0.983166
0.976471
0.971697
1.04258
1.04466
1.04373
1.04028
1.03317
1.02353
1.01232
1.0012
0.991002
0.982524
0.975748
0.970931
1.0434
1.04554
1.04461
1.04105
1.03371
1.02376
1.01224
1.00085
0.990467
0.981861
0.975005
0.970145
1.04425
1.04645
1.04552
1.04184
1.03426
1.02399
1.01214
1.00049
0.989906
0.981171
0.974235
0.969335
1.04512
1.04739
1.04645
1.04265
1.03481
1.0242
1.01202
1.0001
0.98932
0.980456
0.973444
0.968505
1.04601
1.04836
1.04741
1.04348
1.03537
1.02441
1.01189
0.999679
0.988705
0.979714
0.972625
0.967649
1.04693
1.04936
1.0484
1.04433
1.03594
1.02461
1.01173
0.999235
0.988062
0.978945
0.971783
0.966771
1.04788
1.05039
1.04942
1.04521
1.03651
1.02479
1.01154
0.99876
0.987388
0.978145
0.970912
0.965866
1.04886
1.05145
1.05047
1.0461
1.03709
1.02497
1.01134
0.998256
0.986684
0.977318
0.970015
0.964938
1.04986
1.05254
1.05156
1.04702
1.03767
1.02512
1.0111
0.997717
0.985945
0.976458
0.969089
0.963983
1.0509
1.05367
1.05268
1.04796
1.03825
1.02526
1.01083
0.997145
0.985173
0.975567
0.968135
0.963003
1.05197
1.05484
1.05383
1.04893
1.03884
1.02539
1.01053
0.996534
0.984363
0.974642
0.967149
0.961993
1.05307
1.05604
1.05503
1.04992
1.03943
1.02549
1.0102
0.995886
0.983517
0.973684
0.966135
0.960958
1.05421
1.05729
1.05626
1.05094
1.04002
1.02556
1.00983
0.995195
0.98263
0.972689
0.965088
0.959893
1.05538
1.05858
1.05754
1.05198
1.0406
1.02561
1.00942
0.994461
0.981704
0.971659
0.964009
0.9588
1.0566
1.05991
1.05885
1.05304
1.04118
1.02563
1.00896
0.99368
0.980733
0.97059
0.962896
0.957676
1.05785
1.06129
1.06022
1.05413
1.04176
1.02562
1.00846
0.992852
0.979719
0.969482
0.961751
0.956523
1.05915
1.06272
1.06163
1.05525
1.04232
1.02556
1.00791
0.991971
0.978657
0.968333
0.960568
0.955337
1.06049
1.06421
1.06308
1.05638
1.04288
1.02547
1.0073
0.991036
0.977548
0.967144
0.959352
0.954121
1.06187
1.06574
1.06459
1.05755
1.04342
1.02533
1.00664
0.990043
0.976387
0.96591
0.958097
0.95287
1.06331
1.06734
1.06616
1.05873
1.04393
1.02514
1.00591
0.988991
0.975175
0.964633
0.956806
0.951588
1.0648
1.069
1.06777
1.05994
1.04443
1.02489
1.00511
0.987874
0.973907
0.96331
0.955474
0.950271
1.06633
1.07072
1.06945
1.06117
1.0449
1.02458
1.00424
0.986691
0.972584
0.961941
0.954105
0.94892
1.06793
1.07251
1.07118
1.06241
1.04533
1.0242
1.00329
0.985437
0.971201
0.960522
0.952694
0.947533
1.06959
1.07437
1.07298
1.06368
1.04572
1.02375
1.00227
0.98411
0.969759
0.959055
0.951243
0.94611
1.07131
1.07631
1.07484
1.06495
1.04606
1.02321
1.00115
0.982705
0.968252
0.957536
0.949749
0.94465
1.07309
1.07833
1.07677
1.06624
1.04635
1.02258
0.999934
0.981221
0.966683
0.955967
0.948214
0.943154
1.07495
1.08044
1.07877
1.06753
1.04658
1.02185
0.99862
0.979651
0.965045
0.954343
0.946634
0.941618
1.07688
1.08264
1.08084
1.06882
1.04673
1.021
0.9972
0.977994
0.963339
0.952666
0.94501
0.940046
1.07888
1.08493
1.08298
1.0701
1.04679
1.02004
0.995664
0.976244
0.961562
0.950933
0.943341
0.938432
1.08098
1.08734
1.08519
1.07137
1.04675
1.01895
0.994009
0.9744
0.959714
0.949145
0.941627
0.93678
1.08316
1.08985
1.08748
1.07262
1.04661
1.01771
0.992225
0.972457
0.95779
0.947299
0.939866
0.935086
1.08544
1.09249
1.08984
1.07383
1.04633
1.01631
0.990307
0.970413
0.955792
0.945396
0.938059
0.933352
1.08781
1.09525
1.09228
1.07499
1.04591
1.01475
0.988246
0.968263
0.953716
0.943433
0.936204
0.931575
1.0903
1.09815
1.09479
1.07609
1.04532
1.013
0.986038
0.966006
0.951562
0.941412
0.934303
0.929759
1.09291
1.10119
1.09737
1.07711
1.04455
1.01105
0.983672
0.963637
0.949328
0.93933
0.932353
0.927899
1.09564
1.10439
1.10001
1.07804
1.04357
1.00889
0.981146
0.961157
0.947015
0.93719
0.930356
0.925998
1.09851
1.10775
1.1027
1.07883
1.04235
1.0065
0.97845
0.958561
0.944621
0.934989
0.928309
0.924054
1.10152
1.11129
1.10545
1.07948
1.04088
1.00387
0.975581
0.955851
0.942147
0.932729
0.926216
0.922069
1.10469
1.11501
1.10823
1.07994
1.03911
1.00098
0.972533
0.953022
0.939591
0.930408
0.924073
0.920041
1.10804
1.11893
1.11103
1.08018
1.03702
0.997815
0.969303
0.950078
0.936956
0.928029
0.921883
0.91797
1.11158
1.12306
1.11382
1.08017
1.03457
0.994358
0.965887
0.947016
0.934241
0.925591
0.919645
0.915857
1.11532
1.1274
1.11659
1.07984
1.03172
0.990598
0.962285
0.943841
0.931449
0.923096
0.917361
0.913702
1.11929
1.13196
1.1193
1.07915
1.02845
0.986522
0.958496
0.940552
0.92858
0.920544
0.915029
0.911503
1.12351
1.13676
1.1219
1.07805
1.02471
0.98212
0.954523
0.937154
0.925637
0.917938
0.912652
0.909264
1.12801
1.14179
1.12434
1.07646
1.02046
0.977384
0.950369
0.93365
0.922623
0.915279
0.910229
0.906981
1.13282
1.14705
1.12658
1.07431
1.01567
0.972311
0.946041
0.930046
0.919541
0.912569
0.907764
0.904658
1.13796
1.15253
1.12853
1.07152
1.01029
0.966901
0.941548
0.926347
0.916394
0.90981
0.905254
0.902293
1.14348
1.15823
1.1301
1.068
1.0043
0.96116
0.936902
0.92256
0.913187
0.907005
0.902704
0.899888
1.14942
1.16412
1.1312
1.06367
0.997666
0.955099
0.932116
0.918693
0.909923
0.904157
0.900113
0.897442
1.15582
1.17016
1.1317
1.05842
0.990366
0.948736
0.927209
0.914755
0.906609
0.901268
0.897484
0.894957
1.16275
1.17629
1.13147
1.05215
0.982387
0.942098
0.922197
0.910754
0.903248
0.898343
0.894819
0.892435
1.17025
1.18245
1.13033
1.04477
0.973733
0.93522
0.917103
0.906701
0.899849
0.895386
0.892119
0.889875
1.17839
1.18853
1.12811
1.03617
0.964419
0.928143
0.911951
0.902605
0.896415
0.8924
0.889386
0.887281
1.18724
1.1944
1.1246
1.02627
0.954482
0.920921
0.906765
0.898477
0.892954
0.889389
0.886625
0.884653
1.19687
1.19988
1.11957
1.01499
0.943982
0.913613
0.901569
0.894326
0.889472
0.886359
0.883837
0.881994
1.20734
1.20476
1.11276
1.00228
0.933004
0.906286
0.896387
0.890163
0.885977
0.883316
0.881026
0.879308
1.21872
1.20875
1.10391
0.988135
0.921665
0.899009
0.891242
0.885996
0.882476
0.880264
0.878197
0.876596
1.23107
1.21149
1.09273
0.972578
0.910109
0.891858
0.886153
0.881835
0.878976
0.877211
0.875357
0.873862
1.2444
1.21256
1.07894
0.955709
0.898511
0.884899
0.881135
0.877686
0.875486
0.874167
0.872517
0.871109
1.25872
1.21142
1.06226
0.937708
0.887069
0.8782
0.876202
0.873557
0.872013
0.871134
0.869677
0.868329
1.27395
1.2074
1.04248
0.918849
0.875992
0.871801
0.871354
0.869462
0.868584
0.86816
0.866891
0.86556
1.28992
1.1997
1.01944
0.899531
0.865511
0.865755
0.866589
0.865368
0.865139
0.86514
0.864039
0.862698
1.3063
1.18737
0.993141
0.880218
0.855756
0.86005
0.861988
0.861485
0.861993
0.862464
0.861475
0.859977
1.3226
1.16926
0.963935
0.861691
0.847018
0.854515
0.857063
0.857109
0.85829
0.859317
0.858511
0.856935
1.33783
1.14399
0.932242
0.844125
0.839684
0.850376
0.853683
0.854393
0.85616
0.857456
0.856428
0.854391
1.35083
1.11072
0.901115
0.82769
0.830616
0.843057
0.847192
0.849254
0.852498
0.854702
0.853742
0.8513
1.35801
1.06517
0.874906
0.821344
0.830369
0.842108
0.844988
0.846922
0.850693
0.853301
0.852246
0.849471
1.36078
0.993423
0.82509
0.797259
0.819566
0.836647
0.841895
0.845307
0.850052
0.853124
0.852208
0.849483
0.99614
0.996365
0.997072
0.997556
0.997602
0.997389
0.997215
0.997248
0.997453
0.997693
0.997855
0.997909
0.996606
0.996676
0.997182
0.997549
0.997582
0.997408
0.997265
0.997295
0.997477
0.997694
0.997845
0.997901
0.997077
0.996949
0.997214
0.997467
0.997522
0.997426
0.997334
0.997358
0.9975
0.997682
0.997817
0.997876
0.997375
0.997104
0.997205
0.997404
0.997509
0.997491
0.997432
0.997433
0.997524
0.997664
0.997784
0.997846
0.997531
0.997204
0.997234
0.997417
0.997553
0.99757
0.997515
0.997483
0.997529
0.997635
0.997744
0.99781
0.997641
0.997318
0.997321
0.997479
0.997606
0.99762
0.997556
0.997503
0.997522
0.997609
0.99771
0.997779
0.997761
0.997458
0.997431
0.997544
0.997636
0.997637
0.997572
0.997516
0.997525
0.997598
0.997689
0.997757
0.997891
0.997594
0.997529
0.99759
0.997649
0.997643
0.997587
0.997536
0.997538
0.997595
0.997673
0.997735
0.998003
0.997705
0.997604
0.997624
0.99766
0.997652
0.997604
0.997557
0.99755
0.997592
0.997657
0.997713
0.998086
0.997787
0.997663
0.997656
0.997675
0.997664
0.99762
0.997573
0.997559
0.997589
0.997644
0.997695
0.998143
0.997851
0.997715
0.997689
0.997693
0.997676
0.997632
0.997586
0.997568
0.997589
0.997634
0.997679
0.998187
0.997906
0.997763
0.997721
0.99771
0.997686
0.997642
0.997597
0.997576
0.99759
0.997625
0.997663
0.998224
0.997954
0.997806
0.997749
0.997725
0.997695
0.997652
0.997608
0.997584
0.99759
0.997616
0.997647
0.998256
0.997995
0.997842
0.997774
0.99774
0.997705
0.997661
0.997617
0.99759
0.997589
0.997608
0.997633
0.998281
0.998028
0.997872
0.997795
0.997753
0.997715
0.997669
0.997624
0.997594
0.997587
0.9976
0.997621
0.998301
0.998055
0.997898
0.997815
0.997767
0.997723
0.997675
0.997628
0.997596
0.997586
0.997594
0.997612
0.998316
0.998077
0.99792
0.997832
0.997778
0.99773
0.997679
0.997631
0.997597
0.997584
0.997589
0.997605
0.998328
0.998097
0.997939
0.997847
0.997786
0.997734
0.997682
0.997633
0.997598
0.997584
0.997586
0.997599
0.998338
0.998112
0.997954
0.997857
0.997792
0.997737
0.997683
0.997634
0.997599
0.997583
0.997583
0.997593
0.998345
0.998124
0.997965
0.997865
0.997796
0.997739
0.997685
0.997636
0.997601
0.997583
0.99758
0.997587
0.998349
0.998131
0.997972
0.997869
0.997799
0.99774
0.997686
0.997637
0.997601
0.997581
0.997576
0.997579
0.99835
0.998136
0.997977
0.997873
0.997801
0.997742
0.997687
0.997637
0.9976
0.997579
0.99757
0.99757
0.998349
0.998138
0.99798
0.997876
0.997802
0.997742
0.997686
0.997636
0.997597
0.997573
0.997562
0.99756
0.998346
0.998139
0.997983
0.997877
0.997803
0.997742
0.997685
0.997633
0.997592
0.997567
0.997553
0.997548
0.998342
0.998139
0.997984
0.997878
0.997802
0.997739
0.997681
0.997628
0.997585
0.997557
0.997542
0.997536
0.998337
0.998138
0.997984
0.997878
0.997801
0.997736
0.997675
0.99762
0.997576
0.997547
0.99753
0.997523
0.998332
0.998137
0.997983
0.997876
0.997796
0.99773
0.997667
0.997611
0.997565
0.997535
0.997516
0.997509
0.998327
0.998134
0.997981
0.997872
0.99779
0.997722
0.997658
0.9976
0.997554
0.997522
0.997503
0.997495
0.998321
0.99813
0.997977
0.997866
0.997782
0.997711
0.997646
0.997587
0.99754
0.997508
0.997489
0.997481
0.998313
0.998125
0.997971
0.997858
0.997772
0.9977
0.997634
0.997574
0.997527
0.997495
0.997475
0.997466
0.998304
0.998118
0.997963
0.997848
0.99776
0.997686
0.99762
0.99756
0.997513
0.99748
0.99746
0.997451
0.998294
0.998109
0.997953
0.997836
0.997747
0.997673
0.997606
0.997546
0.997498
0.997465
0.997444
0.997436
0.998283
0.998098
0.997942
0.997822
0.997732
0.997658
0.997591
0.997531
0.997483
0.99745
0.997428
0.99742
0.99827
0.998086
0.997929
0.997808
0.997717
0.997642
0.997576
0.997516
0.997468
0.997434
0.997412
0.997404
0.998255
0.998072
0.997914
0.997792
0.9977
0.997626
0.997559
0.9975
0.997451
0.997417
0.997395
0.997387
0.998241
0.998057
0.997898
0.997775
0.997683
0.997609
0.997543
0.997484
0.997435
0.997401
0.997379
0.99737
0.998225
0.998041
0.997881
0.997757
0.997664
0.997591
0.997526
0.997467
0.997418
0.997383
0.997361
0.997353
0.998208
0.998024
0.997863
0.997738
0.997645
0.997572
0.997508
0.997449
0.9974
0.997366
0.997344
0.997335
0.998191
0.998006
0.997843
0.997717
0.997625
0.997552
0.997488
0.99743
0.997382
0.997347
0.997325
0.997317
0.998174
0.997987
0.997822
0.997695
0.997603
0.997532
0.997469
0.997411
0.997363
0.997328
0.997306
0.997298
0.998155
0.997966
0.9978
0.997672
0.99758
0.99751
0.997448
0.997391
0.997343
0.997308
0.997287
0.997278
0.998136
0.997945
0.997776
0.997648
0.997557
0.997487
0.997426
0.99737
0.997322
0.997288
0.997266
0.997258
0.998115
0.997922
0.997751
0.997623
0.997532
0.997463
0.997403
0.997347
0.9973
0.997266
0.997245
0.997236
0.998093
0.997898
0.997726
0.997596
0.997506
0.997438
0.997378
0.997323
0.997277
0.997243
0.997222
0.997214
0.998071
0.997873