/*--------------------------------*- C++ -*----------------------------------*\
  =========                 |
  \\      /  F ield         | OpenFOAM: The Open Source CFD Toolbox
   \\    /   O peration     | Website:  https://openfoam.org
    \\  /    A nd           | Version:  6.0
     \\/     M anipulation  |
\*---------------------------------------------------------------------------*/
FoamFile
{
    version     2.0;
    format      ascii;
    class       surfaceScalarField;
    location    "2.3";
    object      phi;
}
// * * * * * * * * * * * * * * * * * * * * * * * * * * * * * * * * * * * * * //

dimensions      [0 3 -1 0 0 0 0];

internalField   nonuniform List<scalar> 
47678
(
2.98104e-05
0.00388593
2.85245e-09
5.98487e-05
0.00381841
8.91146e-05
0.00368577
0.000116963
0.00349003
0.000142855
0.00323461
0.000166314
0.00292397
0.000186917
0.00256352
0.000204297
0.00215946
0.000218147
0.00171879
0.000228221
0.00124897
0.000234337
0.000758852
0.000259874
0.000236953
2.96215e-05
0.00385631
4.06446e-09
5.94701e-05
0.00378856
8.85504e-05
0.00365668
0.000116222
0.00346236
0.000141948
0.00320888
0.000165256
0.00290066
0.000185726
0.00254305
0.000202996
0.00214219
0.000216757
0.00170503
0.000226763
0.00123897
0.000232943
0.00075268
0.000257195
0.000235642
2.94336e-05
0.00382687
4.77519e-09
5.90933e-05
0.0037589
8.79894e-05
0.00362779
0.000115486
0.00343486
0.000141048
0.00318332
0.000164207
0.0028775
0.000184546
0.00252271
0.000201704
0.00212504
0.000215379
0.00169135
0.000225316
0.00122903
0.000231476
0.00074652
0.000254544
0.000234122
2.92467e-05
0.00379762
5.34014e-09
5.87187e-05
0.00372942
8.74319e-05
0.00359907
0.000114754
0.00340754
0.000140153
0.00315792
0.000163164
0.00285449
0.000183373
0.00250251
0.000200421
0.00210799
0.000214009
0.00167777
0.000223881
0.00121917
0.000229989
0.000740421
0.000251998
0.000232555
2.90611e-05
0.00376855
5.5333e-09
5.83464e-05
0.00370014
8.68779e-05
0.00357054
0.000114026
0.00338039
0.000139264
0.00313268
0.000162128
0.00283163
0.000182206
0.00248243
0.000199145
0.00209105
0.000212648
0.00166427
0.000222457
0.00120936
0.00022851
0.000734367
0.000249497
0.000231006
2.88766e-05
0.00373967
5.54226e-09
5.79765e-05
0.00367104
8.63273e-05
0.00354219
0.000113303
0.00335342
0.00013838
0.00310761
0.000161097
0.00280891
0.000181047
0.00246248
0.000197878
0.00207422
0.000211295
0.00165085
0.000221044
0.00119961
0.000227047
0.000728374
0.000247082
0.000229483
2.86933e-05
0.00371097
5.45192e-09
5.76088e-05
0.00364212
8.578e-05
0.00351402
0.000112585
0.00332661
0.000137501
0.00308269
0.000160073
0.00278634
0.000179896
0.00244266
0.000196619
0.0020575
0.000209951
0.00163752
0.000219642
0.00118992
0.0002256
0.000722414
0.000244697
0.000227981
2.85111e-05
0.00368245
5.21943e-09
5.72434e-05
0.00361339
8.52361e-05
0.00348602
0.00011187
0.00329998
0.000136628
0.00305793
0.000159056
0.00276392
0.000178752
0.00242296
0.000195368
0.00204089
0.000208616
0.00162428
0.00021825
0.00118029
0.000224165
0.000716507
0.00024239
0.000226494
2.83302e-05
0.00365411
4.94238e-09
5.68804e-05
0.00358484
8.46955e-05
0.00345821
0.00011116
0.00327351
0.00013576
0.00303333
0.000158045
0.00274163
0.000177615
0.00240339
0.000194125
0.00202438
0.00020729
0.00161111
0.000216866
0.00117071
0.000222741
0.000710628
0.000240104
0.000225023
2.81504e-05
0.00362596
4.62571e-09
5.65196e-05
0.00355647
8.41582e-05
0.00343057
0.000110455
0.00324722
0.000134897
0.00300889
0.00015704
0.00271949
0.000176485
0.00238395
0.00019289
0.00200798
0.000205971
0.00159803
0.000215491
0.0011612
0.000221327
0.0007048
0.000237884
0.000223568
2.79718e-05
0.00359798
4.25542e-09
5.6161e-05
0.00352828
8.36241e-05
0.0034031
0.000109753
0.00322109
0.00013404
0.0029846
0.000156041
0.00269749
0.000175362
0.00236463
0.000191663
0.00199167
0.000204662
0.00158504
0.000214124
0.00115174
0.000219923
0.000698997
0.000235674
0.000222128
2.77944e-05
0.00357018
3.83905e-09
5.58047e-05
0.00350027
8.30933e-05
0.00337581
0.000109056
0.00319513
0.000133188
0.00296047
0.000155049
0.00267563
0.000174247
0.00234543
0.000190444
0.00197548
0.000203361
0.00157212
0.000212766
0.00114234
0.000218528
0.000693242
0.000233518
0.000220702
2.76181e-05
0.00354256
3.36293e-09
5.54506e-05
0.00347244
8.25656e-05
0.0033487
0.000108363
0.00316933
0.000132341
0.00293649
0.000154062
0.00265391
0.000173138
0.00232636
0.000189233
0.00195938
0.000202068
0.00155929
0.000211416
0.00113299
0.000217142
0.000687512
0.000231366
0.000219286
2.74429e-05
0.00351512
2.8358e-09
5.50985e-05
0.00344478
8.20411e-05
0.00332176
0.000107674
0.0031437
0.000131499
0.00291267
0.000153082
0.00263233
0.000172037
0.0023074
0.00018803
0.00194339
0.000200784
0.00154654
0.000210075
0.0011237
0.000215765
0.00068183
0.000229264
0.000217882
2.72687e-05
0.00348784
2.28501e-09
5.47486e-05
0.0034173
8.15198e-05
0.00329498
0.000106989
0.00311823
0.000130663
0.00288899
0.000152109
0.00261088
0.000170943
0.00228857
0.000186834
0.0019275
0.000199508
0.00153386
0.000208742
0.00111446
0.000214397
0.00067617
0.00022716
0.000216489
2.70956e-05
0.00346075
1.75982e-09
5.44007e-05
0.00339
8.10016e-05
0.00326838
0.000106309
0.00309292
0.000129832
0.00286547
0.000151141
0.00258957
0.000169856
0.00226985
0.000185647
0.00191171
0.00019824
0.00152127
0.000207418
0.00110529
0.000213037
0.000670558
0.000225103
0.000215106
2.69235e-05
0.00343382
1.33642e-09
5.40549e-05
0.00336287
8.04865e-05
0.00324195
0.000105632
0.00306778
0.000129006
0.0028421
0.00015018
0.0025684
0.000168776
0.00225126
0.000184467
0.00189602
0.000196981
0.00150875
0.000206102
0.00109616
0.000211686
0.000664969
0.000223044
0.000213733
2.67523e-05
0.00340707
1.10361e-09
5.37111e-05
0.00333591
7.99745e-05
0.00321569
0.00010496
0.00304279
0.000128185
0.00281887
0.000149224
0.00254736
0.000167702
0.00223278
0.000183294
0.00188043
0.00019573
0.00149632
0.000204795
0.0010871
0.000210344
0.000659426
0.000221028
0.000212369
2.65821e-05
0.00338048
1.15827e-09
5.33693e-05
0.00330912
7.94656e-05
0.00318959
0.000104292
0.00301796
0.000127369
0.0027958
0.000148275
0.00252645
0.000166636
0.00221442
0.00018213
0.00186494
0.000194487
0.00148396
0.000203496
0.00107809
0.000209011
0.000653906
0.000219007
0.000211016
2.64129e-05
0.00335407
1.58248e-09
5.30296e-05
0.0032825
7.89597e-05
0.00316366
0.000103629
0.00299329
0.000126559
0.00277287
0.000147332
0.00250568
0.000165577
0.00219618
0.000180972
0.00184954
0.000193252
0.00147169
0.000202205
0.00106914
0.000207686
0.000648431
0.000217029
0.000209671
2.62446e-05
0.00332782
2.42889e-09
5.26918e-05
0.00325606
7.8457e-05
0.0031379
0.000102969
0.00296878
0.000125754
0.00275008
0.000146395
0.00248504
0.000164524
0.00217805
0.000179823
0.00183424
0.000192025
0.00145948
0.000200923
0.00106024
0.000206369
0.000642979
0.000215047
0.000208336
2.60772e-05
0.00330174
3.71055e-09
5.23561e-05
0.00322978
7.79573e-05
0.00311229
0.000102313
0.00294443
0.000124953
0.00272744
0.000145464
0.00246453
0.000163479
0.00216003
0.00017868
0.00181905
0.000190806
0.00144736
0.000199649
0.0010514
0.000205061
0.000637573
0.000213106
0.00020701
2.59107e-05
0.00327582
5.39448e-09
5.20224e-05
0.00320367
7.74607e-05
0.00308686
0.000101662
0.00292023
0.000124158
0.00270495
0.000144539
0.00244415
0.000162439
0.00214213
0.000177545
0.00180394
0.000189595
0.00143531
0.000198383
0.00104261
0.000203761
0.000632189
0.000211159
0.000205693
2.57451e-05
0.00325007
7.41074e-09
5.16906e-05
0.00317772
7.69672e-05
0.00306158
0.000101015
0.00289618
0.000123368
0.00268259
0.00014362
0.0024239
0.000161407
0.00212435
0.000176418
0.00178893
0.000188391
0.00142334
0.000197125
0.00103388
0.00020247
0.00062685
0.000209253
0.000204385
2.55804e-05
0.00322448
9.66765e-09
5.13609e-05
0.00315194
7.64767e-05
0.00303646
0.000100371
0.00287228
0.000122583
0.00266038
0.000142706
0.00240378
0.000160381
0.00210667
0.000175297
0.00177401
0.000187196
0.00141144
0.000195875
0.0010252
0.000201186
0.000621532
0.000207341
0.000203086
2.54166e-05
0.00319905
1.20682e-08
5.10331e-05
0.00312632
7.59893e-05
0.00301151
9.97322e-05
0.00284854
0.000121803
0.00263831
0.000141799
0.00238378
0.000159362
0.00208911
0.000174184
0.00175919
0.000186008
0.00139962
0.000194633
0.00101657
0.000199911
0.000616259
0.000205469
0.000201796
2.52538e-05
0.00317378
1.453e-08
5.07073e-05
0.00310087
7.55048e-05
0.00298671
9.90971e-05
0.00282495
0.000121028
0.00261638
0.000140897
0.00236391
0.00015835
0.00207166
0.000173078
0.00174446
0.000184828
0.00138787
0.000193399
0.001008
0.000198644
0.000611007
0.00020359
0.000200513
2.50918e-05
0.00314867
1.69946e-08
5.03835e-05
0.00307558
7.50234e-05
0.00296207
9.84659e-05
0.00280151
0.000120258
0.00259459
0.000140001
0.00234417
0.000157344
0.00205431
0.00017198
0.00172983
0.000183655
0.00137619
0.000192173
0.000999484
0.000197385
0.0006058
0.000201751
0.000199239
2.49307e-05
0.00312372
1.94316e-08
5.00617e-05
0.00305045
7.4545e-05
0.00293758
9.78387e-05
0.00277821
0.000119492
0.00257293
0.000139111
0.00232455
0.000156344
0.00203708
0.000170888
0.00171528
0.00018249
0.00136459
0.000190954
0.000991016
0.000196134
0.000600614
0.000199904
0.000197974
2.47705e-05
0.00309893
2.18352e-08
4.97418e-05
0.00302548
7.40695e-05
0.00291326
9.72154e-05
0.00275507
0.000118732
0.00255142
0.000138227
0.00230505
0.000155351
0.00201996
0.000169803
0.00170083
0.000181333
0.00135306
0.000189744
0.000982607
0.000194891
0.000595472
0.000198095
0.000196716
2.46113e-05
0.00307429
2.42145e-08
4.94238e-05
0.00300066
7.3597e-05
0.00288908
9.65961e-05
0.00273207
0.000117976
0.00253004
0.000137348
0.00228568
0.000154364
0.00200294
0.000168725
0.00168647
0.000180182
0.0013416
0.000188541
0.000974244
0.000193656
0.00059035
0.000196278
0.000195467
2.44529e-05
0.00304981
2.65831e-08
4.91078e-05
0.00297601
7.31274e-05
0.00286506
9.59807e-05
0.00270922
0.000117226
0.00250879
0.000136475
0.00226643
0.000153383
0.00198603
0.000167654
0.0016722
0.00017904
0.00133022
0.000187346
0.000965941
0.000192429
0.000585272
0.000194496
0.000194226
2.42955e-05
0.00302549
2.89499e-08
4.87937e-05
0.00295151
7.26608e-05
0.00284119
9.53691e-05
0.00268651
0.00011648
0.00248768
0.000135607
0.00224731
0.000152409
0.00196923
0.00016659
0.00165801
0.000177904
0.0013189
0.000186158
0.000957682
0.000191209
0.000580215
0.000192704
0.000192993
2.4139e-05
0.00300132
3.13127e-08
4.84816e-05
0.00292717
7.21971e-05
0.00281748
9.47614e-05
0.00266394
0.000115738
0.00246671
0.000134745
0.0022283
0.000151441
0.00195253
0.000165533
0.00164392
0.000176776
0.00130766
0.000184978
0.000949482
0.000189998
0.0005752
0.000190947
0.000191768
2.39834e-05
0.0029773
3.36565e-08
4.81713e-05
0.00290298
7.17363e-05
0.00279391
9.41576e-05
0.00264152
0.000115002
0.00244586
0.000133888
0.00220941
0.000150479
0.00193594
0.000164483
0.00162992
0.000175655
0.00129649
0.000183806
0.000941327
0.000188794
0.000570206
0.000189181
0.000190551
2.38287e-05
0.00295343
3.59551e-08
4.7863e-05
0.00287895
7.12783e-05
0.0027705
9.35576e-05
0.00261924
0.00011427
0.00242515
0.000133037
0.00219065
0.000149524
0.00191946
0.000163439
0.001616
0.000174541
0.00128539
0.000182641
0.000933229
0.000187597
0.000565254
0.000187447
0.000189342
2.3675e-05
0.00292972
3.81751e-08
4.75566e-05
0.00285507
7.08233e-05
0.00274723
9.29614e-05
0.00259711
0.000113543
0.00240457
0.000132192
0.002172
0.000148574
0.00190307
0.000162402
0.00160217
0.000173434
0.00127435
0.000181483
0.000925175
0.000186408
0.000560322
0.000185702
0.000188141
2.35222e-05
0.00290616
4.02821e-08
4.72522e-05
0.00283133
7.03711e-05
0.00272411
9.23689e-05
0.00257511
0.00011282
0.00238412
0.000131351
0.00215347
0.000147631
0.00188679
0.000161371
0.00158843
0.000172335
0.00126339
0.000180333
0.000917179
0.000185227
0.000555432
0.00018399
0.000186947
2.33703e-05
0.00288274
4.2245e-08
4.69496e-05
0.00280776
6.99218e-05
0.00270114
9.17803e-05
0.00255325
0.000112102
0.00236379
0.000130516
0.00213505
0.000146693
0.00187062
0.000160348
0.00157478
0.000171242
0.00125249
0.00017919
0.000909226
0.000184054
0.000550561
0.000182269
0.000185762
2.32194e-05
0.00285948
4.40414e-08
4.66489e-05
0.00278433
6.94754e-05
0.00267831
9.11954e-05
0.00253153
0.000111389
0.0023436
0.000129687
0.00211675
0.000145762
0.00185454
0.00015933
0.00156121
0.000170156
0.00124167
0.000178055
0.00090133
0.000182888
0.000545733
0.000180578
0.000184583
2.30695e-05
0.00283636
4.56585e-08
4.63501e-05
0.00276105
6.90317e-05
0.00265563
9.06142e-05
0.00250995
0.00011068
0.00232354
0.000128863
0.00209857
0.000144836
0.00183857
0.00015832
0.00154772
0.000169078
0.00123091
0.000176927
0.000893476
0.000181729
0.000540923
0.00017888
0.000183413
2.29205e-05
0.0028134
4.70951e-08
4.60533e-05
0.00273791
6.8591e-05
0.00263309
9.00368e-05
0.0024885
0.000109976
0.0023036
0.000128044
0.0020805
0.000143917
0.0018227
0.000157315
0.00153432
0.000168006
0.00122022
0.000175806
0.000885678
0.000180577
0.000536155
0.000177211
0.00018225
2.27724e-05
0.00279057
4.83578e-08
4.57583e-05
0.00271493
6.8153e-05
0.0026107
8.9463e-05
0.00246719
0.000109276
0.00228378
0.00012723
0.00206255
0.000143003
0.00180692
0.000156317
0.00152101
0.000166941
0.00120959
0.000174692
0.000877923
0.000179433
0.000531405
0.000175535
0.000181094
2.26254e-05
0.0027679
4.94603e-08
4.54652e-05
0.00269209
6.77179e-05
0.00258844
8.8893e-05
0.00244602
0.000108581
0.0022641
0.000126422
0.00204471
0.000142095
0.00179125
0.000155326
0.00150778
0.000165883
0.00119904
0.000173585
0.000870223
0.000178297
0.000526696
0.000173888
0.000179946
2.24793e-05
0.00274537
5.04172e-08
4.51741e-05
0.00266939
6.72855e-05
0.00256633
8.83266e-05
0.00242498
0.00010789
0.00224453
0.000125618
0.00202698
0.000141193
0.00177567
0.000154341
0.00149463
0.000164831
0.00118855
0.000172485
0.000862564
0.000177167
0.000522005
0.000172237
0.000178805
2.23343e-05
0.00272298
5.12432e-08
4.48848e-05
0.00264684
6.6856e-05
0.00254436
8.77639e-05
0.00240407
0.000107204
0.00222509
0.00012482
0.00200936
0.000140297
0.0017602
0.000153362
0.00148156
0.000163786
0.00117812
0.000171392
0.00085496
0.000176045
0.000517354
0.000170612
0.000177672
2.21902e-05
0.00270074
5.19483e-08
4.45974e-05
0.00262444
6.64292e-05
0.00252253
8.72048e-05
0.0023833
0.000106522
0.00220578
0.000124027
0.00199186
0.000139406
0.00174482
0.000152389
0.00146858
0.000162748
0.00116776
0.000170306
0.000847398
0.00017493
0.000512721
0.000168984
0.000176546
2.2047e-05
0.00267864
5.25395e-08
4.43119e-05
0.00260217
6.60053e-05
0.00250084
8.66493e-05
0.00236265
0.000105844
0.00218658
0.000123239
0.00197446
0.000138522
0.00172953
0.000151422
0.00145568
0.000161716
0.00115747
0.000169227
0.000839889
0.000173821
0.000508127
0.000167382
0.000175427
2.19049e-05
0.00265668
5.30198e-08
4.40283e-05
0.00258005
6.5584e-05
0.00247928
8.60973e-05
0.00234214
0.000105171
0.00216751
0.000122456
0.00195718
0.000137642
0.00171435
0.000150462
0.00144286
0.000160691
0.00114724
0.000168154
0.000832421
0.00017272
0.000503552
0.000165778
0.000174315
2.17637e-05
0.00263486
5.33935e-08
4.37465e-05
0.00255806
6.51655e-05
0.00245786
8.5549e-05
0.00232176
0.000104502
0.00214855
0.000121678
0.00194
0.000136769
0.00169926
0.000149508
0.00143012
0.000159673
0.00113707
0.000167089
0.000825006
0.000171626
0.000499015
0.000164199
0.000173211
2.16236e-05
0.00261319
5.36669e-08
4.34666e-05
0.00253622
6.47498e-05
0.00243658
8.50042e-05
0.0023015
0.000103838
0.00212972
0.000120905
0.00192293
0.000135901
0.00168426
0.00014856
0.00141746
0.000158661
0.00112697
0.00016603
0.000817632
0.000170539
0.000494497
0.000162617
0.000172114
2.14844e-05
0.00259165
5.38551e-08
4.31885e-05
0.00251452
6.43367e-05
0.00241543
8.44629e-05
0.00228138
0.000103177
0.00211101
0.000120137
0.00190597
0.000135038
0.00166936
0.000147617
0.00140488
0.000157655
0.00111693
0.000164978
0.00081031
0.000169459
0.000490015
0.000161061
0.000171023
2.13461e-05
0.00257025
5.39809e-08
4.29123e-05
0.00249295
6.39263e-05
0.00239441
8.39251e-05
0.00226138
0.000102521
0.00209241
0.000119374
0.00188912
0.000134181
0.00165455
0.000146681
0.00139238
0.000156656
0.00110695
0.000163933
0.000803028
0.000168386
0.000485554
0.000159501
0.00016994
2.12089e-05
0.00254898
5.40788e-08
4.26379e-05
0.00247152
6.35186e-05
0.00237353
8.33908e-05
0.00224151
0.000101869
0.00207393
0.000118616
0.00187237
0.00013333
0.00163984
0.000145751
0.00137996
0.000155663
0.00109704
0.000162895
0.000795798
0.000167319
0.000481129
0.000157966
0.000168864
2.10725e-05
0.00252786
5.41894e-08
4.23653e-05
0.00245023
6.31136e-05
0.00235278
8.28599e-05
0.00222176
0.000101222
0.00205557
0.000117862
0.00185573
0.000132483
0.00162521
0.000144827
0.00136761
0.000154677
0.00108719
0.000161863
0.000788607
0.00016626
0.000476725
0.000156426
0.000167794
2.09372e-05
0.00250686
5.43586e-08
4.20945e-05
0.00242907
6.27112e-05
0.00233217
8.23324e-05
0.00220214
0.000100578
0.00203732
0.000117114
0.0018392
0.000131643
0.00161069
0.000143908
0.00135535
0.000153696
0.0010774
0.000160837
0.000781467
0.000165207
0.000472355
0.00015491
0.000166732
2.08027e-05
0.00248601
5.46295e-08
4.18255e-05
0.00240805
6.23114e-05
0.00231168
8.18084e-05
0.00218264
9.99386e-05
0.00201919
0.00011637
0.00182276
0.000130807
0.00159625
0.000142996
0.00134315
0.000152722
0.00106767
0.000159818
0.000774367
0.00016416
0.000468006
0.000153389
0.000165676
2.06692e-05
0.00246528
5.50394e-08
4.15583e-05
0.00238716
6.19142e-05
0.00229133
8.12877e-05
0.00216327
9.93033e-05
0.00200118
0.000115631
0.00180644
0.000129977
0.0015819
0.000142089
0.00133104
0.000151754
0.00105801
0.000158806
0.000767316
0.000163121
0.000463692
0.00015189
0.000164627
2.05366e-05
0.00244469
5.56127e-08
4.12929e-05
0.00236641
6.15196e-05
0.0022711
8.07703e-05
0.00214402
9.8672e-05
0.00198328
0.000114897
0.00179021
0.000129152
0.00156765
0.000141188
0.00131901
0.000150793
0.0010484
0.0001578
0.000760304
0.000162088
0.000459398
0.000150387
0.000163584
2.04049e-05
0.00242422
5.63599e-08
4.10292e-05
0.00234578
6.11275e-05
0.002251
8.02563e-05
0.00212489
9.80447e-05
0.00196549
0.000114167
0.00177409
0.000128333
0.00155348
0.000140293
0.00130705
0.000149837
0.00103886
0.000156801
0.000753341
0.000161062
0.000455138
0.000148906
0.000162548
2.02741e-05
0.00240389
5.72762e-08
4.07672e-05
0.00232529
6.0738e-05
0.00223103
7.97456e-05
0.00210589
9.74215e-05
0.00194781
0.000113442
0.00175807
0.000127518
0.0015394
0.000139403
0.00129516
0.000148888
0.00102937
0.000155808
0.000746416
0.000160042
0.000450898
0.000147421
0.000161519
2.01441e-05
0.00238369
5.83444e-08
4.05069e-05
0.00230493
6.03509e-05
0.00221119
7.92381e-05
0.002087
9.68022e-05
0.00193025
0.000112721
0.00174215
0.000126709
0.00152541
0.000138519
0.00128335
0.000147944
0.00101995
0.000154821
0.00073954
0.000159029
0.00044669
0.000145957
0.000160497
2.0015e-05
0.00236361
5.95378e-08
4.02484e-05
0.0022847
5.99664e-05
0.00219147
7.87339e-05
0.00206823
9.61869e-05
0.0019128
0.000112006
0.00172633
0.000125905
0.00151151
0.000137641
0.00127161
0.000147007
0.00101058
0.000153841
0.000732702
0.000158022
0.000442503
0.00014449
0.000159481
1.98868e-05
0.00234366
6.08259e-08
3.99915e-05
0.00226459
5.95843e-05
0.00217188
7.82329e-05
0.00204958
9.55755e-05
0.00189546
0.000111294
0.00171061
0.000125106
0.0014977
0.000136768
0.00125995
0.000146075
0.00100127
0.000152867
0.000725911
0.000157022
0.000438348
0.000143043
0.000158472
1.97594e-05
0.00232384
6.21779e-08
3.97363e-05
0.00224461
5.92048e-05
0.00215241
7.77351e-05
0.00203106
9.4968e-05
0.00187822
0.000110588
0.00169499
0.000124313
0.00148398
0.000135901
0.00124836
0.00014515
0.000992022
0.000151899
0.000719159
0.000156029
0.000434212
0.000141594
0.00015747
1.96329e-05
0.00230414
6.35676e-08
3.94828e-05
0.00222477
5.88276e-05
0.00213306
7.72405e-05
0.00201264
9.43643e-05
0.0018611
0.000109885
0.00167947
0.000123524
0.00147034
0.00013504
0.00123685
0.000144231
0.000982832
0.000150937
0.000712452
0.000155041
0.000430107
0.000140166
0.000156474
1.95072e-05
0.00228457
6.4974e-08
3.92309e-05
0.00220504
5.84528e-05
0.00211384
7.67491e-05
0.00199435
9.37645e-05
0.00184409
0.000109187
0.00166405
0.00012274
0.00145678
0.000134184
0.0012254
0.000143317
0.000973696
0.000149982
0.000705784
0.00015406
0.000426021
0.000138736
0.000155484
1.93823e-05
0.00226512
6.63827e-08
3.89806e-05
0.00218544
5.80805e-05
0.00209474
7.62607e-05
0.00197617
9.31686e-05
0.00182718
0.000108494
0.00164872
0.000121962
0.00144332
0.000133333
0.00121403
0.000142409
0.000964621
0.000149032
0.000699161
0.000153086
0.000421966
0.000137325
0.000154501
1.92581e-05
0.0022458
6.77838e-08
3.87319e-05
0.00216597
5.77105e-05
0.00207576
7.57755e-05
0.0019581
9.25764e-05
0.00181038
0.000107805
0.0016335
0.000121188
0.00142993
0.000132488
0.00120273
0.000141507
0.000955599
0.000148089
0.000692575
0.000152118
0.000417931
0.000135912
0.000153525
1.91348e-05
0.00222659
6.91711e-08
3.84848e-05
0.00214662
5.73429e-05
0.00205691
7.52934e-05
0.00194015
9.1988e-05
0.00179368
0.000107121
0.00161836
0.000120419
0.00141664
0.000131648
0.0011915
0.000140611
0.000946637
0.000147152
0.000686034
0.000151156
0.000413925
0.000134519
0.000152555
1.90123e-05
0.00220751
7.05384e-08
3.82393e-05
0.0021274
5.69777e-05
0.00203817
7.48143e-05
0.00192232
9.14033e-05
0.0017771
0.000106441
0.00160333
0.000119655
0.00140342
0.000130814
0.00118034
0.000139721
0.000937728
0.000146221
0.000679531
0.0001502
0.000409939
0.000133122
0.000151591
1.88905e-05
0.00218854
7.18794e-08
3.79954e-05
0.00210829
5.66147e-05
0.00201955
7.43383e-05
0.0019046
9.08224e-05
0.00176061
0.000105765
0.00158838
0.000118896
0.00139029
0.000129985
0.00116925
0.000138836
0.000928877
0.000145296
0.000673071
0.000149251
0.000405982
0.000131746
0.000150633
1.87695e-05
0.0021697
7.31847e-08
3.7753e-05
0.00208931
5.62541e-05
0.00200105
7.38654e-05
0.00188699
9.02452e-05
0.00174423
0.000105093
0.00157354
0.000118142
0.00137724
0.000129162
0.00115823
0.000137958
0.000920079
0.000144377
0.000666648
0.000148307
0.000402045
0.000130365
0.000149682
1.86492e-05
0.00215097
7.44445e-08
3.75121e-05
0.00207045
5.58957e-05
0.00198267
7.33954e-05
0.00186949
8.96717e-05
0.00172796
0.000104426
0.00155878
0.000117393
0.00136428
0.000128343
0.00114728
0.000137084
0.000911338
0.000143463
0.000660269
0.00014737
0.000398137
0.000129004
0.000148737
1.85297e-05
0.00213237
7.56465e-08
3.72727e-05
0.00205171
5.55396e-05
0.0019644
7.29284e-05
0.0018521
8.91018e-05
0.00171179
0.000103763
0.00154412
0.000116649
0.00135139
0.00012753
0.0011364
0.000136217
0.00090265
0.000142556
0.000653926
0.000146439
0.000394248
0.000127637
0.000147798
1.84109e-05
0.00211388
7.67803e-08
3.70349e-05
0.00203308
5.51858e-05
0.00194625
7.24644e-05
0.00183482
8.85355e-05
0.00169572
0.000103105
0.00152955
0.000115909
0.00133859
0.000126723
0.00112559
0.000135355
0.000894018
0.000141655
0.000647625
0.000145513
0.000390388
0.000126291
0.000146865
1.82928e-05
0.00209551
7.78361e-08
3.67985e-05
0.00201458
5.48342e-05
0.00192821
7.20033e-05
0.00181766
8.79729e-05
0.00167975
0.00010245
0.00151508
0.000115174
0.00132586
0.00012592
0.00111484
0.000134498
0.000885438
0.000140759
0.00064136
0.000144594
0.000386548
0.000124938
0.000145938
1.81754e-05
0.00207725
7.88086e-08
3.65636e-05
0.00199619
5.44849e-05
0.00191029
7.15452e-05
0.0018006
8.74139e-05
0.00166388
0.0001018
0.00150069
0.000114444
0.00131322
0.000125123
0.00110416
0.000133647
0.000876914
0.00013987
0.000635138
0.000143681
0.000382735
0.000123606
0.000145017
1.80588e-05
0.00205911
7.96949e-08
3.63302e-05
0.00197792
5.41377e-05
0.00189249
7.109e-05
0.00178365
8.68584e-05
0.00164811
0.000101154
0.0014864
0.000113719
0.00130066
0.00012433
0.00109355
0.000132802
0.00086844
0.000138986
0.000628951
0.000142774
0.000378942
0.000122267
0.000144102
1.79429e-05
0.00204109
8.04971e-08
3.60983e-05
0.00195976
5.37928e-05
0.00187479
7.06377e-05
0.0017668
8.63065e-05
0.00163245
0.000100512
0.0014722
0.000112998
0.00128817
0.000123543
0.00108301
0.000131962
0.000860022
0.000138108
0.000622805
0.000141872
0.000375177
0.00012095
0.000143193
1.78277e-05
0.00202318
8.12186e-08
3.58678e-05
0.00194173
5.345e-05
0.00185721
7.01883e-05
0.00175007
8.57582e-05
0.00161688
9.98743e-05
0.00145808
0.000112282
0.00127577
0.000122761
0.00107253
0.000131128
0.000851654
0.000137235
0.000616694
0.000140977
0.000371429
0.000119626
0.00014229
1.77132e-05
0.00200538
8.18657e-08
3.56387e-05
0.0019238
5.31094e-05
0.00183974
6.97417e-05
0.00173343
8.52133e-05
0.00160141
9.92407e-05
0.00144406
0.00011157
0.00126344
0.000121984
0.00106211
0.000130299
0.000843339
0.000136369
0.000610624
0.000140087
0.00036771
0.000118323
0.000141392
1.75993e-05
0.0019877
8.24432e-08
3.54111e-05
0.00190599
5.27709e-05
0.00182239
6.9298e-05
0.00171691
8.4672e-05
0.00158604
9.86111e-05
0.00143012
0.000110864
0.00125119
0.000121212
0.00105176
0.000129475
0.000835075
0.000135507
0.000604588
0.000139204
0.000364008
0.000117013
0.000140501
1.74862e-05
0.00197013
8.29569e-08
3.51849e-05
0.00188829
5.24346e-05
0.00180514
6.88571e-05
0.00170049
8.41341e-05
0.00157076
9.79856e-05
0.00141627
0.000110161
0.00123901
0.000120446
0.00104148
0.000128657
0.000826864
0.000134652
0.000598593
0.000138326
0.000360335
0.000115725
0.000139616
1.73738e-05
0.00195267
8.34098e-08
3.49601e-05
0.00187071
5.21004e-05
0.001788
6.84191e-05
0.00168417
8.35997e-05
0.00155558
9.73641e-05
0.00140251
0.000109464
0.00122691
0.000119684
0.00103126
0.000127844
0.000818702
0.000133802
0.000592631
0.000137453
0.000356678
0.000114428
0.000138736
1.7262e-05
0.00193532
8.38058e-08
3.47367e-05
0.00185324
5.17684e-05
0.00177097
6.79838e-05
0.00166796
8.30688e-05
0.0015405
9.67467e-05
0.00138883
0.00010877
0.00121489
0.000118927
0.0010211
0.000127036
0.000810593
0.000132958
0.00058671
0.000136587
0.000353049
0.000113155
0.000137862
1.7151e-05
0.00191809
8.41477e-08
3.45147e-05
0.00183587
5.14385e-05
0.00175405
6.75514e-05
0.00165185
8.25412e-05
0.00152551
9.61333e-05
0.00137524
0.000108082
0.00120294
0.000118175
0.00101101
0.000126234
0.000802532
0.000132119
0.000580822
0.000135726
0.000349437
0.000111873
0.000136994
1.70406e-05
0.00190096
8.4442e-08
3.42941e-05
0.00181862
5.11106e-05
0.00173723
6.71217e-05
0.00163584
8.20171e-05
0.00151062
9.55238e-05
0.00136173
0.000107397
0.00119107
0.000117428
0.00100098
0.000125437
0.000794523
0.000131286
0.000574973
0.000134871
0.000345852
0.000110614
0.000136131
1.69309e-05
0.00188394
8.46968e-08
3.40749e-05
0.00180148
5.07849e-05
0.00172052
6.66948e-05
0.00161993
8.14964e-05
0.00149582
9.49183e-05
0.00134831
0.000106718
0.00117927
0.000116686
0.000991013
0.000124645
0.000786562
0.000130458
0.000569157
0.000134021
0.000342283
0.000109346
0.000135275
1.68219e-05
0.00186703
8.49266e-08
3.3857e-05
0.00178445
5.04612e-05
0.00170392
6.62707e-05
0.00160413
8.0979e-05
0.00148112
9.43167e-05
0.00133498
0.000106042
0.00116755
0.000115948
0.000981108
0.000123859
0.000778653
0.000129636
0.00056338
0.000133177
0.000338742
0.000108102
0.000134423
1.67136e-05
0.00185024
8.51489e-08
3.36406e-05
0.00176752
5.01396e-05
0.00168742
6.58492e-05
0.00158842
8.0465e-05
0.0014665
9.37191e-05
0.00132173
0.000105371
0.0011559
0.000115216
0.000971264
0.000123077
0.00077079
0.000128819
0.000557636
0.000132339
0.000335216
0.000106848
0.000133578
1.6606e-05
0.00183354
8.53872e-08
3.34255e-05
0.0017507
4.982e-05
0.00167103
6.54305e-05
0.00157281
7.99543e-05
0.00145198
9.31253e-05
0.00130856
0.000104705
0.00114432
0.000114488
0.000961482
0.000122301
0.000762978
0.000128007
0.00055193
0.000131506
0.000331719
0.000105619
0.000132738
1.6499e-05
0.00181696
8.56658e-08
3.32118e-05
0.00173399
4.95025e-05
0.00165474
6.50145e-05
0.0015573
7.94469e-05
0.00143755
9.25355e-05
0.00129547
0.000104043
0.00113281
0.000113765
0.000951759
0.000121529
0.000755212
0.000127201
0.000546255
0.000130679
0.000328235
0.000104379
0.000131903
1.63928e-05
0.00180048
8.60107e-08
3.29994e-05
0.00171739
4.91871e-05
0.00163856
6.46012e-05
0.00154189
7.89428e-05
0.00142321
9.19494e-05
0.00128247
0.000103385
0.00112138
0.000113047
0.000942098
0.000120763
0.000747496
0.0001264
0.000540619
0.000129857
0.00032478
0.000103164
0.000131074
1.62871e-05
0.0017841
8.64443e-08
3.27884e-05
0.00170089
4.88737e-05
0.00162248
6.41906e-05
0.00152658
7.8442e-05
0.00140896
9.13673e-05
0.00126954
0.000102731
0.00111002
0.000112333
0.000932496
0.000120002
0.000739826
0.000125604
0.000535014
0.00012904
0.000321338
0.000101937
0.000130251
1.61822e-05
0.00176783
8.69857e-08
3.25788e-05
0.00168449
4.85623e-05
0.00160649
6.37827e-05
0.00151136
7.79445e-05
0.0013948
9.07889e-05
0.0012567
0.000102082
0.00109872
0.000111625
0.000922955
0.000119246
0.000732205
0.000124814
0.000529448
0.000128229
0.000317924
0.000100737
0.000129433
1.6078e-05
0.00175167
8.7646e-08
3.23705e-05
0.0016682
4.82529e-05
0.00159062
6.33774e-05
0.00149624
7.74502e-05
0.00138073
9.02143e-05
0.00124394
0.000101437
0.0010875
0.000110921
0.000913472
0.000118495
0.00072463
0.000124029
0.000523911
0.000127423
0.000314524
9.95241e-05
0.00012862
1.59744e-05
0.0017356
8.84305e-08
3.21636e-05
0.00165202
4.79455e-05
0.00157484
6.29747e-05
0.00148121
7.69592e-05
0.00136675
8.96435e-05
0.00123126
0.000100797
0.00107635
0.000110221
0.000904048
0.000117749
0.000717103
0.000123249
0.000518412
0.000126623
0.000311152
9.83373e-05
0.000127813
1.58715e-05
0.00171964
8.93353e-08
3.1958e-05
0.00163593
4.76402e-05
0.00155916
6.25747e-05
0.00146628
7.64714e-05
0.00135286
8.90765e-05
0.00121865
0.00010016
0.00106527
0.000109526
0.000894682
0.000117007
0.00070962
0.000122474
0.000512943
0.000125828
0.000307792
9.71386e-05
0.000127011
1.57692e-05
0.00170378
9.03526e-08
3.17537e-05
0.00161995
4.73368e-05
0.00154358
6.21773e-05
0.00145144
7.59868e-05
0.00133905
8.85132e-05
0.00120613
9.95277e-05
0.00105425
0.000108836
0.000885375
0.000116271
0.000702186
0.000121705
0.000507512
0.000125038
0.00030446
9.59659e-05
0.000126214
1.56676e-05
0.00168802
9.14673e-08
3.15508e-05
0.00160407
4.70354e-05
0.00152809
6.17825e-05
0.0014367
7.55053e-05
0.00132533
8.79536e-05
0.00119368
9.88996e-05
0.00104331
0.000108151
0.000876125
0.00011554
0.000694795
0.00012094
0.000502109
0.000124253
0.00030114
9.47807e-05
0.000125423
1.55667e-05
0.00167236
9.26642e-08
3.13492e-05
0.00158829
4.6736e-05
0.00151271
6.13903e-05
0.00142205
7.50271e-05
0.00131169
8.73977e-05
0.00118132