/*--------------------------------*- C++ -*----------------------------------*\
  =========                 |
  \\      /  F ield         | OpenFOAM: The Open Source CFD Toolbox
   \\    /   O peration     | Website:  https://openfoam.org
    \\  /    A nd           | Version:  6.0
     \\/     M anipulation  |
\*---------------------------------------------------------------------------*/
FoamFile
{
    version     2.0;
    format      ascii;
    class       volVectorField;
    location    "2.3";
    object      U;
}
// * * * * * * * * * * * * * * * * * * * * * * * * * * * * * * * * * * * * * //

dimensions      [0 1 -1 0 0 0 0];

internalField   nonuniform List<vector> 
24000
(
(0.999994 2.77507e-07 -7.963e-17)
(0.999946 -2.2238e-05 1.08424e-16)
(0.999865 -6.85726e-05 -1.90631e-16)
(0.999772 -0.000145047 2.10345e-16)
(0.999697 -0.000244626 -1.03771e-15)
(0.999662 -0.000346991 -6.15129e-16)
(0.999672 -0.000431755 6.29758e-16)
(0.999725 -0.000478291 -1.39531e-15)
(0.999811 -0.000462299 4.37998e-16)
(0.999911 -0.000376551 -3.2204e-16)
(1 -8.06974e-05 -3.11545e-16)
(1.00109 0.00109996 -4.62235e-16)
(0.999988 -3.52182e-06 1.16734e-16)
(0.999902 -5.26672e-05 -1.60439e-16)
(0.999757 -0.000143548 3.56214e-16)
(0.999594 -0.000288961 -8.89462e-17)
(0.999468 -0.000473033 4.61855e-16)
(0.999415 -0.000654399 6.22095e-16)
(0.999445 -0.000798691 -3.50344e-16)
(0.999552 -0.000869514 1.48225e-15)
(0.999716 -0.000824283 -3.11012e-16)
(0.999908 -0.000656599 1.59627e-17)
(1.00002 -0.000134135 8.13776e-17)
(1.00198 0.00164674 1.53881e-16)
(0.999986 -8.70321e-06 -8.89132e-17)
(0.999911 -7.24033e-05 2.1618e-16)
(0.999783 -0.000172081 -1.23461e-16)
(0.99964 -0.000321217 4.51459e-16)
(0.999533 -0.00050185 2.51542e-16)
(0.999498 -0.000670182 2.31369e-16)
(0.99954 -0.000794677 5.18184e-16)
(0.999654 -0.000845535 -6.58917e-16)
(0.999818 -0.000782274 -3.67719e-16)
(1.00001 -0.000614868 -1.29804e-16)
(1.00006 -0.000123765 -2.90353e-17)
(1.00208 0.00131262 4.86743e-16)
(0.999985 -1.46109e-05 -3.79656e-17)
(0.999922 -9.20077e-05 -2.04539e-16)
(0.999819 -0.000198511 -3.1583e-16)
(0.9997 -0.000347054 -2.23815e-16)
(0.999615 -0.000520215 -1.31085e-16)
(0.999591 -0.000676567 -9.05617e-16)
(0.999636 -0.000788427 -1.43467e-15)
(0.999746 -0.000833651 1.63917e-16)
(0.999901 -0.000773852 4.69344e-17)
(1.0001 -0.000625189 6.45166e-16)
(1.0001 -0.000199418 -4.11762e-16)
(1.00194 0.000949537 -5.69395e-16)
(0.999981 -2.07038e-05 6.7636e-17)
(0.999922 -0.000113599 3.30195e-17)
(0.999828 -0.000233905 1.60055e-16)
(0.999719 -0.000393121 -7.56562e-17)
(0.999641 -0.000574184 2.07881e-16)
(0.99962 -0.000737129 1.87111e-16)
(0.999666 -0.000855061 1.45138e-15)
(0.999779 -0.000908084 -9.48263e-17)
(0.999938 -0.000855847 -2.79747e-16)
(1.00016 -0.000706803 7.60232e-17)
(1.00016 -0.000300254 2.8416e-16)
(1.00181 0.000766977 -1.50764e-16)
(0.999976 -2.67572e-05 3.91403e-18)
(0.999918 -0.000135388 -1.90002e-17)
(0.99983 -0.00027111 -2.13631e-17)
(0.99973 -0.000441816 -3.86778e-18)
(0.999661 -0.000630028 -8.6272e-16)
(0.999647 -0.000796773 1.05571e-15)
(0.999701 -0.000915293 2.92956e-17)
(0.999822 -0.000966245 1.46177e-16)
(0.999992 -0.000907864 6.91409e-16)
(1.00024 -0.000739174 -3.40294e-16)
(1.00025 -0.000324438 5.15639e-16)
(1.00174 0.000729487 3.45376e-16)
(0.99997 -3.28615e-05 -3.54199e-18)
(0.999915 -0.000156792 2.04891e-16)
(0.999837 -0.000306783 -2.07784e-16)
(0.999751 -0.000485163 -1.01309e-16)
(0.999697 -0.000673906 4.43354e-16)
(0.999696 -0.000835486 -2.1809e-16)
(0.999762 -0.000944115 -6.03992e-16)
(0.999895 -0.000981701 -3.13343e-16)
(1.00007 -0.000907544 1.22117e-16)
(1.00034 -0.00071749 6.01823e-16)
(1.00037 -0.000299632 -1.21717e-15)
(1.00172 0.00071299 3.16666e-16)
(0.999963 -3.91498e-05 -5.23176e-17)
(0.999912 -0.000178353 7.93223e-17)
(0.999843 -0.000342663 2.39428e-16)
(0.999772 -0.000528135 4.53242e-16)
(0.999733 -0.000716692 2.41277e-16)
(0.999746 -0.000872805 -2.67718e-16)
(0.999825 -0.000972045 -2.91084e-16)
(0.999968 -0.000997702 -1.39519e-16)
(1.00015 -0.000910929 4.81958e-17)
(1.00043 -0.000709385 -1.30363e-16)
(1.00048 -0.000302266 1.04213e-15)
(1.00171 0.000634559 -5.4751e-16)
(0.999956 -4.56811e-05 2.05989e-17)
(0.999906 -0.000200386 -1.94792e-16)
(0.999845 -0.000379997 1.46119e-17)
(0.999784 -0.000574453 -7.23271e-17)
(0.999758 -0.000766213 7.29857e-17)
(0.999782 -0.000922067 -6.11121e-17)
(0.99987 -0.00101898 5.12035e-17)
(1.00002 -0.00104087 5.587e-16)
(1.00022 -0.00094993 -6.92326e-17)
(1.0005 -0.000745679 -7.89633e-16)
(1.00059 -0.000354721 -8.79132e-16)
(1.00172 0.000506051 9.74006e-16)
(0.999948 -5.24625e-05 7.32098e-17)
(0.999899 -0.000222712 4.86884e-18)
(0.999843 -0.000418073 1.84496e-16)
(0.999791 -0.000622763 -4.83671e-16)
(0.999775 -0.000819991 -1.15427e-16)
(0.999808 -0.000978957 5.22363e-16)
(0.999904 -0.00107826 -4.43688e-16)
(1.00007 -0.00110177 -6.69102e-16)
(1.00027 -0.00101189 2.04919e-16)
(1.00057 -0.000807035 2.05448e-16)
(1.00069 -0.000428593 6.53717e-16)
(1.00174 0.000378318 -1.37743e-16)
(0.99994 -5.94951e-05 -1.00414e-16)
(0.999891 -0.000245062 -2.31192e-17)
(0.99984 -0.000455777 -2.19885e-16)
(0.999797 -0.000670608 3.65795e-17)
(0.99979 -0.000873277 1.67239e-16)
(0.999832 -0.00103515 -3.6049e-16)
(0.999939 -0.00113686 2.70813e-16)
(1.00011 -0.00116207 7.53928e-16)
(1.00032 -0.00107336 -5.62104e-16)
(1.00064 -0.000865358 2.24194e-16)
(1.00079 -0.000493266 -8.46844e-16)
(1.00178 0.000279483 -9.02514e-16)
(0.99993 -6.67638e-05 6.5189e-18)
(0.999883 -0.00026727 1.92036e-16)
(0.999838 -0.000492567 -1.92592e-16)
(0.999802 -0.000717024 1.48931e-16)
(0.999806 -0.00092444 -4.57654e-16)
(0.99986 -0.00108778 -2.03888e-16)
(0.999977 -0.00118977 6.638e-17)
(1.00016 -0.00121416 -3.02786e-16)
(1.00038 -0.00112419 -3.94133e-16)
(1.00071 -0.000909969 3.62829e-16)
(1.00089 -0.000540219 2.85474e-16)
(1.00184 0.000205181 1.005e-17)
(0.99992 -7.42309e-05 2.45283e-17)
(0.999875 -0.000289249 -1.91902e-17)
(0.999836 -0.000528356 5.30669e-16)
(0.999808 -0.000762182 1.53078e-16)
(0.999823 -0.00097431 2.616e-16)
(0.99989 -0.00113858 -2.92394e-16)
(1.00002 -0.00123944 -1.47862e-16)
(1.00021 -0.00126095 1.20554e-16)
(1.00045 -0.00116762 4.65501e-16)
(1.00079 -0.000945883 -1.21899e-15)
(1.001 -0.000577289 -4.86283e-16)
(1.0019 0.000139798 5.41086e-16)
(0.99991 -8.18255e-05 -7.57548e-17)
(0.999866 -0.0003109 -6.74241e-17)
(0.999834 -0.00056311 -4.19403e-16)
(0.999813 -0.000806254 -3.31394e-16)
(0.999838 -0.00102376 -2.32237e-16)
(0.999918 -0.00118972 3.64992e-16)
(1.00006 -0.0012896 2.50972e-16)
(1.00027 -0.00130782 -2.76467e-16)
(1.00052 -0.00121048 -3.70972e-16)
(1.00087 -0.000981568 -1.32875e-16)
(1.0011 -0.000614049 6.90595e-16)
(1.00197 7.39749e-05 -4.80794e-16)
(0.999899 -8.94598e-05 4.07769e-17)
(0.999858 -0.000332139 3.22329e-17)
(0.999832 -0.000596768 4.95412e-17)
(0.999819 -0.000849073 7.90404e-17)
(0.999854 -0.00107271 8.21734e-17)
(0.999945 -0.00124166 -1.48245e-16)
(1.0001 -0.00134165 7.76959e-18)
(1.00032 -0.00135731 -3.82936e-16)
(1.00058 -0.00125632 3.62534e-16)
(1.00095 -0.00102102 1.38181e-15)
(1.00121 -0.000654046 -2.05348e-16)
(1.00204 7.28661e-06 6.6956e-16)
(0.999887 -9.70274e-05 -3.93732e-17)
(0.999849 -0.000352897 1.48702e-18)
(0.999831 -0.000629299 1.47852e-16)
(0.999825 -0.000890352 2.0907e-16)
(0.999869 -0.00112047 2.31252e-16)
(0.999972 -0.00129337 -1.50239e-16)
(1.00014 -0.00139455 -2.41917e-16)
(1.00037 -0.00140851 5.91549e-16)
(1.00065 -0.00130439 1.43236e-16)
(1.00103 -0.00106315 -1.48933e-15)
(1.00131 -0.000695575 2.3539e-16)
(1.00212 -5.68861e-05 2.21964e-17)
(0.999874 -0.000104418 9.00874e-17)
(0.999839 -0.000373162 3.3097e-17)
(0.999829 -0.000660816 -3.19575e-16)
(0.999831 -0.000930069 1.37916e-16)
(0.999886 -0.00116657 -5.61327e-17)
(1 -0.00134374 3.67379e-16)
(1.00018 -0.00144664 6.25444e-16)
(1.00043 -0.00145937 1.05304e-16)
(1.00072 -0.00135241 5.10573e-16)
(1.00111 -0.00110542 1.23817e-15)
(1.00141 -0.00073626 1.43205e-15)
(1.0022 -0.000117168 -5.34196e-16)
(0.999861 -0.000111511 3.46258e-17)
(0.999829 -0.000392942 -2.74499e-17)
(0.999827 -0.000691547 3.03964e-16)
(0.999839 -0.000968559 -2.77259e-16)
(0.999904 -0.00121114 3.92443e-16)
(1.00003 -0.00139248 4.0338e-18)
(1.00022 -0.00149719 -4.06607e-16)
(1.00048 -0.00150888 1.282e-16)
(1.00078 -0.00139922 -4.42081e-16)
(1.00119 -0.00114685 -2.16365e-16)
(1.00151 -0.000775824 -5.744e-16)
(1.00228 -0.000175052 -1.06046e-16)
(0.999847 -0.00011819 -4.1525e-17)
(0.999818 -0.000412268 -2.31143e-16)
(0.999824 -0.000721785 -1.26512e-16)
(0.999846 -0.00100643 1.55273e-16)
(0.999922 -0.00125497 -2.8199e-17)
(1.00006 -0.00144035 -2.62029e-16)
(1.00027 -0.00154691 -5.46453e-17)
(1.00054 -0.00155774 -3.3763e-17)
(1.00085 -0.00144564 -5.30668e-16)
(1.00127 -0.00118857 -3.89264e-16)
(1.00161 -0.000815862 -1.72214e-15)
(1.00236 -0.000232927 1.02048e-15)
(0.999832 -0.000124339 -3.95658e-17)
(0.999805 -0.000431146 2.40637e-16)
(0.999819 -0.000751763 -1.71769e-16)
(0.999851 -0.00104428 7.66655e-17)
(0.99994 -0.00129899 -1.88206e-16)
(1.00009 -0.00148851 -4.26357e-16)
(1.00031 -0.00159712 5.40873e-17)
(1.0006 -0.00160744 -6.90571e-17)
(1.00092 -0.00149331 2.87273e-16)
(1.00135 -0.00123221 4.46473e-16)
(1.00171 -0.00085782 1.54117e-15)
(1.00245 -0.000291385 -9.86874e-16)
(0.999816 -0.000129859 2.84589e-17)
(0.999792 -0.000449577 -1.12028e-17)
(0.999812 -0.000781621 2.7239e-17)
(0.999855 -0.00108251 -6.35839e-17)
(0.999956 -0.00134387 -2.36491e-16)
(1.00012 -0.0015379 -9.46199e-18)
(1.00035 -0.0016489 -1.25446e-16)
(1.00065 -0.0016591 -6.70101e-16)
(1.00099 -0.00154327 4.03755e-16)
(1.00143 -0.00127851 2.18654e-16)
(1.00181 -0.000901819 6.52057e-17)
(1.00254 -0.00034955 2.21866e-16)
(0.999799 -0.000134665 3.25524e-17)
(0.999776 -0.000467527 -2.64006e-16)
(0.999803 -0.000811369 5.16932e-16)
(0.999857 -0.00112126 4.91933e-17)
(0.99997 -0.00138984 1.43453e-16)
(1.00015 -0.00158882 8.69658e-16)
(1.00039 -0.00170253 7.15235e-16)
(1.00071 -0.00171288 3.61995e-16)
(1.00106 -0.0015954 -9.59219e-16)
(1.00151 -0.00132686 -2.79734e-16)
(1.00191 -0.000946748 9.25068e-17)
(1.00263 -0.000405833 -3.31266e-17)
(0.99978 -0.000138699 -6.10043e-17)
(0.99976 -0.000484972 1.05169e-16)
(0.999793 -0.00084096 -6.96998e-17)
(0.999857 -0.00116042 -8.85186e-17)
(0.999982 -0.00143677 -2.55213e-16)
(1.00017 -0.00164109 -5.04974e-16)
(1.00043 -0.0017577 -2.74479e-16)
(1.00076 -0.00176823 -2.17692e-17)
(1.00113 -0.00164886 2.77997e-16)
(1.0016 -0.00137613 -2.65106e-16)
(1.002 -0.000991442 -1.56366e-15)
(1.00272 -0.000459731 7.91136e-16)
(0.99976 -0.00014192 4.45414e-17)
(0.999742 -0.000501881 6.3456e-18)
(0.999782 -0.000870315 -1.8968e-16)
(0.999856 -0.00119983 -1.45076e-16)
(0.999993 -0.00148435 -8.05112e-17)
(1.0002 -0.00169429 -1.19008e-16)
(1.00047 -0.00181387 -2.17101e-16)
(1.00082 -0.00182446 -2.31622e-16)
(1.0012 -0.00170282 -6.75215e-17)
(1.00168 -0.0014255 -2.4597e-16)
(1.0021 -0.00103543 9.28252e-17)
(1.00281 -0.00051142 -1.5743e-16)
(0.999739 -0.000144317 1.52678e-17)
(0.999723 -0.000518253 1.49439e-16)
(0.99977 -0.000899398 4.09065e-17)
(0.999853 -0.00123934 -1.57106e-17)
(1 -0.00153233 9.88667e-17)
(1.00022 -0.0017481 2.77855e-16)
(1.00051 -0.0018707 1.06959e-16)
(1.00087 -0.00188122 2.6753e-16)
(1.00127 -0.00175704 3.13629e-16)
(1.00176 -0.00147497 -3.06064e-16)
(1.0022 -0.0010792 1.00427e-15)
(1.0029 -0.000561685 -6.2115e-16)
(0.999716 -0.000145886 -2.07035e-17)
(0.999703 -0.000534088 -1.95512e-17)
(0.999756 -0.000928204 -1.47797e-16)
(0.99985 -0.00127887 -9.72798e-17)
(1.00001 -0.00158054 -3.48741e-17)
(1.00025 -0.00180235 -1.7896e-16)
(1.00055 -0.00192808 1.04163e-17)
(1.00093 -0.00193854 -3.11419e-16)
(1.00134 -0.00181174 -2.70567e-17)
(1.00185 -0.00152501 1.05181e-15)
(1.0023 -0.00112356 4.9598e-16)
(1.003 -0.00061156 5.29939e-17)
(0.999693 -0.000146647 -9.85021e-18)
(0.999682 -0.000549413 -1.14709e-16)
(0.999742 -0.000956778 -5.05513e-17)
(0.999846 -0.00131843 -7.55312e-17)
(1.00002 -0.00162901 5.57644e-16)
(1.00027 -0.00185708 -1.29205e-16)
(1.00059 -0.00198614 1.53816e-16)
(1.00098 -0.00199671 -1.59824e-16)
(1.00142 -0.0018674 -2.55356e-16)
(1.00193 -0.0015763 -2.65226e-16)
(1.0024 -0.0011693 -1.96307e-17)
(1.00309 -0.000661941 -2.00823e-16)
(0.999667 -0.000146618 3.41076e-17)
(0.99966 -0.000564249 -4.08711e-17)
(0.999727 -0.000985177 1.7169e-16)
(0.999842 -0.00135811 3.46635e-16)
(1.00003 -0.00167781 -5.27295e-16)
(1.00029 -0.00191239 4.99103e-16)
(1.00063 -0.00204506 -2.76015e-16)
(1.00104 -0.00205602 -1.44133e-16)
(1.00149 -0.00192443 -1.94178e-16)
(1.00202 -0.00162929 -3.55118e-16)
(1.0025 -0.00121678 -1.50679e-16)
(1.00319 -0.000712892 -1.20499e-16)
(0.999641 -0.000145833 -5.82581e-18)
(0.999637 -0.000578629 -1.56758e-17)
(0.999711 -0.00101347 -1.57884e-17)
(0.999836 -0.00139802 -3.35551e-16)
(1.00004 -0.00172713 -1.44071e-16)
(1.00032 -0.00196849 -1.30502e-17)
(1.00067 -0.00210506 -3.89827e-16)
(1.00109 -0.00211673 7.18512e-16)
(1.00156 -0.00198313 -5.867e-18)
(1.0021 -0.00168417 2.5087e-16)
(1.00259 -0.00126608 1.77705e-16)
(1.00328 -0.000764094 -5.41982e-18)
(0.999613 -0.000144321 -1.89018e-17)
(0.999613 -0.00059257 1.07931e-16)
(0.999693 -0.00104168 3.21446e-17)
(0.999829 -0.00143826 4.612e-16)
(1.00005 -0.00177713 2.51699e-16)
(1.00034 -0.00202558 -4.22287e-16)
(1.00071 -0.00216632 1.91756e-16)
(1.00115 -0.00217898 -3.7856e-16)
(1.00163 -0.00204354 1.31078e-15)
(1.00218 -0.00174087 -1.01902e-16)
(1.00269 -0.00131693 2.24119e-17)
(1.00338 -0.0008153 -1.40469e-16)
(0.999584 -0.000142126 -1.97235e-17)
(0.999588 -0.0006061 7.54034e-17)
(0.999674 -0.00106985 -9.05844e-17)
(0.99982 -0.00147889 -4.4762e-16)
(1.00005 -0.00182796 4.63522e-16)
(1.00036 -0.00208383 2.71162e-16)
(1.00074 -0.00222899 3.42983e-16)
(1.0012 -0.00224282 1.53484e-16)
(1.0017 -0.00210562 -1.0888e-16)
(1.00227 -0.00179916 5.46752e-16)
(1.00279 -0.00136898 -9.9152e-16)
(1.00348 -0.000866187 1.11817e-15)
(0.999554 -0.000139288 2.74834e-17)
(0.999562 -0.000619225 -1.44317e-16)
(0.999654 -0.00109793 -8.42651e-17)
(0.999811 -0.00151989 -2.68497e-17)
(1.00005 -0.00187964 -1.77283e-16)
(1.00038 -0.00214328 -5.03362e-18)
(1.00078 -0.00229308 -2.81941e-16)
(1.00125 -0.00230816 -2.13409e-16)
(1.00177 -0.00216915 -1.20402e-15)
(1.00235 -0.00185867 -3.97422e-16)
(1.00288 -0.0014217 -2.55473e-16)
(1.00357 -0.000916421 -2.99785e-17)
(0.999522 -0.000135866 1.05401e-17)
(0.999535 -0.000631971 -1.18655e-17)
(0.999633 -0.0011259 -4.26379e-17)
(0.999799 -0.00156121 3.25654e-16)
(1.00006 -0.00193211 -5.52934e-16)
(1.0004 -0.00220388 -4.10356e-16)
(1.00082 -0.00235848 3.52587e-16)
(1.00131 -0.00237483 -2.33389e-17)
(1.00184 -0.00223382 7.29509e-17)
(1.00244 -0.00191897 4.21203e-16)
(1.00298 -0.00147468 -1.68324e-16)
(1.00367 -0.000965866 3.03128e-16)
(0.99949 -0.000131914 -1.5183e-17)
(0.999506 -0.000644355 1.70171e-16)
(0.999611 -0.00115369 2.88674e-16)
(0.999787 -0.00160271 -9.61832e-17)
(1.00006 -0.00198518 4.3566e-17)
(1.00041 -0.00226541 1.82322e-16)
(1.00085 -0.00242495 -4.20952e-16)
(1.00136 -0.00244251 4.43263e-16)
(1.00191 -0.00229924 3.44667e-16)
(1.00252 -0.00197963 -2.83996e-16)
(1.00308 -0.00152751 3.22796e-18)
(1.00377 -0.00101445 -1.89953e-17)
(0.999456 -0.000127508 -4.2972e-18)
(0.999477 -0.000656419 -2.47218e-16)
(0.999588 -0.00118129 -4.85242e-17)
(0.999774 -0.00164427 5.7967e-17)
(1.00006 -0.00203866 6.52333e-16)
(1.00043 -0.00232762 5.20861e-17)
(1.00088 -0.0024922 3.90858e-16)
(1.00141 -0.00251086 -7.24004e-16)
(1.00198 -0.00236508 3.63624e-16)
(1.00261 -0.00204037 -4.36819e-16)
(1.00318 -0.00158004 9.36955e-16)
(1.00387 -0.00106217 -4.64951e-16)
(0.999422 -0.000122718 2.14801e-17)
(0.999447 -0.00066821 1.09605e-16)
(0.999564 -0.00120869 -1.16407e-16)
(0.999761 -0.00168579 4.79225e-17)
(1.00006 -0.00209232 -3.92415e-16)
(1.00045 -0.00239024 -1.38171e-16)
(1.00092 -0.00255992 2.26855e-17)
(1.00146 -0.0025796 5.18805e-16)
(1.00205 -0.0024311 3.13159e-16)
(1.00269 -0.00210103 -2.16206e-17)
(1.00327 -0.00163227 1.23452e-15)
(1.00397 -0.00110944 -6.08263e-16)
(0.999386 -0.000117631 1.44413e-18)
(0.999417 -0.000679803 1.19631e-16)
(0.99954 -0.00123595 1.1952e-16)
(0.999747 -0.00172727 -1.44073e-17)
(1.00006 -0.00214609 2.86989e-16)
(1.00046 -0.00245309 3.71126e-16)
(1.00095 -0.00262794 -1.13255e-16)
(1.00152 -0.00264859 5.2117e-16)
(1.00212 -0.00249724 -1.19598e-15)
(1.00278 -0.00216171 -1.32674e-16)
(1.00337 -0.00168443 -1.77712e-15)
(1.00407 -0.00115699 1.4034e-16)
(0.999349 -0.000112325 -6.23005e-17)
(0.999385 -0.00069127 7.4435e-17)
(0.999516 -0.00126316 -2.12711e-17)
(0.999733 -0.00176876 1.55174e-16)
(1.00006 -0.00219994 -2.13683e-16)
(1.00048 -0.00251615 -5.20813e-16)
(1.00099 -0.00269622 -4.00648e-17)
(1.00157 -0.00271785 -3.71482e-16)
(1.00219 -0.00256362 1.27398e-15)
(1.00286 -0.00222262 -4.29197e-17)
(1.00347 -0.00173681 3.81379e-16)
(1.00417 -0.00120511 7.01431e-16)
(0.999311 -0.000106888 1.54928e-17)
(0.999352 -0.000702707 -3.19123e-16)
(0.99949 -0.00129045 1.09991e-16)
(0.999718 -0.00181042 -5.10158e-16)
(1.00006 -0.00225403 2.5526e-16)
(1.00049 -0.00257951 8.45197e-16)
(1.00102 -0.00276489 -2.19161e-16)
(1.00162 -0.00278755 -5.18975e-16)
(1.00226 -0.00263048 -4.05429e-16)
(1.00295 -0.00228407 -8.01637e-17)
(1.00357 -0.00178977 3.95292e-16)
(1.00428 -0.00125387 -6.41375e-16)
(0.999272 -0.000101395 3.55318e-17)
(0.999318 -0.000714193 9.27153e-17)
(0.999464 -0.00131796 -3.34028e-16)
(0.999703 -0.0018524 4.62655e-16)
(1.00006 -0.00230853 -6.95655e-16)
(1.00051 -0.00264339 -6.9494e-16)
(1.00106 -0.00283415 2.64943e-16)
(1.00168 -0.00285792 9.31785e-16)
(1.00233 -0.00269807 -5.24901e-16)
(1.00303 -0.0023463 2.11213e-16)
(1.00367 -0.00184351 -1.70584e-16)
(1.00438 -0.00130346 6.00803e-17)
(0.999232 -9.59271e-05 -6.05243e-18)
(0.999283 -0.000725821 2.00103e-16)
(0.999436 -0.00134583 2.66503e-16)
(0.999687 -0.00189493 -3.17237e-16)
(1.00005 -0.0023637 1.54342e-16)
(1.00053 -0.00270803 4.28094e-16)
(1.00109 -0.00290428 1.43968e-16)
(1.00173 -0.00292923 -9.65766e-17)
(1.0024 -0.00276664 7.35783e-16)
(1.00312 -0.00240952 3.74397e-16)
(1.00377 -0.00189813 7.03863e-17)
(1.00448 -0.00135401 6.33896e-17)
(0.999191 -9.05497e-05 1.36065e-17)
(0.999247 -0.000737655 -2.23229e-16)
(0.999408 -0.00137416 -5.89751e-17)
(0.999669 -0.00193816 1.24241e-16)
(1.00005 -0.00241974 7.51129e-16)
(1.00054 -0.00277368 -3.85287e-16)
(1.00112 -0.00297547 -3.28267e-16)
(1.00178 -0.00300165 -7.4602e-17)
(1.00247 -0.00283634 -7.2775e-16)
(1.00321 -0.00247382 4.23121e-16)
(1.00387 -0.00195361 -5.88529e-17)
(1.00458 -0.0014054 3.77072e-16)
(0.999149 -8.53347e-05 -1.07966e-17)
(0.999209 -0.000749766 1.39774e-16)
(0.999377 -0.00140306 -9.64453e-17)
(0.99965 -0.00198223 3.61917e-16)
(1.00005 -0.00247683 -7.05641e-16)
(1.00055 -0.00284049 4.95815e-16)
(1.00116 -0.00304792 -4.82385e-17)
(1.00183 -0.00307533 -5.03946e-17)
(1.00254 -0.00290724 7.53029e-16)
(1.00329 -0.00253922 -2.90296e-16)
(1.00396 -0.00200998 -2.37488e-16)
(1.00468 -0.00145741 -9.52376e-17)
(0.999106 -8.03362e-05 1.51973e-18)
(0.999171 -0.0007622 -2.60521e-17)
(0.999346 -0.00143256 1.17521e-16)
(0.99963 -0.0020272 -4.01436e-16)
(1.00004 -0.00253504 3.48394e-16)
(1.00057 -0.00290857 1.16577e-16)
(1.00119 -0.00312165 1.67904e-16)
(1.00189 -0.00315028 -8.76654e-16)
(1.00261 -0.00297931 -3.67806e-16)
(1.00338 -0.00260562 -1.32277e-15)
(1.00406 -0.00206723 -6.91188e-16)
(1.00479 -0.0015099 -7.08614e-16)
(0.999063 -7.56182e-05 -1.97293e-17)
(0.99913 -0.000775008 1.80601e-17)
(0.999313 -0.00146272 -2.20224e-16)
(0.999608 -0.00207311 1.4478e-17)
(1.00004 -0.0025944 -8.85094e-17)
(1.00058 -0.00297791 5.26769e-18)
(1.00122 -0.00319668 3.10182e-16)
(1.00194 -0.00322647 1.18519e-15)
(1.00268 -0.00305251 1.03032e-16)
(1.00346 -0.00267298 8.25554e-16)
(1.00416 -0.0021252 -1.21081e-16)
(1.00489 -0.00156281 1.286e-15)
(0.999019 -7.12265e-05 1.89824e-17)
(0.999089 -0.000788221 1.09652e-17)
(0.999279 -0.00149353 2.97619e-16)
(0.999585 -0.00211995 -1.74074e-16)
(1.00003 -0.00265489 -2.03833e-16)
(1.00059 -0.00304847 -2.35424e-16)
(1.00125 -0.00327295 -1.42802e-16)
(1.00199 -0.00330383 -4.75207e-16)
(1.00275 -0.00312675 8.55253e-17)
(1.00355 -0.00274125 8.20236e-16)
(1.00426 -0.00218396 7.95836e-16)
(1.005 -0.00161591 -1.14208e-15)
(0.998973 -6.72173e-05 -1.93801e-17)
(0.999046 -0.000801881 -2.3974e-16)
(0.999243 -0.00152503 -1.27628e-16)
(0.999561 -0.00216771 2.92342e-17)
(1.00002 -0.00271646 5.10987e-16)
(1.0006 -0.0031202 -4.05191e-16)
(1.00128 -0.00335037 -3.61618e-16)
(1.00204 -0.00338231 -4.4702e-16)
(1.00282 -0.00320202 -5.35891e-16)
(1.00363 -0.00281043 -1.77221e-15)
(1.00435 -0.00224393 -5.92331e-16)
(1.0051 -0.00166946 5.79004e-16)
(0.998928 -6.36283e-05 9.69912e-18)
(0.999002 -0.000816012 2.00226e-16)
(0.999207 -0.00155722 6.03883e-17)
(0.999536 -0.00221636 3.72582e-16)
(1.00001 -0.00277906 -5.89793e-16)
(1.00061 -0.00319302 5.74929e-16)
(1.00131 -0.00342891 -6.85668e-18)
(1.00209 -0.00346186 1.05342e-15)
(1.00289 -0.00327831 3.80303e-16)
(1.00372 -0.00288052 2.31115e-15)
(1.00445 -0.0023052 3.29384e-16)
(1.0052 -0.00172332 5.39612e-16)
(0.998881 -6.05066e-05 -1.98027e-17)
(0.998958 -0.000830651 4.30125e-17)
(0.999169 -0.00159012 9.36766e-17)
(0.99951 -0.00226593 -1.4571e-16)
(1 -0.0028427 5.03946e-16)
(1.00062 -0.00326693 -6.06582e-16)
(1.00134 -0.00350853 5.5381e-16)
(1.00213 -0.00354249 -1.4215e-16)
(1.00296 -0.00335564 2.32015e-16)
(1.0038 -0.00295159 -1.68541e-15)
(1.00455 -0.00236753 1.00086e-15)
(1.00531 -0.00177713 -1.20417e-15)
(0.998834 -5.78784e-05 2.12998e-17)
(0.998912 -0.000845816 -1.1907e-16)
(0.99913 -0.00162375 -1.73109e-16)
(0.999483 -0.00231641 -1.71148e-16)
(0.99999 -0.00290735 5.22045e-17)
(1.00062 -0.00334191 -1.59698e-16)
(1.00137 -0.00358926 -3.01658e-16)
(1.00218 -0.00362422 -6.69379e-16)
(1.00303 -0.00343407 -2.3973e-16)
(1.00389 -0.00302366 3.93908e-16)
(1.00465 -0.0024309 -9.8316e-16)
(1.00542 -0.00183068 6.96194e-16)
(0.998786 -5.5777e-05 5.13233e-17)
(0.998864 -0.00086154 1.44785e-17)
(0.99909 -0.00165814 -4.60659e-17)
(0.999455 -0.00236781 1.24374e-16)
(0.999977 -0.00297306 -6.88182e-16)
(1.00063 -0.003418 1.16485e-16)
(1.00139 -0.00367112 5.04767e-16)
(1.00223 -0.00370711 -2.81781e-16)
(1.00309 -0.00351363 9.46514e-17)
(1.00397 -0.00309676 -1.23999e-16)
(1.00474 -0.00249549 2.24407e-16)
(1.00552 -0.0018843 -5.24609e-16)
(0.998737 -5.4213e-05 -3.35031e-17)
(0.998816 -0.000877833 7.35925e-17)
(0.999049 -0.00169328 -1.34663e-16)
(0.999425 -0.00242014 -8.06767e-17)
(0.999964 -0.00303981 5.11963e-16)
(1.00064 -0.00349521 2.11742e-16)
(1.00142 -0.00375413 -2.23487e-16)
(1.00228 -0.00379114 4.58395e-16)
(1.00316 -0.0035943 1.50882e-16)
(1.00405 -0.00317082 2.97626e-16)
(1.00484 -0.0025611 -3.06434e-16)
(1.00563 -0.00193781 -1.10178e-17)
(0.998688 -5.32032e-05 -5.13092e-17)
(0.998767 -0.000894718 -2.67098e-17)
(0.999007 -0.00172919 1.38821e-16)
(0.999395 -0.0024734 1.22713e-16)
(0.99995 -0.0031076 1.5961e-16)
(1.00064 -0.00357353 4.31719e-16)
(1.00144 -0.00383829 -1.93726e-16)
(1.00232 -0.0038763 -8.6391e-17)
(1.00323 -0.00367605 -1.83055e-16)
(1.00414 -0.00324579 -6.69192e-18)
(1.00494 -0.00262744 6.63108e-18)
(1.00573 -0.00199079 3.84006e-16)
(0.998638 -5.27407e-05 8.63209e-17)
(0.998717 -0.000912201 -1.39992e-17)
(0.998964 -0.00176585 1.60468e-16)
(0.999364 -0.00252754 -7.33124e-17)
(0.999934 -0.0031764 -1.40523e-16)
(1.00064 -0.00365292 -5.68388e-16)
(1.00147 -0.00392352 -3.44191e-16)
(1.00237 -0.00396253 2.24088e-16)
(1.00329 -0.00375876 3.52861e-17)
(1.00422 -0.00332155 5.36292e-17)
(1.00503 -0.00269423 8.29288e-17)
(1.00584 -0.00204344 3.43221e-17)
(0.998588 -5.28256e-05 -8.60973e-17)
(0.998665 -0.000930298 1.31765e-16)
(0.99892 -0.00180325 -2.36252e-16)
(0.999331 -0.00258254 1.6258e-16)
(0.999918 -0.00324614 -3.77254e-18)
(1.00065 -0.00373331 3.85872e-16)
(1.00149 -0.00400976 3.35917e-16)
(1.00241 -0.00404972 -2.24306e-16)
(1.00336 -0.00384236 3.68928e-16)
(1.0043 -0.003398 -2.39005e-16)
(1.00513 -0.0027612 7.13206e-16)
(1.00595 -0.0020957 7.18855e-16)
(0.998536 -5.34353e-05 6.5981e-17)
(0.998613 -0.00094901 -9.53821e-17)
(0.998875 -0.00184138 -4.0083e-17)
(0.999298 -0.00263835 1.21028e-16)
(0.999901 -0.00331675 -1.51913e-16)
(1.00065 -0.0038146 -2.36276e-16)
(1.00152 -0.0040969 3.60846e-16)
(1.00246 -0.00413777 -2.11313e-16)
(1.00342 -0.00392672 -4.49231e-16)
(1.00439 -0.00347507 2.41545e-16)
(1.00523 -0.00282831 -4.09368e-16)
(1.00606 -0.00214806 -5.6317e-16)
(0.998484 -5.45565e-05 2.7431e-17)
(0.99856 -0.000968353 -1.01441e-16)
(0.998828 -0.00188022 4.1457e-16)
(0.999264 -0.00269492 -2.02624e-16)
(0.999883 -0.00338817 8.28099e-17)
(1.00065 -0.00389672 -1.92094e-16)
(1.00154 -0.00418486 -4.7422e-16)
(1.0025 -0.0042266 4.11834e-16)
(1.00349 -0.00401181 4.74457e-16)
(1.00447 -0.00355273 -5.98588e-16)
(1.00533 -0.00289556 -2.33372e-16)
(1.00617 -0.00220106 -1.76554e-16)
(0.998431 -5.61551e-05 -7.86248e-17)
(0.998505 -0.000988324 3.06374e-17)
(0.998781 -0.00191976 -1.87648e-16)
(0.999229 -0.00275222 2.5678e-17)
(0.999865 -0.00346034 1.14294e-16)
(1.00065 -0.0039796 4.667e-16)
(1.00156 -0.00427358 5.04721e-18)
(1.00255 -0.00431616 -2.43646e-17)
(1.00355 -0.0040976 -6.52389e-16)
(1.00455 -0.00363102 9.57164e-17)
(1.00543 -0.00296309 -1.34654e-16)
(1.00627 -0.00225494 7.19755e-17)
(0.998376 -5.82084e-05 -1.26956e-17)
(0.99845 -0.00100894 -2.33735e-17)
(0.998733 -0.00196002 -2.73846e-16)
(0.999193 -0.00281025 -5.0044e-17)
(0.999846 -0.00353326 -1.79886e-16)
(1.00065 -0.00406322 -1.30166e-16)
(1.00158 -0.00436306 -1.32738e-16)
(1.00259 -0.0044065 1.63074e-16)
(1.00362 -0.00418418 1.83487e-16)
(1.00464 -0.00371007 3.1378e-16)
(1.00553 -0.00303101 4.4183e-16)
(1.00638 -0.00230966 -2.27631e-16)
(0.998321 -6.06745e-05 3.07015e-17)
(0.998393 -0.00103018 1.5958e-17)
(0.998684 -0.00200099 2.61456e-16)
(0.999156 -0.00286902 -5.25337e-17)
(0.999826 -0.00360692 -9.69278e-17)
(1.00065 -0.00414762 -1.49359e-16)
(1.00161 -0.00445333 4.42921e-16)
(1.00264 -0.00449768 -2.96989e-16)
(1.00368 -0.00427163 1.04896e-16)
(1.00472 -0.00379 4.08688e-16)
(1.00562 -0.00309948 -2.59706e-16)
(1.00649 -0.00236552 -4.05012e-17)
(0.998264 -6.35249e-05 -4.19786e-17)
(0.998335 -0.00105207 4.34376e-17)
(0.998634 -0.00204271 8.91124e-17)
(0.999118 -0.00292857 1.89875e-16)
(0.999804 -0.0036814 3.42175e-16)
(1.00065 -0.00423287 -2.54701e-16)
(1.00163 -0.00454452 -1.68916e-16)
(1.00268 -0.00458982 1.78087e-17)
(1.00375 -0.0043601 -3.11341e-16)
(1.00481 -0.00387097 -4.47902e-16)
(1.00572 -0.00316875 5.96122e-16)
(1.0066 -0.00242281 2.48861e-16)
(0.998205 -6.67123e-05 6.7564e-17)
(0.998276 -0.00107457 8.25582e-17)
(0.998582 -0.00208517 -8.46478e-17)
(0.999079 -0.00298893 -1.72184e-16)
(0.999782 -0.00375675 4.47848e-17)
(1.00065 -0.00431905 4.17032e-16)
(1.00165 -0.00463671 -2.97684e-16)
(1.00272 -0.00468307 -1.07529e-17)
(1.00381 -0.00444973 3.97328e-16)
(1.00489 -0.00395312 -3.89271e-16)
(1.00582 -0.00323908 -5.06193e-16)
(1.00671 -0.00248155 -1.29175e-16)
(0.998145 -7.02039e-05 8.35916e-18)
(0.998215 -0.00109768 8.45337e-18)
(0.998529 -0.00212839 -2.78524e-16)
(0.999038 -0.00305015 -2.27206e-16)
(0.999759 -0.00383304 -3.82307e-16)
(1.00064 -0.00440628 5.20723e-17)
(1.00167 -0.00473005 8.53779e-17)
(1.00276 -0.00477756 -5.94014e-17)
(1.00388 -0.00454064 -3.26402e-16)
(1.00497 -0.00403654 7.31099e-16)
(1.00593 -0.00331039 3.78244e-16)
(1.00682 -0.00254175 -1.16217e-16)
(0.998084 -7.3949e-05 -3.96879e-17)
(0.998153 -0.00112137 -7.73678e-17)
(0.998475 -0.00217235 3.71299e-16)
(0.998997 -0.00311225 3.3822e-16)
(0.999735 -0.00391034 -7.43779e-18)
(1.00064 -0.00449464 7.23743e-17)
(1.00168 -0.00482463 -1.12358e-16)
(1.0028 -0.00487339 8.25493e-17)
(1.00394 -0.00463293 3.47472e-16)
(1.00506 -0.00412132 -1.80519e-16)
(1.00603 -0.00338286 1.28463e-16)
(1.00694 -0.00260292 2.15865e-16)
(0.99802 -7.79127e-05 -2.48344e-18)
(0.99809 -0.0011456 5.35314e-17)
(0.998419 -0.00221706 -1.62561e-16)
(0.998953 -0.00317524 -3.19666e-16)
(0.999709 -0.00398869 1.93604e-16)
(1.00064 -0.00458419 -4.44027e-16)
(1.0017 -0.00492053 1.31203e-16)
(1.00285 -0.00497063 -1.94833e-16)
(1.00401 -0.00472665 3.07997e-17)
(1.00514 -0.00420746 1.85149e-16)
(1.00613 -0.00345693 -1.59354e-16)
(1.00705 -0.00266521 -4.81042e-16)
(0.997955 -8.20421e-05 2.29425e-17)
(0.998025 -0.00117035 -1.48633e-16)
(0.998362 -0.00226247 1.66801e-16)
(0.998909 -0.0032391 2.80197e-16)
(0.999682 -0.00406809 -3.60398e-16)
(1.00063 -0.00467496 -3.05012e-17)
(1.00172 -0.00501779 2.1938e-16)
(1.00289 -0.00506933 -2.64744e-16)
(1.00407 -0.00482184 -3.20694e-16)
(1.00522 -0.00429496 9.06715e-17)
(1.00623 -0.00353267 -2.77642e-16)
(1.00716 -0.00272825 4.2367e-16)
(0.997889 -8.63025e-05 1.50769e-17)
(0.997959 -0.00119556 7.83383e-17)
(0.998303 -0.00230857 -7.73937e-17)
(0.998862 -0.00330383 2.36124e-16)
(0.999653 -0.00414854 1.75144e-16)
(1.00062 -0.00476696 1.47499e-16)
(1.00173 -0.00511643 -2.48063e-16)
(1.00293 -0.0051695 3.77998e-16)
(1.00413 -0.0049185 -3.36153e-18)
(1.00531 -0.00438382 -7.18819e-16)
(1.00633 -0.00360981 1.37346e-16)
(1.00728 -0.00279153 -2.66611e-17)
(0.99782 -9.06422e-05 -2.40345e-17)
(0.997891 -0.0012212 8.09252e-17)
(0.998242 -0.0023553 -2.69626e-16)
(0.998815 -0.00336939 -1.97821e-16)
(0.999623 -0.00423003 4.02713e-17)
(1.00061 -0.00486019 1.55098e-16)
(1.00175 -0.00521645 2.59111e-16)
(1.00296 -0.00527114 3.53584e-17)
(1.00419 -0.00501662 2.80074e-17)
(1.00539 -0.00447402 4.78648e-16)
(1.00643 -0.00368825 1.45498e-16)
(1.0074 -0.00285476 -2.31304e-16)
(0.997749 -9.50298e-05 -1.8998e-17)
(0.997822 -0.00124722 -2.2455e-17)
(0.998181 -0.00240263 2.85784e-16)
(0.998765 -0.00343574 4.56697e-18)
(0.999592 -0.00431252 2.46277e-16)
(1.0006 -0.00495462 -2.32182e-16)
(1.00176 -0.00531783 -1.51974e-16)
(1.003 -0.00537423 -4.51425e-17)
(1.00426 -0.0051162 5.44041e-18)
(1.00548 -0.00456553 2.90759e-16)
(1.00654 -0.00376821 -4.52777e-16)
(1.00751 -0.00291845 -2.65956e-16)
(0.997677 -9.94178e-05 5.18056e-18)
(0.997751 -0.00127357 -7.8884e-17)
(0.998117 -0.00245051 -2.76449e-16)
(0.998715 -0.00350286 4.92923e-17)
(0.999559 -0.00439599 2.3029e-17)
(1.00059 -0.00505023 2.92693e-18)
(1.00178 -0.00542058 -8.03011e-17)
(1.00304 -0.00547878 3.49092e-16)
(1.00432 -0.00521726 3.82666e-16)
(1.00556 -0.00465836 -2.54406e-16)
(1.00664 -0.00384959 6.8586e-16)