/*--------------------------------*- C++ -*----------------------------------*\
  =========                 |
  \\      /  F ield         | OpenFOAM: The Open Source CFD Toolbox
   \\    /   O peration     | Website:  https://openfoam.org
    \\  /    A nd           | Version:  6.0
     \\/     M anipulation  |
\*---------------------------------------------------------------------------*/
FoamFile
{
    version     2.0;
    format      ascii;
    class       volScalarField;
    location    "177";
    object      p;
}
// * * * * * * * * * * * * * * * * * * * * * * * * * * * * * * * * * * * * * //

dimensions      [0 2 -2 0 0 0 0];

internalField   nonuniform List<scalar> 
34500
(
1.00576
1.00586
1.00579
1.00556
1.0052
1.00474
1.0042
1.00363
1.00304
1.00248
1.00195
1.00151
1.00107
1.00083
1.00075
1.00576
1.00589
1.00588
1.00573
1.00546
1.00508
1.00462
1.0041
1.00354
1.00298
1.00241
1.00192
1.00139
1.00115
1.00098
1.00576
1.00588
1.00585
1.00566
1.00535
1.00494
1.00445
1.0039
1.00332
1.00275
1.0022
1.00172
1.00123
1.00106
1.00087
1.00577
1.00588
1.00582
1.00561
1.00527
1.00483
1.00431
1.00375
1.00316
1.0026
1.00206
1.0016
1.00115
1.00104
1.00092
1.00577
1.00588
1.00583
1.00563
1.00529
1.00485
1.00434
1.00378
1.0032
1.00264
1.0021
1.00164
1.0012
1.0011
1.00101
1.00578
1.0059
1.00585
1.00566
1.00533
1.0049
1.00439
1.00383
1.00326
1.00269
1.00215
1.00169
1.00124
1.00114
1.00106
1.00579
1.00591
1.00587
1.00567
1.00535
1.00492
1.00441
1.00385
1.00327
1.0027
1.00216
1.0017
1.00126
1.00116
1.00109
1.0058
1.00592
1.00588
1.00568
1.00536
1.00493
1.00442
1.00386
1.00328
1.00271
1.00216
1.0017
1.00127
1.00117
1.00111
1.00581
1.00593
1.00589
1.0057
1.00538
1.00495
1.00444
1.00388
1.0033
1.00273
1.00218
1.00172
1.00129
1.00119
1.00114
1.00583
1.00594
1.00591
1.00572
1.0054
1.00497
1.00446
1.00391
1.00332
1.00275
1.0022
1.00174
1.00131
1.0012
1.00115
1.00584
1.00596
1.00592
1.00574
1.00542
1.005
1.00449
1.00393
1.00335
1.00277
1.00222
1.00175
1.00133
1.0012
1.00115
1.00586
1.00598
1.00594
1.00576
1.00544
1.00502
1.00451
1.00395
1.00337
1.00279
1.00224
1.00177
1.00134
1.0012
1.00114
1.00587
1.00599
1.00596
1.00578
1.00546
1.00504
1.00453
1.00397
1.00338
1.0028
1.00225
1.00177
1.00134
1.0012
1.00113
1.00589
1.00601
1.00598
1.0058
1.00548
1.00506
1.00455
1.00399
1.0034
1.00281
1.00225
1.00178
1.00135
1.00119
1.00112
1.00591
1.00603
1.006
1.00582
1.0055
1.00508
1.00457
1.004
1.00341
1.00282
1.00226
1.00178
1.00135
1.00118
1.00111
1.00593
1.00606
1.00602
1.00584
1.00552
1.00509
1.00458
1.00402
1.00342
1.00283
1.00226
1.00178
1.00135
1.00117
1.00109
1.00595
1.00608
1.00605
1.00586
1.00554
1.00511
1.0046
1.00403
1.00343
1.00284
1.00227
1.00178
1.00135
1.00115
1.00107
1.00598
1.0061
1.00607
1.00589
1.00556
1.00514
1.00462
1.00405
1.00344
1.00285
1.00228
1.00178
1.00135
1.00114
1.00105
1.006
1.00613
1.0061
1.00591
1.00559
1.00516
1.00464
1.00407
1.00346
1.00286
1.00229
1.00179
1.00136
1.00113
1.00102
1.00603
1.00615
1.00612
1.00594
1.00562
1.00519
1.00467
1.00409
1.00348
1.00288
1.0023
1.0018
1.00136
1.00112
1.001
1.00605
1.00618
1.00615
1.00597
1.00565
1.00522
1.0047
1.00412
1.0035
1.00289
1.00231
1.0018
1.00136
1.00111
1.00097
1.00608
1.00621
1.00618
1.006
1.00568
1.00525
1.00472
1.00414
1.00352
1.00291
1.00232
1.0018
1.00135
1.00109
1.00094
1.00611
1.00624
1.00621
1.00604
1.00571
1.00528
1.00475
1.00416
1.00354
1.00292
1.00233
1.0018
1.00135
1.00107
1.00091
1.00614
1.00628
1.00625
1.00607
1.00574
1.00531
1.00478
1.00419
1.00356
1.00294
1.00233
1.0018
1.00134
1.00105
1.00088
1.00617
1.00631
1.00628
1.0061
1.00578
1.00534
1.00481
1.00421
1.00358
1.00295
1.00234
1.0018
1.00133
1.00103
1.00084
1.00621
1.00634
1.00631
1.00614
1.00581
1.00537
1.00483
1.00423
1.00359
1.00296
1.00234
1.00179
1.00132
1.001
1.00081
1.00624
1.00638
1.00635
1.00617
1.00584
1.0054
1.00486
1.00425
1.00361
1.00296
1.00234
1.00179
1.00131
1.00098
1.00078
1.00628
1.00642
1.00639
1.00621
1.00588
1.00543
1.00489
1.00428
1.00363
1.00297
1.00234
1.00179
1.0013
1.00096
1.00074
1.00632
1.00645
1.00642
1.00624
1.00591
1.00546
1.00491
1.0043
1.00364
1.00298
1.00235
1.00178
1.00129
1.00093
1.0007
1.00635
1.00649
1.00646
1.00628
1.00595
1.0055
1.00494
1.00432
1.00366
1.00299
1.00235
1.00177
1.00127
1.00091
1.00066
1.00639
1.00653
1.0065
1.00632
1.00598
1.00553
1.00497
1.00434
1.00368
1.003
1.00235
1.00176
1.00126
1.00088
1.00063
1.00644
1.00658
1.00655
1.00636
1.00602
1.00556
1.005
1.00437
1.00369
1.00301
1.00235
1.00176
1.00124
1.00085
1.00059
1.00648
1.00662
1.00659
1.0064
1.00606
1.0056
1.00503
1.00439
1.00371
1.00302
1.00235
1.00175
1.00122
1.00082
1.00055
1.00652
1.00667
1.00664
1.00645
1.0061
1.00564
1.00506
1.00441
1.00372
1.00303
1.00235
1.00174
1.00121
1.00079
1.00051
1.00657
1.00672
1.00668
1.00649
1.00614
1.00567
1.00509
1.00444
1.00374
1.00304
1.00235
1.00173
1.00119
1.00076
1.00046
1.00662
1.00676
1.00673
1.00654
1.00619
1.00571
1.00513
1.00447
1.00376
1.00304
1.00235
1.00172
1.00117
1.00073
1.00042
1.00667
1.00681
1.00678
1.00659
1.00623
1.00575
1.00516
1.00449
1.00378
1.00305
1.00235
1.00171
1.00115
1.0007
1.00038
1.00672
1.00687
1.00683
1.00664
1.00628
1.0058
1.0052
1.00452
1.0038
1.00306
1.00235
1.0017
1.00113
1.00067
1.00033
1.00677
1.00692
1.00689
1.00669
1.00633
1.00584
1.00523
1.00455
1.00382
1.00307
1.00235
1.00168
1.0011
1.00063
1.00029
1.00682
1.00697
1.00694
1.00674
1.00638
1.00588
1.00527
1.00458
1.00384
1.00308
1.00235
1.00167
1.00108
1.0006
1.00024
1.00687
1.00703
1.007
1.0068
1.00643
1.00593
1.00531
1.00461
1.00386
1.00309
1.00235
1.00166
1.00106
1.00056
1.0002
1.00693
1.00709
1.00705
1.00685
1.00648
1.00598
1.00535
1.00464
1.00388
1.0031
1.00234
1.00164
1.00103
1.00052
1.00015
1.00699
1.00715
1.00711
1.00691
1.00653
1.00602
1.00539
1.00467
1.0039
1.00311
1.00234
1.00163
1.001
1.00048
1.0001
1.00705
1.00721
1.00717
1.00697
1.00659
1.00607
1.00543
1.0047
1.00392
1.00312
1.00233
1.00161
1.00097
1.00044
1.00005
1.00711
1.00727
1.00723
1.00703
1.00664
1.00612
1.00547
1.00473
1.00393
1.00312
1.00233
1.00159
1.00094
1.0004
0.999996
1.00717
1.00734
1.0073
1.00709
1.0067
1.00617
1.00551
1.00476
1.00395
1.00313
1.00232
1.00157
1.00091
1.00036
0.999944
1.00723
1.0074
1.00736
1.00715
1.00675
1.00622
1.00555
1.00479
1.00397
1.00313
1.00231
1.00155
1.00088
1.00032
0.99989
1.0073
1.00747
1.00743
1.00721
1.00681
1.00627
1.00559
1.00482
1.00399
1.00314
1.00231
1.00153
1.00085
1.00027
0.999836
1.00737
1.00754
1.00749
1.00728
1.00687
1.00632
1.00563
1.00485
1.00401
1.00315
1.0023
1.00151
1.00081
1.00023
0.99978
1.00743
1.00761
1.00756
1.00734
1.00693
1.00637
1.00568
1.00488
1.00403
1.00315
1.00229
1.00149
1.00078
1.00018
0.999723
1.00751
1.00768
1.00763
1.00741
1.00699
1.00643
1.00572
1.00492
1.00405
1.00316
1.00228
1.00147
1.00074
1.00013
0.999665
1.00758
1.00775
1.00771
1.00748
1.00706
1.00649
1.00577
1.00495
1.00407
1.00316
1.00228
1.00144
1.00071
1.00008
0.999606
1.00765
1.00783
1.00778
1.00755
1.00712
1.00654
1.00582
1.00499
1.00409
1.00317
1.00227
1.00142
1.00067
1.00003
0.999545
1.00773
1.00791
1.00786
1.00763
1.00719
1.0066
1.00587
1.00502
1.00411
1.00318
1.00226
1.0014
1.00063
0.999983
0.999483
1.0078
1.00799
1.00794
1.0077
1.00726
1.00667
1.00592
1.00506
1.00414
1.00318
1.00225
1.00137
1.00059
0.99993
0.99942
1.00788
1.00807
1.00802
1.00778
1.00733
1.00673
1.00597
1.0051
1.00416
1.00319
1.00224
1.00134
1.00055
0.999876
0.999354
1.00796
1.00815
1.0081
1.00786
1.0074
1.00679
1.00602
1.00514
1.00418
1.0032
1.00223
1.00132
1.00051
0.99982
0.999288
1.00805
1.00824
1.00818
1.00794
1.00748
1.00686
1.00607
1.00517
1.0042
1.0032
1.00221
1.00129
1.00046
0.999762
0.99922
1.00813
1.00832
1.00827
1.00802
1.00755
1.00692
1.00612
1.00521
1.00422
1.00321
1.0022
1.00126
1.00042
0.999704
0.99915
1.00822
1.00841
1.00835
1.0081
1.00763
1.00699
1.00618
1.00525
1.00425
1.00321
1.00219
1.00123
1.00037
0.999644
0.999079
1.00831
1.0085
1.00844
1.00819
1.00771
1.00706
1.00623
1.00529
1.00427
1.00321
1.00217
1.0012
1.00032
0.999582
0.999006
1.0084
1.0086
1.00853
1.00828
1.00779
1.00712
1.00629
1.00533
1.00429
1.00322
1.00216
1.00116
1.00027
0.999519
0.998931
1.00849
1.00869
1.00863
1.00837
1.00787
1.0072
1.00635
1.00537
1.00432
1.00322
1.00215
1.00113
1.00022
0.999455
0.998856
1.00858
1.00879
1.00872
1.00846
1.00795
1.00727
1.00641
1.00542
1.00434
1.00323
1.00213
1.0011
1.00017
0.999389
0.998778
1.00868
1.00889
1.00882
1.00855
1.00804
1.00734
1.00647
1.00546
1.00436
1.00323
1.00212
1.00106
1.00012
0.999321
0.998698
1.00878
1.00899
1.00892
1.00865
1.00813
1.00742
1.00653
1.0055
1.00439
1.00324
1.0021
1.00103
1.00007
0.999252
0.998616
1.00888
1.00909
1.00902
1.00875
1.00822
1.0075
1.00659
1.00555
1.00442
1.00324
1.00208
1.00099
1.00001
0.999181
0.998533
1.00898
1.0092
1.00913
1.00885
1.00831
1.00758
1.00666
1.0056
1.00444
1.00325
1.00207
1.00095
0.999953
0.999108
0.998447
1.00909
1.00931
1.00923
1.00895
1.0084
1.00766
1.00672
1.00564
1.00447
1.00325
1.00205
1.00091
0.999895
0.999034
0.99836
1.00919
1.00942
1.00934
1.00905
1.0085
1.00774
1.00679
1.00569
1.00449
1.00325
1.00203
1.00087
0.999834
0.998957
0.99827
1.0093
1.00953
1.00945
1.00916
1.00859
1.00783
1.00686
1.00574
1.00452
1.00326
1.00201
1.00083
0.999773
0.998878
0.998179
1.00941
1.00965
1.00957
1.00927
1.00869
1.00791
1.00693
1.00579
1.00455
1.00326
1.00199
1.00079
0.999709
0.998798
0.998084
1.00953
1.00976
1.00968
1.00938
1.00879
1.008
1.007
1.00584
1.00458
1.00327
1.00197
1.00074
0.999644
0.998715
0.997988
1.00964
1.00988
1.0098
1.00949
1.0089
1.00809
1.00707
1.00589
1.0046
1.00327
1.00195
1.0007
0.999577
0.998631
0.99789
1.00976
1.01001
1.00992
1.0096
1.009
1.00818
1.00714
1.00594
1.00463
1.00327
1.00192
1.00065
0.999508
0.998544
0.997789
1.00988
1.01013
1.01004
1.00972
1.00911
1.00828
1.00722
1.00599
1.00466
1.00327
1.0019
1.0006
0.999438
0.998455
0.997686
1.01001
1.01026
1.01017
1.00984
1.00922
1.00837
1.00729
1.00605
1.00469
1.00327
1.00188
1.00055
0.999366
0.998365
0.997581
1.01013
1.01039
1.01029
1.00996
1.00933
1.00847
1.00737
1.0061
1.00472
1.00328
1.00185
1.0005
0.999292
0.998272
0.997473
1.01026
1.01052
1.01042
1.01009
1.00944
1.00857
1.00745
1.00616
1.00475
1.00328
1.00182
1.00045
0.999217
0.998177
0.997363
1.01039
1.01066
1.01056
1.01022
1.00956
1.00867
1.00753
1.00622
1.00478
1.00328
1.0018
1.0004
0.99914
0.99808
0.99725
1.01053
1.0108
1.01069
1.01035
1.00968
1.00877
1.00761
1.00627
1.00481
1.00328
1.00177
1.00034
0.999061
0.997981
0.997134
1.01066
1.01094
1.01083
1.01048
1.0098
1.00888
1.0077
1.00633
1.00484
1.00328
1.00174
1.00029
0.99898
0.997879
0.997016
1.0108
1.01108
1.01097
1.01062
1.00993
1.00899
1.00779
1.00639
1.00487
1.00329
1.00172
1.00023
0.998897
0.997775
0.996895
1.01094
1.01123
1.01112
1.01076
1.01005
1.0091
1.00787
1.00646
1.0049
1.00329
1.00169
1.00017
0.998812
0.997667
0.996771
1.01109
1.01138
1.01127
1.0109
1.01018
1.00921
1.00796
1.00652
1.00494
1.00329
1.00166
1.00011
0.998725
0.997558
0.996644
1.01124
1.01153
1.01142
1.01104
1.01032
1.00932
1.00806
1.00658
1.00497
1.00329
1.00162
1.00005
0.998635
0.997445
0.996514
1.01139
1.01169
1.01157
1.01119
1.01045
1.00944
1.00815
1.00665
1.005
1.00329
1.00159
0.999985
0.998543
0.997331
0.996381
1.01154
1.01185
1.01173
1.01134
1.01059
1.00956
1.00824
1.00671
1.00504
1.00329
1.00156
0.999919
0.998448
0.997213
0.996245
1.0117
1.01201
1.01189
1.01149
1.01073
1.00968
1.00834
1.00678
1.00507
1.00329
1.00152
0.999851
0.998352
0.997092
0.996106
1.01186
1.01217
1.01205
1.01165
1.01087
1.00981
1.00844
1.00685
1.00511
1.00329
1.00149
0.999782
0.998253
0.996968
0.995963
1.01202
1.01234
1.01222
1.01181
1.01102
1.00993
1.00854
1.00692
1.00514
1.00329
1.00145
0.999711
0.998151
0.996842
0.995818
1.01219
1.01251
1.01239
1.01197
1.01117
1.01006
1.00864
1.00699
1.00518
1.00328
1.00141
0.999637
0.998047
0.996713
0.995669
1.01236
1.01269
1.01256
1.01214
1.01132
1.01019
1.00875
1.00706
1.00521
1.00328
1.00137
0.999562
0.997941
0.996581
0.995516
1.01253
1.01287
1.01274
1.01231
1.01148
1.01033
1.00885
1.00713
1.00525
1.00328
1.00133
0.999485
0.997832
0.996445
0.99536
1.01271
1.01305
1.01292
1.01248
1.01163
1.01046
1.00896
1.00721
1.00528
1.00328
1.00129
0.999407
0.99772
0.996307
0.995201
1.01289
1.01324
1.0131
1.01266
1.0118
1.0106
1.00907
1.00729
1.00532
1.00327
1.00124
0.999325
0.997606
0.996165
0.995037
1.01307
1.01343
1.01329
1.01284
1.01196
1.01075
1.00919
1.00736
1.00536
1.00327
1.0012
0.999243
0.997489
0.99602
0.994871
1.01326
1.01362
1.01348
1.01303
1.01213
1.01089
1.0093
1.00744
1.0054
1.00327
1.00115
0.999157
0.997369
0.995871
0.9947
1.01345
1.01382
1.01368
1.01321
1.0123
1.01104
1.00942
1.00752
1.00544
1.00326
1.00111
0.99907
0.997246
0.995719
0.994525
1.01365
1.01402
1.01387
1.01341
1.01248
1.01119
1.00954
1.00761
1.00548
1.00326
1.00106
0.99898
0.99712
0.995562
0.994346
1.01385
1.01423
1.01408
1.0136
1.01266
1.01135
1.00966
1.00769
1.00552
1.00325
1.00101
0.998888
0.996991
0.995403
0.994163
1.01405
1.01444
1.01429
1.0138
1.01284
1.01151
1.00979
1.00777
1.00556
1.00325
1.00095
0.998793
0.996858
0.995239
0.993975
1.01425
1.01465
1.0145
1.014
1.01303
1.01167
1.00992
1.00786
1.0056
1.00324
1.0009
0.998696
0.996722
0.995072
0.993784
1.01447
1.01487
1.01471
1.01421
1.01322
1.01183
1.01005
1.00795
1.00564
1.00323
1.00085
0.998595
0.996583
0.994901
0.993588
1.01468
1.01509
1.01493
1.01443
1.01341
1.012
1.01018
1.00804
1.00568
1.00322
1.00079
0.998493
0.99644
0.994726
0.993388
1.0149
1.01532
1.01516
1.01464
1.01361
1.01217
1.01031
1.00813
1.00572
1.00321
1.00073
0.998387
0.996294
0.994546
0.993183
1.01512
1.01555
1.01539
1.01486
1.01381
1.01235
1.01045
1.00822
1.00576
1.0032
1.00067
0.998279
0.996144
0.994363
0.992974
1.01535
1.01578
1.01562
1.01509
1.01402
1.01252
1.01059
1.00831
1.00581
1.00319
1.0006
0.998167
0.995991
0.994175
0.992759
1.01558
1.01602
1.01586
1.01532
1.01423
1.01271
1.01073
1.00841
1.00585
1.00318
1.00054
0.998054
0.995834
0.993983
0.992541
1.01582
1.01627
1.0161
1.01555
1.01445
1.01289
1.01088
1.0085
1.00589
1.00317
1.00047
0.997936
0.995673
0.993786
0.992316
1.01606
1.01652
1.01635
1.01579
1.01467
1.01308
1.01102
1.0086
1.00594
1.00315
1.0004
0.997816
0.995508
0.993585
0.992088
1.01631
1.01677
1.01661
1.01604
1.01489
1.01327
1.01117
1.0087
1.00598
1.00314
1.00033
0.997692
0.995338
0.993379
0.991853
1.01656
1.01703
1.01686
1.01629
1.01512
1.01347
1.01133
1.0088
1.00602
1.00312
1.00026
0.997565
0.995165
0.993168
0.991614
1.01681
1.0173
1.01713
1.01654
1.01535
1.01367
1.01148
1.00891
1.00607
1.00311
1.00018
0.997435
0.994987
0.992952
0.991369
1.01707
1.01757
1.0174
1.0168
1.01559
1.01388
1.01164
1.00901
1.00611
1.00309
1.0001
0.997301
0.994805
0.992731
0.991118
1.01734
1.01784
1.01767
1.01707
1.01583
1.01409
1.01181
1.00912
1.00616
1.00307
1.00002
0.997162
0.994618
0.992504
0.990862
1.01761
1.01813
1.01795
1.01734
1.01608
1.0143
1.01197
1.00923
1.0062
1.00305
0.999937
0.997021
0.994427
0.992273
0.990601
1.01789
1.01841
1.01824
1.01762
1.01634
1.01452
1.01214
1.00934
1.00625
1.00303
0.999849
0.996875
0.99423
0.992036
0.990333
1.01817
1.01871
1.01853
1.0179
1.0166
1.01474
1.01231
1.00945
1.00629
1.003
0.999759
0.996725
0.994029
0.991794
0.99006
1.01846
1.019
1.01883
1.01819
1.01686
1.01496
1.01249
1.00956
1.00633
1.00298
0.999666
0.99657
0.993823
0.991545
0.98978
1.01875
1.01931
1.01913
1.01848
1.01713
1.0152
1.01267
1.00968
1.00638
1.00295
0.99957
0.996412
0.993612
0.991292
0.989494
1.01905
1.01962
1.01945
1.01878
1.0174
1.01543
1.01285
1.00979
1.00642
1.00292
0.99947
0.996249
0.993395
0.991032
0.989202
1.01935
1.01994
1.01976
1.01909
1.01769
1.01567
1.01303
1.00991
1.00647
1.00289
0.999368
0.996083
0.993173
0.990766
0.988904
1.01966
1.02026
1.02009
1.0194
1.01797
1.01592
1.01322
1.01003
1.00651
1.00285
0.999261
0.995911
0.992945
0.990494
0.988599
1.01998
1.02059
1.02042
1.01972
1.01827
1.01617
1.01341
1.01015
1.00655
1.00282
0.999152
0.995734
0.992712
0.990216
0.988287
1.0203
1.02093
1.02075
1.02005
1.01856
1.01642
1.01361
1.01027
1.0066
1.00278
0.999038
0.995552
0.992473
0.989931
0.987968
1.02063
1.02128
1.0211
1.02039
1.01887
1.01668
1.01381
1.0104
1.00664
1.00274
0.998921
0.995366
0.992228
0.98964
0.987643
1.02097
1.02163
1.02145
1.02073
1.01918
1.01695
1.01401
1.01052
1.00668
1.0027
0.998799
0.995173
0.991976
0.989341
0.98731
1.02131
1.02199
1.02181
1.02107
1.0195
1.01722
1.01421
1.01065
1.00672
1.00266
0.998674
0.994976
0.991718
0.989036
0.98697
1.02166
1.02235
1.02218
1.02143
1.01983
1.01749
1.01442
1.01078
1.00677
1.00261
0.998543
0.994772
0.991453
0.988723
0.986622
1.02202
1.02273
1.02255
1.02179
1.02016
1.01778
1.01464
1.01091
1.00681
1.00256
0.998408
0.994562
0.991181
0.988403
0.986267
1.02238
1.02311
1.02294
1.02216
1.0205
1.01806
1.01485
1.01104
1.00684
1.00251
0.998268
0.994346
0.990902
0.988076
0.985904
1.02276
1.0235
1.02333
1.02254
1.02084
1.01836
1.01507
1.01117
1.00688
1.00245
0.998123
0.994124
0.990617
0.987741
0.985533
1.02314
1.0239
1.02372
1.02293
1.0212
1.01865
1.0153
1.01131
1.00692
1.00239
0.997972
0.993895
0.990324
0.987398
0.985154
1.02352
1.0243
1.02413
1.02333
1.02156
1.01896
1.01552
1.01144
1.00695
1.00232
0.997817
0.993661
0.990024
0.987048
0.984768
1.02392
1.02472
1.02455
1.02373
1.02193
1.01927
1.01575
1.01158
1.00699
1.00226
0.997655
0.993418
0.989715
0.986689
0.984372
1.02432
1.02514
1.02497
1.02414
1.0223
1.01959
1.01599
1.01172
1.00702
1.00219
0.997489
0.99317
0.9894
0.986322
0.983969
1.02473
1.02557
1.02541
1.02456
1.02269
1.01991
1.01623
1.01185
1.00705
1.00211
0.997316
0.992913
0.989075
0.985946
0.983556
1.02515
1.02601
1.02585
1.025
1.02308
1.02024
1.01647
1.01199
1.00708
1.00203
0.997137
0.992649
0.988743
0.985562
0.983135
1.02558
1.02647
1.02631
1.02544
1.02348
1.02058
1.01672
1.01213
1.0071
1.00194
0.996951
0.992377
0.988402
0.985168
0.982705
1.02602
1.02693
1.02677
1.02589
1.02389
1.02092
1.01697
1.01227
1.00713
1.00186
0.996758
0.992098
0.988052
0.984766
0.982265
1.02647
1.0274
1.02725
1.02635
1.02431
1.02127
1.01722
1.01242
1.00715
1.00176
0.996558
0.991809
0.987693
0.984353
0.981816
1.02692
1.02788
1.02773
1.02682
1.02474
1.02162
1.01748
1.01256
1.00717
1.00166
0.996352
0.991512
0.987325
0.983932
0.981358
1.02739
1.02837
1.02823
1.0273
1.02517
1.02199
1.01774
1.0127
1.00719
1.00155
0.996136
0.991206
0.986946
0.9835
0.980889
1.02787
1.02887
1.02873
1.02779
1.02562
1.02236
1.01801
1.01284
1.0072
1.00144
0.995914
0.990891
0.986559
0.983059
0.980412
1.02835
1.02938
1.02925
1.02829
1.02607
1.02273
1.01828
1.01298
1.00721
1.00132
0.995682
0.990565
0.986161
0.982607
0.979923
1.02885
1.02991
1.02978
1.02881
1.02654
1.02312
1.01855
1.01313
1.00721
1.0012
0.995442
0.990231
0.985752
0.982145
0.979425
1.02936
1.03044
1.03032
1.02933
1.02702
1.02351
1.01883
1.01327
1.00721
1.00107
0.995193
0.989886
0.985333
0.981672
0.978915
1.02987
1.03099
1.03087
1.02987
1.0275
1.02391
1.01911
1.01341
1.00721
1.00093
0.994934
0.98953
0.984903
0.981189
0.978396
1.0304
1.03155
1.03144
1.03042
1.028
1.02432
1.01939
1.01355
1.0072
1.00078
0.994666
0.989164
0.984462
0.980693
0.977865
1.03094
1.03212
1.03202
1.03098
1.02851
1.02473
1.01968
1.01369
1.00719
1.00062
0.994388
0.988786
0.984009
0.980187
0.977324
1.0315
1.03271
1.03261
1.03156
1.02902
1.02515
1.01997
1.01383
1.00717
1.00046
0.994098
0.988397
0.983544
0.979669
0.97677
1.03206
1.0333
1.03322
1.03214
1.02955
1.02558
1.02026
1.01396
1.00714
1.00029
0.993798
0.987995
0.983067
0.979139
0.976206
1.03264
1.03391
1.03384
1.03274
1.0301
1.02602
1.02056
1.01409
1.00711
1.0001
0.993486
0.987581
0.982577
0.978596
0.975629
1.03323
1.03454
1.03447
1.03336
1.03065
1.02646
1.02085
1.01423
1.00708
0.99991
0.993162
0.987155
0.982075
0.978041
0.975041
1.03383
1.03518
1.03512
1.03399
1.03121
1.02692
1.02116
1.01435
1.00703
0.999706
0.992825
0.986714
0.981559
0.977473
0.97444
1.03445
1.03583
1.03578
1.03463
1.03179
1.02738
1.02146
1.01448
1.00698
0.999491
0.992476
0.986261
0.98103
0.976892
0.973827
1.03508
1.0365
1.03646
1.03529
1.03238
1.02785
1.02177
1.0146
1.00691
0.999264
0.992113
0.985793
0.980486
0.976298
0.973202
1.03572
1.03719
1.03716
1.03597
1.03298
1.02832
1.02207
1.01472
1.00684
0.999025
0.991736
0.985311
0.979929
0.97569
0.972564
1.03638
1.03789
1.03787
1.03666
1.0336
1.02881
1.02238
1.01483
1.00676
0.998773
0.991344
0.984813
0.979356
0.975068
0.971913
1.03705
1.0386
1.0386
1.03737
1.03423
1.0293
1.0227
1.01494
1.00667
0.998508
0.990938
0.984301
0.97877
0.974433
0.971249
1.03774
1.03934
1.03935
1.03809
1.03487
1.0298
1.02301
1.01504
1.00657
0.998228
0.990515
0.983771
0.978167
0.973783
0.970571
1.03845
1.04009
1.04012
1.03883
1.03553
1.03031
1.02332
1.01514
1.00646
0.997934
0.990076
0.983227
0.977549
0.973118
0.96988
1.03917
1.04086
1.0409
1.03959
1.0362
1.03083
1.02363
1.01523
1.00633
0.997623
0.98962
0.982664
0.976914
0.972438
0.969174
1.0399
1.04164
1.04171
1.04037
1.03688
1.03135
1.02395
1.01531
1.00619
0.997296
0.989147
0.982084
0.976263
0.971743
0.968455
1.04066
1.04245
1.04253
1.04117
1.03758
1.03188
1.02426
1.01538
1.00604
0.996952
0.988654
0.981486
0.975595
0.971032
0.967722
1.04143
1.04328
1.04337
1.04198
1.0383
1.03242
1.02457
1.01544
1.00587
0.99659
0.988143
0.98087
0.97491
0.970305
0.966974
1.04222
1.04412
1.04424
1.04282
1.03903
1.03297
1.02488
1.0155
1.00569
0.996208
0.987612
0.980233
0.974206
0.969561
0.96621
1.04303
1.04499
1.04513
1.04367
1.03977
1.03352
1.02518
1.01554
1.00549
0.995807
0.98706
0.979578
0.973484
0.968801
0.965433
1.04386
1.04588
1.04604
1.04455
1.04053
1.03408
1.02549
1.01557
1.00527
0.995384
0.986486
0.978901
0.972743
0.968024
0.96464
1.04471
1.04679
1.04697
1.04545
1.04131
1.03465
1.02578
1.01558
1.00503
0.99494
0.985891
0.978204
0.971983
0.96723
0.963832
1.04558
1.04772
1.04793
1.04637
1.0421
1.03522
1.02608
1.01559
1.00477
0.994472
0.985272
0.977484
0.971203
0.966418
0.963007
1.04647
1.04868
1.04891
1.04732
1.04291
1.0358
1.02636
1.01557
1.00449
0.993981
0.98463
0.976743
0.970403
0.965588
0.962168
1.04739
1.04966
1.04992
1.04829
1.04374
1.03638
1.02664
1.01554
1.00418
0.993464
0.983962
0.975978
0.969582
0.96474
0.961312
1.04832
1.05067
1.05096
1.04928
1.04458
1.03697
1.02691
1.01549
1.00386
0.992921
0.983269
0.97519
0.968741
0.963874
0.960441
1.04928
1.0517
1.05202
1.0503
1.04544
1.03756
1.02717
1.01542
1.0035
0.99235
0.98255
0.974378
0.967878
0.962988
0.959552
1.05026
1.05276
1.05311
1.05134
1.04631
1.03816
1.02742
1.01533
1.00312
0.991751
0.981803
0.973541
0.966993
0.962085
0.958648
1.05127
1.05385
1.05423
1.05241
1.0472
1.03875
1.02766
1.01521
1.00271
0.991122
0.981027
0.972678
0.966086
0.961161
0.957727
1.0523
1.05497
1.05538
1.05351
1.04811
1.03935
1.02788
1.01507
1.00227
0.990462
0.980223
0.971789
0.965156
0.960218
0.956789
1.05336
1.05611
1.05657
1.05463
1.04904
1.03995
1.02809
1.0149
1.0018
0.989769
0.979388
0.970873
0.964202
0.959255
0.955834
1.05445
1.05729
1.05778
1.05578
1.04998
1.04054
1.02828
1.01471
1.00129
0.989042
0.978521
0.96993
0.963225
0.958272
0.954862
1.05557
1.0585
1.05903
1.05697
1.05094
1.04113
1.02844
1.01448
1.00075
0.98828
0.977622
0.968957
0.962223
0.957268
0.953873
1.05671
1.05975
1.06032
1.05818
1.05191
1.04172
1.02859
1.01422
1.00017
0.987481
0.976691
0.967957
0.961197
0.956244
0.952866
1.05789
1.06103
1.06164
1.05942
1.0529
1.04231
1.02871
1.01392
0.999547
0.986643
0.975724
0.966926
0.960146
0.955198
0.951842
1.05909
1.06234
1.063
1.0607
1.0539
1.04288
1.02881
1.01359
0.998886
0.985766
0.974722
0.965865
0.95907
0.954132
0.950801
1.06033
1.06369
1.0644
1.06201
1.05492
1.04344
1.02887
1.01321
0.99818
0.984847
0.973683
0.964773
0.957967
0.953044
0.949741
1.06161
1.06509
1.06584
1.06335
1.05595
1.04399
1.0289
1.01279
0.997428
0.983886
0.972607
0.96365
0.956839
0.951935
0.948664
1.06291
1.06652
1.06733
1.06473
1.05699
1.04453
1.02889
1.01232
0.996628
0.982879
0.971492
0.962494
0.955684
0.950804
0.947568
1.06426
1.06799
1.06886
1.06613
1.05804
1.04505
1.02885
1.0118
0.995777
0.981827
0.970338
0.961306
0.954503
0.949651
0.946455
1.06564
1.06951
1.07043
1.06758
1.0591
1.04555
1.02876
1.01123
0.994873
0.980726
0.969143
0.960084
0.953294
0.948476
0.945324
1.06706
1.07108
1.07205
1.06906
1.06016
1.04602
1.02862
1.0106
0.993913
0.979577
0.967908
0.958829
0.952058
0.947279
0.944174
1.06852
1.07269
1.07373
1.07057
1.06124
1.04646
1.02843
1.00991
0.992895
0.978376
0.966629
0.957539
0.950794
0.94606
0.943007
1.07002
1.07435
1.07545
1.07212
1.06231
1.04687
1.02819
1.00916
0.991817
0.977124
0.965308
0.956214
0.949503
0.944818
0.941821
1.07157
1.07606
1.07723
1.07371
1.06339
1.04724
1.02788
1.00834
0.990675
0.975817
0.963942
0.954854
0.948183
0.943554
0.940617
1.07316
1.07783
1.07906
1.07533
1.06446
1.04757
1.02751
1.00744
0.989468
0.974454
0.962531
0.953459
0.946836
0.942268
0.939395
1.0748
1.07966
1.08096
1.07699
1.06552
1.04785
1.02706
1.00648
0.988192
0.973035
0.961075
0.952028
0.94546
0.940958
0.938154
1.07649
1.08155
1.08291
1.07869
1.06657
1.04808
1.02654
1.00543
0.986846
0.971558
0.959573
0.95056
0.944055
0.939627
0.936895
1.07823
1.0835
1.08493
1.08041
1.06761
1.04825
1.02593
1.0043
0.985427
0.97002
0.958023
0.949056
0.942622
0.938273
0.935618
1.08003
1.08551
1.08701
1.08217
1.06863
1.04834
1.02524
1.00308
0.983932
0.968422
0.956426
0.947515
0.941161
0.936896
0.934323
1.08188
1.0876
1.08916
1.08396
1.06961
1.04837
1.02445
1.00176
0.982358
0.966762
0.954781
0.945938
0.939671
0.935497
0.93301
1.08379
1.08975
1.09138
1.08578
1.07057
1.0483
1.02355
1.00036
0.980705
0.965038
0.953088
0.944323
0.938153
0.934075
0.931679
1.08576
1.09199
1.09367
1.08763
1.07148
1.04815
1.02255
0.998846
0.978968
0.963251
0.951346
0.942672
0.936606
0.932632
0.93033
1.08779
1.09431
1.09603
1.0895
1.07234
1.04789
1.02143
0.997231
0.977148
0.961398
0.949555
0.940984
0.935031
0.931166
0.928963
1.08989
1.09671
1.09848
1.09138
1.07314
1.04751
1.02018
0.995507
0.97524
0.95948
0.947715
0.939259
0.933428
0.929678
0.927579
1.09206
1.0992
1.101
1.09328
1.07387
1.04702
1.0188
0.993669
0.973245
0.957496
0.945826
0.937498
0.931798
0.928169
0.926177
1.0943
1.10179
1.1036
1.09519
1.07452
1.04639
1.01728
0.991715
0.971159
0.955444
0.943888
0.9357
0.93014
0.926638
0.924758
1.09663
1.10448
1.10628
1.09709
1.07507
1.04561
1.01562
0.989639
0.968983
0.953327
0.941901
0.933867
0.928455
0.925087
0.923321
1.09903
1.10728
1.10905
1.09899
1.07551
1.04467
1.0138
0.98744
0.966715
0.951142
0.939866
0.931998
0.926743
0.923514
0.921868
1.10152
1.11019
1.1119
1.10086
1.07583
1.04355
1.01181
0.985114
0.964353
0.948891
0.937784
0.930095
0.925006
0.921921
0.920399
1.1041
1.11323
1.11483
1.1027
1.076
1.04225
1.00966
0.982658
0.961899
0.946573
0.935655
0.928158
0.923242
0.920308
0.918913
1.10677
1.11639
1.11784
1.1045
1.07601
1.04075
1.00733
0.980071
0.959351
0.944191
0.933479
0.926188
0.921454
0.918675
0.917412
1.10955
1.11968
1.12092
1.10624
1.07584
1.03903
1.00482
0.97735
0.95671
0.941743
0.931258
0.924184
0.919641
0.917023
0.915895
1.11244
1.12312
1.12409
1.1079
1.07547
1.03708
1.00211
0.974495
0.953977
0.939231
0.928993
0.92215
0.917804
0.915353
0.914363
1.11544
1.12671
1.12731
1.10946
1.07487
1.03488
0.999213
0.971505
0.951152
0.936658
0.926685
0.920085
0.915944
0.913664
0.912816
1.11856
1.13046
1.1306
1.11089
1.07402
1.03242
0.996115
0.96838
0.948237
0.934023
0.924336
0.91799
0.914063
0.911958
0.911255
1.12181
1.13438
1.13394
1.11218
1.07289
1.02969
0.992814
0.965122
0.945234
0.93133
0.921947
0.915868
0.912159
0.910235
0.90968
1.12521
1.13847
1.13732
1.11328
1.07146
1.02666
0.989308
0.961731
0.942146
0.92858
0.91952
0.913718
0.910236
0.908495
0.908092
1.12876
1.14275
1.14072
1.11418
1.06969
1.02334
0.985595
0.958211
0.938974
0.925776
0.917056
0.911543
0.908293
0.90674
0.906491
1.13247
1.14721
1.14413
1.11482
1.06756
1.0197
0.981676
0.954565
0.935722
0.922921
0.91456
0.909345
0.906332
0.904969
0.904877
1.13636
1.15188
1.14751
1.11518
1.06504
1.01574
0.977553
0.950797
0.932393
0.920017
0.912031
0.907124
0.904353
0.903185
0.903252
1.14044
1.15674
1.15084
1.11521
1.0621
1.01145
0.973229
0.946912
0.928993
0.917067
0.909473
0.904882
0.902358
0.901387
0.901615
1.14472
1.16181
1.15409
1.11485
1.0587
1.00683
0.96871
0.942917
0.925524
0.914075
0.906889
0.902621
0.900348
0.899575
0.899967
1.14924
1.16709
1.15721
1.11407
1.05482
1.00186
0.964003
0.938817
0.921993
0.911046
0.90428
0.900343
0.898324
0.897752
0.898308
1.154
1.17257
1.16017
1.1128
1.05044
0.996553
0.959118
0.934621
0.918404
0.907982
0.901651
0.89805
0.896287
0.895918
0.89664
1.15904
1.17825
1.1629
1.11099
1.04551
0.990912
0.954067
0.930337
0.914762
0.904888
0.899003
0.895743
0.894238
0.894073
0.894963
1.16437
1.18412
1.16535
1.10858
1.04003
0.984944
0.948862
0.925973
0.911075
0.901768
0.89634
0.893425
0.892179
0.892219
0.893276
1.17002
1.19016
1.16745
1.1055
1.03397
0.978663
0.943518
0.921539
0.907347
0.898627
0.893664
0.891097
0.890112
0.890356
0.891582
1.17603
1.19635
1.16911
1.10168
1.02733
0.972085
0.938054
0.917044
0.903585
0.895469
0.89098
0.888761
0.888036
0.888486
0.889881
1.18244
1.20264
1.17025
1.09708
1.02009
0.965233
0.932487
0.912499
0.899797
0.892301
0.88829
0.88642
0.885954
0.886609
0.888173
1.18927
1.20901
1.17077
1.09161
1.01225
0.958136
0.926837
0.907914
0.895988
0.889125
0.885597
0.884075
0.883867
0.884725
0.886459
1.19657
1.21539
1.17057
1.08523
1.00384
0.950825
0.921125
0.903298
0.892167
0.885949
0.882905
0.881728
0.881776
0.882837
0.88474
1.20438
1.22171
1.16952
1.07787
0.994862
0.94334
0.91537
0.898663
0.88834
0.882776
0.880217
0.879381
0.879683
0.880946
0.883017
1.21274
1.22789
1.16751
1.06949
0.985358
0.935722
0.909593
0.894017
0.884516
0.879613
0.877535
0.877036
0.877589
0.879052
0.881291
1.22171
1.23382
1.16439
1.06005
0.975373
0.928017
0.903815
0.889371
0.8807
0.876463
0.874863
0.874696
0.875496
0.877156
0.879562
1.23131
1.23936
1.16002
1.04953
0.964968
0.920274
0.898054
0.884736
0.876903
0.873334
0.872205
0.872361
0.873405
0.875261
0.877833
1.24161
1.24436
1.15426
1.03792
0.954216
0.912541
0.892327
0.880119
0.873131
0.870229
0.869562
0.870035
0.871318
0.873367
0.876103
1.25263
1.24865
1.14695
1.02523
0.943208
0.904867
0.886649
0.875532
0.869394
0.867154
0.866937
0.867718
0.869236
0.871476
0.874374
1.2644
1.252
1.13795
1.01151
0.932044
0.897299
0.881034
0.870983
0.865698
0.864113
0.864335
0.865414
0.867162
0.86959
0.872648
1.27693
1.25416
1.12712
0.996836
0.920838
0.889877
0.875493
0.866484
0.862053