1.275 	2.15223e-18 	-2.76991e-20 	-0.0344601 	-0.000434465 	-1.91066e-22
1.825 	2.15223e-18 	-1.39322e-20 	-0.00945821 	-0.00275408 	1.68817e-21
2.375 	2.15223e-18 	-2.66896e-23 	0.115328 	-0.00324032 	-7.04185e-22
