1.45 	0 	0 	-0.00811459 	-0.00258912 	1.65429e-20
2.35 	0 	0 	0.0622783 	-0.00663386 	9.89814e-21
