1.45 	0 	0 	-0.291597
2.35 	0 	0 	-0.126906
