1.275 	2.15223e-18 	-2.76991e-20 	-0.0344422 	-0.000434892 	-1.9166e-22
1.825 	2.15223e-18 	-1.39322e-20 	-0.00942605 	-0.00275973 	1.69595e-21
2.375 	2.15223e-18 	-2.66896e-23 	0.115417 	-0.00325024 	-7.07509e-22
