1.45 	0 	0 	-0.00308568 	-0.00296239 	3.96662e-21
2.35 	0 	0 	0.0784582 	-0.00720071 	2.38378e-21
