/*--------------------------------*- C++ -*----------------------------------*\
  =========                 |
  \\      /  F ield         | OpenFOAM: The Open Source CFD Toolbox
   \\    /   O peration     | Website:  https://openfoam.org
    \\  /    A nd           | Version:  6.0
     \\/     M anipulation  |
\*---------------------------------------------------------------------------*/
FoamFile
{
    version     2.0;
    format      ascii;
    class       surfaceScalarField;
    location    "22";
    object      phi;
}
// * * * * * * * * * * * * * * * * * * * * * * * * * * * * * * * * * * * * * //

dimensions      [0 3 -1 0 0 0 0];

internalField   nonuniform List<scalar> 
15760
(
-2.24962e-06
2.24944e-06
1.82971e-10
-7.77877e-06
5.52874e-06
4.06275e-10
-1.56365e-05
7.8572e-06
5.18395e-10
-2.50538e-05
9.41676e-06
5.41425e-10
-3.54093e-05
1.0355e-05
4.92684e-10
-4.62042e-05
1.07945e-05
3.8585e-10
-5.70419e-05
1.08375e-05
2.31406e-10
-6.76114e-05
1.05695e-05
3.76505e-11
-7.7675e-05
1.00637e-05
-1.88619e-10
-8.70575e-05
9.383e-06
-4.41547e-10
-9.56392e-05
8.58244e-06
-7.16127e-10
-0.000103349
7.7106e-06
-1.00849e-09
-0.000110158
6.8106e-06
-1.31542e-09
-0.000116077
5.92069e-06
-1.63399e-09
-0.00012115
5.07463e-06
-1.96186e-09
-0.000125449
4.30176e-06
-2.29693e-09
-0.000129074
3.62691e-06
-2.63712e-09
-0.000132141
3.0704e-06
-2.9809e-09
-0.000134787
2.64917e-06
-3.32691e-09
2.37762e-06
-3.6742e-09
-0.000137161
-2.23134e-06
4.48078e-06
-7.7049e-06
1.10023e-05
-1.54703e-05
1.56226e-05
-2.47598e-05
1.87063e-05
-3.49535e-05
2.05487e-05
-4.55535e-05
2.13946e-05
-5.61638e-05
2.14477e-05
-6.64732e-05
2.08789e-05
-7.62428e-05
1.98333e-05
-8.52962e-05
1.84364e-05
-9.35113e-05
1.67976e-05
-0.000100814
1.50138e-05
-0.000107175
1.31712e-05
-0.000112601
1.13465e-05
-0.000117134
9.60753e-06
-0.000120846
8.01366e-06
-0.000123834
6.61527e-06
-0.000126217
5.45384e-06
-0.000128132
4.5642e-06
3.9758e-06
-0.000129731
-2.19452e-06
6.67529e-06
-7.55612e-06
1.63639e-05
-1.51358e-05
2.32022e-05
-2.41686e-05
2.77391e-05
-3.40375e-05
3.04176e-05
-4.42473e-05
3.16044e-05
-5.44029e-05
3.16034e-05
-6.41931e-05
3.0669e-05
-7.33771e-05
2.90174e-05
-8.17756e-05
2.68348e-05
-8.92623e-05
2.42843e-05
-9.57587e-05
2.15102e-05
-0.000101229
1.86416e-05
-0.000105676
1.57938e-05
-0.000109139
1.30699e-05
-0.000111685
1.05601e-05
-0.000113412
8.34193e-06
-0.000114438
6.47988e-06
-0.000114902
5.02849e-06
4.03381e-06
-0.00011496
-2.13858e-06
8.81387e-06
-7.3302e-06
2.15555e-05
-1.46283e-05
3.05003e-05
-2.32728e-05
3.63836e-05
-3.2652e-05
3.97968e-05
-4.22747e-05
4.12271e-05
-5.17485e-05
4.10771e-05
-6.07621e-05
3.96827e-05
-6.9073e-05
3.73283e-05
-7.64972e-05
3.42591e-05
-8.29026e-05
3.06897e-05
-8.82033e-05
2.68109e-05
-9.23559e-05
2.27941e-05
-9.53558e-05
1.87938e-05
-9.72347e-05
1.49487e-05
-9.80569e-05
1.13822e-05
-9.79163e-05
8.20137e-06
-9.69325e-05
5.49614e-06
-9.5248e-05
3.34389e-06
1.80986e-06
-9.3024e-05
-2.06252e-06
1.08764e-05
-7.0233e-06
2.65163e-05
-1.394e-05
3.7417e-05
-2.20603e-05
4.45039e-05
-3.07805e-05
4.8517e-05
-3.96164e-05
5.0063e-05
-4.818e-05
4.96406e-05
-5.61615e-05
4.76641e-05
-6.33163e-05
4.44831e-05
-6.94555e-05
4.03983e-05
-7.44391e-05
3.56733e-05
-7.81718e-05
3.05435e-05
-8.05991e-05
2.52215e-05
-8.17061e-05
1.99008e-05
-8.15148e-05
1.47574e-05
-8.00826e-05
9.95008e-06
-7.74996e-05
5.6183e-06
-7.38852e-05
1.88173e-06
-6.93862e-05
-1.15511e-06
-3.40394e-06
-6.41724e-05
-1.96475e-06
1.28411e-05
-6.62954e-06
3.11811e-05
-1.30589e-05
4.38464e-05
-2.0512e-05
5.1957e-05
-2.83974e-05
5.64024e-05
-3.62412e-05
5.79068e-05
-4.36629e-05
5.70624e-05
-5.03565e-05
5.43577e-05
-5.60765e-05
5.02031e-05
-6.06289e-05
4.49507e-05
-6.38648e-05
3.89093e-05
-6.56768e-05
3.23555e-05
-6.59968e-05
2.55415e-05
-6.47955e-05
1.86994e-05
-6.20818e-05
1.20438e-05
-5.79028e-05
5.77104e-06
-5.2342e-05
5.75541e-08
-4.55181e-05
-4.94226e-06
-3.75826e-05
-9.0906e-06
-1.22703e-05
-2.87162e-05
-1.8429e-06
1.4684e-05
-6.14041e-06
3.54786e-05
-1.19678e-05
4.96738e-05
-1.86006e-05
5.85899e-05
-2.54647e-05
6.32664e-05
-3.21017e-05
6.45439e-05
-3.8143e-05
6.31037e-05
-4.32895e-05
5.95041e-05
-4.72973e-05
5.42109e-05
-4.99685e-05
4.76219e-05
-5.1145e-05
4.00857e-05
-5.07053e-05
3.19159e-05
-4.85647e-05
2.34009e-05
-4.46754e-05
1.48101e-05
-3.90286e-05
6.39699e-06
-3.16564e-05
-1.60114e-06
-2.26325e-05
-8.96631e-06
-1.20723e-05
-1.55025e-05
-1.32399e-07
-2.10305e-05
-2.53958e-05
1.2993e-05
-1.69369e-06
1.63777e-05
-5.54434e-06
3.93293e-05
-1.06432e-05
5.47726e-05
-1.62886e-05
6.42353e-05
-2.193e-05
6.89078e-05
-2.7131e-05
6.97448e-05
-3.15405e-05
6.75132e-05
-3.48715e-05
6.28352e-05
-3.6886e-05
5.62254e-05
-3.73846e-05
4.81205e-05
-3.62009e-05
3.8902e-05
-3.31991e-05
2.8914e-05
-2.82744e-05
1.84762e-05
-2.13564e-05
7.89205e-06
-1.24129e-05
-2.54646e-06
-1.45528e-06
-1.25588e-05
1.14581e-05
-2.18797e-05
2.62189e-05
-3.02633e-05
4.2666e-05
-3.74776e-05
-4.33191e-05
6.05893e-05
-1.5128e-06
1.78905e-05
-4.82647e-06
4.26429e-05
-9.05515e-06
5.90013e-05
-1.35275e-05
6.87076e-05
-1.77243e-05
7.31047e-05
-2.12387e-05
7.32592e-05
-2.37447e-05
7.00192e-05
-2.49745e-05
6.4065e-05
-2.47019e-05
5.59528e-05
-2.27313e-05
4.61499e-05
-1.8891e-05
3.50618e-05
-1.30315e-05
2.30545e-05
-5.02669e-06
1.04714e-05
5.22114e-06
-2.35578e-06
1.77738e-05
-1.50992e-05
3.26488e-05
-2.74337e-05
4.98105e-05
-3.90415e-05
6.91634e-05
-4.96162e-05
9.05449e-05
-5.8859e-05
-6.65004e-05
0.000113726
-1.29493e-06
1.91855e-05
-3.96872e-06
4.53167e-05
-7.16709e-06
6.21997e-05
-1.02577e-05
7.17982e-05
-1.27616e-05
7.56086e-05
-1.431e-05
7.48076e-05
-1.4611e-05
7.03202e-05
-1.34251e-05
6.28791e-05
-1.05468e-05
5.30745e-05
-5.79206e-06
4.13951e-05
1.00956e-06
2.82601e-05
1.00177e-05
1.40464e-05
2.13793e-05
-8.90282e-07
3.52226e-05
-1.61991e-05
5.16462e-05
-3.15228e-05
7.07058e-05
-4.64933e-05
9.23995e-05
-6.07352e-05
0.000116654
-7.38707e-05
0.000143311
-8.55155e-05
-9.53097e-05
0.00017212
-1.03395e-06
2.02194e-05
-2.95048e-06
4.72333e-05
-4.93731e-06
6.41865e-05
-6.41065e-06
7.32715e-05
-6.94081e-06
7.61388e-05
-6.20654e-06
7.40733e-05
-3.96032e-06
6.8074e-05
-1.80847e-09
5.89206e-05
5.8422e-06
4.72305e-05
1.37326e-05
3.35047e-05
2.3828e-05
1.81647e-05
3.62898e-05
1.5847e-06
5.12814e-05
-1.58819e-05
6.89619e-05
-3.38796e-05
8.94729e-05
-5.20338e-05
0.00011292
-6.99402e-05
0.000139349
-8.71644e-05
0.000168724
-0.000103246
0.000200899
-0.000117691
-0.000130016
0.000235606
-7.23273e-07
2.09427e-05
-1.74991e-06
4.82599e-05
-2.32147e-06
6.47581e-05
-1.9123e-06
7.28624e-05
-1.50822e-07
7.43773e-05
3.2274e-06
7.06951e-05
8.41521e-06
6.28862e-05
1.55615e-05
5.17742e-05
2.47932e-05
3.79989e-05
3.62322e-05
2.20657e-05
5.00094e-05
4.38751e-06
6.62731e-05
-1.46789e-05
8.51918e-05
-3.48006e-05
0.00010695
-5.56382e-05
0.000131736
-7.68196e-05
0.000159716
-9.79198e-05
0.000191003
-0.000118452
0.00022562
-0.000137863
0.000263453
-0.000155524
-0.000170778
0.000304215
-3.56512e-07
2.12992e-05
-3.46063e-07
4.82494e-05
7.23202e-07
6.36888e-05
3.30991e-06
7.02757e-05
7.7201e-06
6.99671e-05
1.41537e-05
6.42615e-05
2.27396e-05
5.43003e-05
3.35631e-05
4.09507e-05
4.66892e-05
2.48728e-05
6.2182e-05
6.57284e-06
8.01224e-05
-1.35529e-05
0.000100622
-3.51787e-05
0.000123834
-5.80121e-05
0.000149952
-8.17563e-05
0.000179204
-0.000106072
0.000211827
-0.000130542
0.000248023
-0.000154648
0.000287906
-0.000177746
0.000331423
-0.000199041
-0.000217636
0.000378281
7.16933e-08
2.12275e-05
1.27829e-06
4.70428e-05
4.23219e-06
6.07349e-05
9.31777e-06
6.51901e-05
1.67707e-05
6.25141e-05
2.67219e-05
5.43103e-05
3.923e-05
4.17923e-05
5.43073e-05
2.58734e-05
7.19422e-05
7.23781e-06
9.21206e-05
-1.36055e-05
0.000114846
-3.62783e-05
0.000140162
-6.04942e-05
0.000168168
-8.60185e-05
0.000199037
-0.000112626
0.000233016
-0.00014005
0.000270404
-0.000167931
0.000311517
-0.00019576
0.000356601
-0.00022283
0.000405718
-0.000248158
-0.000270513
0.000458594
5.64653e-07
2.06628e-05
3.1333e-06
4.44742e-05
8.22673e-06
5.56415e-05
1.61504e-05
5.72664e-05
2.70688e-05
5.15958e-05
4.10437e-05
4.03353e-05
5.80631e-05
2.47729e-05
7.80624e-05
5.87407e-06
0.000100944
-1.56442e-05
0.000126599
-3.92599e-05
0.000154925
-6.46042e-05
0.000185856
-9.14257e-05
0.000219393
-0.000119555
0.000255628
-0.000148861
0.000294773
-0.000179196
0.000337165
-0.000210322
0.00038323
-0.000241825
0.000433404
-0.000273005
0.000487946
-0.0003027
-0.000329229
0.000546662
1.12257e-06
1.95403e-05
5.21851e-06
4.03783e-05
1.27064e-05
4.81536e-05
2.38114e-05
4.61614e-05
3.86298e-05
3.67774e-05
5.71613e-05
2.18039e-05
7.93299e-05
2.6043e-06
0.000105
-1.97964e-05
0.000133991
-4.46352e-05
0.00016609
-7.13587e-05
0.000201072
-9.95857e-05
0.000238724
-0.000129079
0.000278887
-0.000159717
0.000321493
-0.000191467
0.000366628
-0.000224331
0.000414572
-0.000258266
0.000465824
-0.000293077
0.000521046
-0.000328227
0.000580829
-0.000362483
-0.000393528
0.000645128
1.74165e-06
1.77986e-05
7.51988e-06
3.46e-05
1.76427e-05
3.80308e-05
3.22561e-05
3.1548e-05
5.13964e-05
1.76371e-05
7.5013e-05
-1.81276e-06
0.000102983
-2.53656e-05
0.000135119
-5.1932e-05
0.000171173
-8.069e-05
0.000210847
-0.000111033
0.000253796
-0.000142534
0.000299646
-0.000174929
0.000348031
-0.000208102
0.000398636
-0.000242073
0.000451283
-0.000276977
0.000506027
-0.00031301
0.000563272
-0.000350322
0.000623843
-0.000388798
0.000688804
-0.000427444
-0.00046319
0.000758466
2.41362e-06
1.5385e-05
1.00082e-05
2.70055e-05
2.29748e-05
2.50642e-05
4.13838e-05
1.31389e-05
6.52214e-05
-6.20056e-06
9.44042e-05
-3.09955e-05
0.000128786
-5.97471e-05
0.000168158
-9.1304e-05
0.000212247
-0.00012478
0.000260713
-0.000159498
0.000313135
-0.000194957
0.00036902
-0.000230814
0.000427804
-0.000266885
0.000488882
-0.000303151
0.000551682
-0.000339777
0.000615784
-0.000377113
0.000681134
-0.000415671
0.000748335
-0.000456
0.000818846
-0.000497954
-0.000539118
0.000894774
3.12592e-06
1.22591e-05
1.26394e-05
1.7492e-05
2.86102e-05
9.09347e-06
5.10361e-05
-9.28696e-06
7.98629e-05
-3.50274e-05
0.000114991
-6.61236e-05
0.000156277
-0.000101033
0.000203531
-0.000138558
0.000256509
-0.000177758
0.000314902
-0.000217891
0.000378318
-0.000258373
0.000446261
-0.000298757
0.000518105
-0.000338729
0.000593071
-0.000378117
0.000670224
-0.00041693
0.000748529
-0.000455418
0.000827033
-0.000494175
0.000905305
-0.000534272
0.000984491
-0.00057714
-0.000626374
0.00107175
3.86268e-06
8.39642e-06
1.5358e-05
5.9966e-06
3.44306e-05
-9.97913e-06
6.10061e-05
-3.58624e-05
9.49945e-05
-6.90158e-05
0.000136291
-0.00010742
0.000184774
-0.000149516
0.000240305
-0.000194089
0.000302722
-0.000240176
0.000371838
-0.000287006
0.000447423
-0.000333958
0.000529196
-0.00038053
0.000616794
-0.000426326
0.00070973
-0.000471054
0.000807347
-0.000514546
0.000908763
-0.000556834
0.00101284
-0.00059825
0.00111803
-0.000639467
0.00122313
-0.000682238
-0.000728975
0.00132573
4.60647e-06
3.78994e-06
1.81028e-05
-7.49973e-06
4.03042e-05
-3.21805e-05
7.10594e-05
-6.66176e-05
0.000110238
-0.000108195
0.000157728
-0.000154909
0.000213429
-0.000205217
0.000277259
-0.000257919
0.00034916
-0.000312076
0.000429101
-0.000366948
0.000517103
-0.00042196
0.000613263
-0.00047669
0.000717804
-0.000530868
0.000831168
-0.000584418
0.000954173
-0.000637551
0.00108829
-0.000690954
0.00123616
-0.000746118
0.00140273
-0.000806032
0.00159785
-0.000877366
-0.000976926
0.00184581
5.34063e-06
-1.55068e-06
2.08139e-05
-2.2973e-05
4.61003e-05
-5.74669e-05
8.09608e-05
-0.000101478
0.000125211
-0.000152445
0.000178709
-0.000208407
0.000241354
-0.000267862
0.000313086
-0.000329652
0.000393898
-0.000392888
0.00048385
-0.000456899
0.000583091
-0.000521202
0.000691901
-0.0005855
0.000810739
-0.000649706
0.000940314
-0.000713992
0.00108166
-0.000778901
0.00123622
-0.00084551
0.00140579
-0.000915683
0.00159226
-0.00099251
0.00179605
-0.00108115
-0.00118933
0.00200845
6.05127e-06
-7.60195e-06
2.34407e-05
-4.03625e-05
5.17073e-05
-8.57334e-05
9.05089e-05
-0.00014028
0.000139583
-0.000201519
0.00019873
-0.000267554
0.000267802
-0.000336934
0.000346704
-0.000408554
0.000435398
-0.000481582
0.000533911
-0.000555412
0.000642349
-0.00062964
0.000760909
-0.00070406
0.000889889
-0.000778685
0.00102968
-0.000853785
0.00118073
-0.00092995
0.0013434
-0.00100818
0.00151768
-0.00108996
0.00170261
-0.00117744
0.00189495
-0.00127349
-0.00138103
0.00208665
6.72899e-06
-1.43309e-05
2.59469e-05
-5.95804e-05
5.70434e-05
-0.00011683
9.95552e-05
-0.000182792
0.000153116
-0.00025508
0.000217432
-0.000331869
0.000292263
-0.000411765
0.000377419
-0.00049371
0.000472752
-0.000576916
0.000578157
-0.000660817
0.000693562
-0.000745045
0.000818922
-0.00082942
0.000954189
-0.000913953
0.00109926
-0.000998859
0.00125389
-0.00108458
0.00141751
-0.00117179
0.00158896
-0.00126142
0.00176613
-0.00135461
0.00194538
-0.00145274
-0.00155683
0.00212117
7.36918e-06
-2.17001e-05
2.8312e-05
-8.05232e-05
6.20602e-05
-0.000150578
0.000108012
-0.000228743
0.000165671
-0.000312739
0.000234617
-0.000400815
0.00031448
-0.000491628
0.000404926
-0.000584156
0.000505645
-0.000677635
0.000616335
-0.000771508
0.00073669
-0.000865399
0.000866368
-0.000959098
0.00100496
-0.00105254
0.00115192
-0.00114582
0.00130647
-0.00123913
0.00146751
-0.00133283
0.00163341
-0.00142732
0.00180188
-0.00152308
0.00196976
-0.00162062
-0.00172018
0.00213311
7.97143e-06
-2.96715e-05
3.05296e-05
-0.000103081
6.67394e-05
-0.000186788
0.000115843
-0.000277847
0.000177195
-0.000374091
0.000250223
-0.000473843
0.000334397
-0.000575802
0.000429213
-0.000678972
0.000534168
-0.00078259
0.000648745
-0.000886085
0.000772393
-0.000989047
0.000904495
-0.0010912
0.00104433
-0.00119238
0.00119104
-0.00129252
0.00134354
-0.00139163
0.00150048
-0.00148976
0.00166013
-0.00158697
0.00182036
-0.00168332
0.0019786
-0.00177886
-0.00187345
0.00213187
8.5382e-06
-3.82097e-05
3.26033e-05
-0.000127146
7.10838e-05
-0.000225268
0.000123052
-0.000329815
0.000187697
-0.000438736
0.000264276
-0.000550421
0.000352084
-0.000663611
0.000450432
-0.00077732
0.000558619
-0.000890777
0.000675919
-0.00100338
0.000801555
-0.00111468
0.000934684
-0.00122433
0.00107436
-0.00133206
0.00121952
-0.00143768
0.00136891
-0.00154103
0.00152113
-0.00164197
0.0016745
-0.00174035
0.00182717
-0.00183598
0.00197699
-0.00192868
-0.00201811
0.00212165
9.07324e-06
-4.7283e-05
3.45419e-05
-0.000152615
7.51073e-05
-0.000265834
0.000129661
-0.000384369
0.000197214
-0.000506288
0.000276843
-0.00063005
0.000367662
-0.00075443
0.000468792
-0.00087845
0.000579344
-0.00100133
0.000698398
-0.00112244
0.000824989
-0.00124128
0.000958095
-0.00135743
0.00109662
-0.00147058
0.00123936
-0.00158043
0.00138504
-0.00168671
0.00153225
-0.00178918
0.00167946
-0.00188755
0.00182502
-0.00198154
0.00196719
-0.00207085
-0.00215501
0.0021041
9.58015e-06
-5.68631e-05
3.6354e-05
-0.000179389
7.88252e-05
-0.000308305
0.000135695
-0.000441239
0.000205786
-0.000576379
0.000287992
-0.000712256
0.000381242
-0.000847681
0.000484478
-0.000981686
0.00059663
-0.00111348
0.00071661
-0.00124242
0.0008433
-0.00136797
0.000975542
-0.00148968
0.00111214
-0.00160717
0.00125183
-0.00172012
0.00139334
-0.00182822
0.00153531
-0.00193115
0.00167636
-0.0020286
0.00181507
-0.00212025
0.00194997
-0.00220575
-0.00228458
0.00207954
1.00612e-05
-6.69244e-05
3.80453e-05
-0.000207373
8.22463e-05
-0.000352506
0.000141167
-0.000500159
0.000213437
-0.000648649
0.000297765
-0.000796584
0.000392899
-0.000942815
0.000497608
-0.00108639
0.000610661
-0.00122653
0.000730825
-0.00136258
0.000856856
-0.001494
0.000987501
-0.00162032
0.0011215
-0.00174117
0.00125758
-0.00185621
0.00139448
-0.00196512
0.00153095
-0.00206761
0.00166572
-0.00216338
0.00179759
-0.00225212
0.00192532
-0.00233348
-0.00240696
0.0020477
1.05169e-05
-7.74413e-05
3.96155e-05
-0.000236472
8.53691e-05
-0.00039826
0.000146074
-0.000560864
0.000220166
-0.000722741
0.000306167
-0.000882585
0.00040265
-0.0010393
0.000508223
-0.00119197
0.000621511
-0.00133982
0.000741156
-0.00148223
0.000865818
-0.00161866
0.000994177
-0.00174868
0.00112494
-0.00187194
0.00125685
-0.00198812
0.00138869
-0.00209696
0.0015193
-0.00219822
0.00164757
-0.00229165
0.00177245
-0.00237699
0.00189293
-0.00245397
-0.0025221
0.00200806
1.09454e-05
-8.83867e-05
4.1058e-05
-0.000266584
8.81797e-05
-0.000445381
0.000150395
-0.00062308
0.000225943
-0.000798289
0.000313162
-0.000969804
0.000410459
-0.0011366
0.000516291
-0.0012978
0.000629156
-0.00145269
0.000747594
-0.00160067
0.000870192
-0.00174126
0.000995589
-0.00187408
0.00112249
-0.00199883
0.00124965
-0.00211529
0.00137594
-0.00222325
0.00150029
-0.00232257
0.00162173
-0.00241308
0.00173936
-0.00249463
0.0018524
-0.00256701
-0.0026298
0.00196011
1.13431e-05
-9.97298e-05
4.23604e-05
-0.000297601
9.06529e-05
-0.000493674
0.000154089
-0.000686516
0.000230711
-0.000874911
0.00031868
-0.00105777
0.000416243
-0.00123416
0.000521721
-0.00140328
0.000633503
-0.00156447
0.000750046
-0.00171721
0.000869885
-0.0018611
0.000991643
-0.00199584
0.00111403
-0.00212122
0.00123587
-0.00223713
0.00135609
-0.00234347
0.00147374
-0.00244021
0.00158797
-0.00252731
0.00169806
-0.00260473
0.0018034
-0.00267234
-0.00272985
0.00190345
1.17046e-05
-0.000111434
4.35049e-05
-0.000329402
9.27539e-05
-0.000542923
0.000157102
-0.000750865
0.000234397
-0.000952206
0.000322626
-0.001146
0.000419891
-0.00133142
0.00052439
-0.00150778
0.000634418
-0.0016745
0.000748373
-0.00183116
0.000864759
-0.00197748
0.000982199
-0.00211328
0.00109944
-0.00223847
0.00121537
-0.00235305
0.001329
-0.0024571
0.00143949
-0.0025507
0.00154613
-0.00263396
0.00164835
-0.00270695
0.0017457
-0.00276969
-0.00282199
0.00183784
1.20234e-05
-0.000123458
4.44702e-05
-0.000361848
9.44415e-05
-0.000592894
0.00015937
-0.000815793
0.000236912
-0.00102975
0.000324892
-0.00123398
0.000421276
-0.00142781
0.000524156
-0.00161066
0.000631754
-0.00178209
0.000742426
-0.00194183
0.000854667
-0.00208972
0.000967123
-0.00222573
0.00107859
-0.00234993
0.00118803
-0.00246249
0.00129456
-0.00256363
0.00139745
-0.00265359
0.00149613
-0.00273264
0.00159018
-0.00280099
0.00167928
-0.00285879
-0.00290599
0.00176327
1.22923e-05
-0.00013575
4.52331e-05
-0.000394789
9.56712e-05
-0.000643332
0.000160824
-0.000880946
0.000238165
-0.00110709
0.000325365
-0.00132118
0.00042027
-0.00152271
0.000520883
-0.00171127
0.000625373
-0.00188658
0.000732073
-0.00204854
0.000839491
-0.00219714
0.000946314
-0.00233255
0.00105141
-0.00245503
0.00115382
-0.0025649
0.00125277
-0.00266258
0.00134766
-0.00274848
0.00143804
-0.00282302
0.00152362
-0.00288657
0.00160425
-0.00293942
-0.00298164
0.00167991
1.25038e-05
-0.000148254
4.57698e-05
-0.000428055
9.63981e-05
-0.00069396
0.000161398
-0.000945946
0.000238068
-0.00118376
0.000323941
-0.00140706
0.000416757
-0.00161553
0.000514453
-0.00180896
0.000615162
-0.00198729
0.000717218
-0.00215059
0.00081916
-0.00229908
0.000919733
-0.00243313
0.00101789
-0.00255318
0.00111277
-0.00265978
0.00120371
-0.00275353
0.00129024
-0.00283501
0.00137204
-0.00290482
0.00144894
-0.00296348
0.00152092
-0.0030114
-0.00304881
0.00158809
1.26506e-05
-0.000160905
4.60573e-05
-0.000461462
9.65795e-05
-0.000744482
0.000161028
-0.00101039
0.000236541
-0.00125927
0.000320529
-0.00149104
0.000410645
-0.00170564
0.000504778
-0.0019031
0.000601049
-0.00208356
0.000697815
-0.00224736
0.000793664
-0.00239493
0.000887416
-0.00252688
0.000978116
-0.00264388
0.00106502
-0.00274669
0.00114759
-0.0028361
0.00122546
-0.00291288
0.00129845
-0.0029778
0.0013665
-0.00303153
0.00142971
-0.00307461
-0.0031074
0.0014883
1.27259e-05
-0.00017363
4.60744e-05
-0.000494811
9.6177e-05
-0.000794585
0.00015966
-0.00107388
0.000233519
-0.00133313
0.000315057
-0.00157258
0.000401866
-0.00179245
0.000491807
-0.00199304
0.000583011
-0.00217477
0.000673875
-0.00233822
0.000763058
-0.00248412
0.000849471
-0.00261329
0.000932265
-0.00272667
0.00101081
-0.00282524
0.0010847
-0.00290998
0.00115368
-0.00298187
0.00121769
-0.00304181
0.00127679
-0.00309063
0.00133117
-0.003129
-0.00315738
0.00138115
1.27234e-05
-0.000186354
4.58025e-05
-0.00052789
9.51585e-05
-0.000843941
0.000157251
-0.00113597
0.000228951
-0.00140483
0.000307481
-0.00165111
0.000390388
-0.00187536
0.000475531
-0.00207818
0.000561072
-0.00226031
0.000645471
-0.00242262
0.00072747
-0.00256612
0.000806087
-0.00269191
0.000880587
-0.00280117
0.000950468
-0.00289512
0.00101543
-0.00297494
0.00107536
-0.00304179
0.00113029
-0.00309674
0.00118039
-0.00314072
0.00122594
-0.00317455
-0.00319877
0.00126733
1.26404e-05
-0.000198994
4.52314e-05
-0.000560481
9.35054e-05
-0.000892215
0.000153778
-0.00119624
0.000222819
-0.00147387
0.00029779
-0.00172608
0.000376223
-0.00195379
0.000455996
-0.00215795
0.000535324
-0.00233964
0.000612745
-0.00250004
0.000687105
-0.00264048
0.000757533
-0.00276234
0.000823421
-0.00286706
0.00088439
-0.00295609
0.000940263
-0.00303082
0.000991035
-0.00309257
0.00103685
-0.00314255
0.00107796
-0.00318183
0.00111472
-0.00321131
-0.00323165
0.0011476
1.24681e-05
-0.000211462
4.43402e-05
-0.000592353
9.11875e-05
-0.000939062
0.000149207
-0.00125426
0.000215092
-0.00153975
0.000285973
-0.00179696
0.000359387
-0.00202721
0.000433256
-0.00223182
0.000505869
-0.00241225
0.000575859
-0.00257003
0.000642188
-0.0027068
0.000704107
-0.00282426
0.000761134
-0.00292409
0.000813016
-0.00300797
0.000859694
-0.0030775
0.000901272
-0.00313414
0.000937983
-0.00317926
0.000970165
-0.00321401
0.00099824
-0.00323939
-0.00325611
0.00102271
1.22055e-05
-0.000223668
4.3126e-05
-0.000623273
8.82022e-05
-0.000984139
0.000143542
-0.0013096
0.000205791
-0.001602
0.000272075
-0.00186325
0.000339963
-0.00209509
0.000407442
-0.0022993
0.000472894
-0.0024777
0.000535064
-0.0026322
0.000593037
-0.00276478
0.000646194
-0.00287741
0.000694181
-0.00297208
0.000736868
-0.00305066
0.000774309
-0.00311494
0.000806708
-0.00316654
0.000834384
-0.00320693
0.000857742
-0.00323737
0.000877257
-0.0032589
-0.00327232
0.000893461
1.18506e-05
-0.000235518
4.1585e-05
-0.000653008
8.45487e-05
-0.0010271
0.000136793
-0.00136185
0.000194946
-0.00166016
0.000256157
-0.00192446
0.000318053
-0.00215699
0.000378708
-0.00235996
0.000436614
-0.00253561
0.00049064
-0.00268623
0.000540001
-0.00281414
0.000584212
-0.00292162
0.000623047
-0.00301091
0.000656492
-0.0030841
0.000684709
-0.00314315
0.000707994
-0.00318983
0.00072674
-0.00322568
0.000741412
-0.00325205
0.000752526
-0.00327002
-0.00328043
0.000760634
1.14024e-05
-0.000246921
3.97175e-05
-0.000681323
8.02345e-05
-0.00106762
0.000128982
-0.00141059
0.000182606
-0.00171378
0.000238304
-0.00198016
0.00029379
-0.00221248
0.000347243
-0.00241341
0.00039728
-0.00258564
0.000442905
-0.00273185
0.000483467
-0.0028547
0.000518615
-0.00295677
0.000548245
-0.00304054
0.000572458
-0.00310832
0.000591514
-0.00316221
0.000605789
-0.0032041
0.000615745
-0.00323563
0.000621895
-0.0032582
0.000624786
-0.00327291
-0.00328062
0.000624985
1.08609e-05
-0.000257782
3.75276e-05
-0.000707989
7.52746e-05
-0.00110537
0.000120146
-0.00145547
0.000168836
-0.00176247
0.000218625
-0.00202995
0.000267331
-0.00226118
0.000313263
-0.00245934
0.000355172
-0.00262755
0.000392203
-0.00276888
0.000423845
-0.00288634
0.000449875
-0.0029828
0.000470308
-0.00306097
0.00048535
-0.00312336
0.000495348
-0.00317221
0.000500754
-0.00320951
0.000502085
-0.00323697
0.000499896
-0.00325601
0.000494758
-0.00326777
-0.00327311
0.000487244
1.02274e-05
-0.000268009
3.50231e-05
-0.000732785
6.96915e-05
-0.00114003
0.000110331
-0.0014961
0.000153718
-0.00180586
0.000197244
-0.00207347
0.000238856
-0.00230279
0.000277005
-0.00249749
0.00031059
-0.00266114
0.000338901
-0.0027972
0.000361564
-0.002909
0.000378481
-0.00299972
0.000389778
-0.00307227
0.000395755
-0.00312934
0.000396838
-0.00317329
0.000393542
-0.00320621
0.000386434
-0.00322986
0.000376101
-0.00324567
0.000363134
-0.0032548
-0.00325808
0.000348106
9.50392e-06
-0.000277513
3.22152e-05
-0.000755496
6.3514e-05
-0.00117133
9.95929e-05
-0.00153218
0.000137346
-0.00184361
0.000174302
-0.00211043
0.000208558
-0.00233705
0.000238722
-0.00252766
0.000263849
-0.00268626
0.000283377
-0.00281672
0.000297063
-0.00292269
0.000304928
-0.00300758
0.000307198
-0.00307454
0.000304256
-0.00312639
0.000296597
-0.00316563
0.00028479
-0.00319441
0.000269441
-0.00321451
0.000251167
-0.0032274
0.000230573
-0.00323421
-0.00323574
0.000208232
8.6937e-06
-0.000286207
2.91179e-05
-0.000775921
5.67764e-05
-0.00119899
8.79966e-05
-0.0015634
0.000119824
-0.00187544
0.000149949
-0.00214055
0.000176641
-0.00236374
0.000198678
-0.00254969
0.000215274
-0.00270286
0.000226012
-0.00282746
0.000230779
-0.00292746
0.000229704
-0.00300651
0.000223101
-0.00306794
0.000211425
-0.00311472
0.000195226
-0.00314944
0.000175117
-0.0031743
0.000151737
-0.00319113
0.000125728
-0.00320139
9.77073e-05
-0.00320619
-0.00320629
6.82511e-05
7.80058e-06
-0.000294007
2.5748e-05
-0.000793868
4.95177e-05
-0.00122276
7.56128e-05
-0.0015895
0.000101262
-0.00190109
0.000124345
-0.00216364
0.000143319
-0.00238272
0.000157139
-0.00256351
0.000165185
-0.00271091
0.000167184
-0.00282946
0.000163143
-0.00292342
0.000153288
-0.00299665
0.000138008
-0.00305266
0.000117816
-0.00309453
9.33055e-05
-0.00312492
6.51205e-05
-0.00314611
3.39275e-05
-0.00315994
3.8842e-07
-0.00316785
-3.48619e-05
-0.00317094
-0.0031699
-7.12426e-05
6.82921e-06
-0.000300837
2.21243e-05
-0.000809163
4.17812e-05
-0.00124242
6.25177e-05
-0.00161024
8.17775e-05
-0.00192035
9.76528e-05
-0.00217951
0.000108803
-0.00239387
0.00011437
-0.00256908
0.0001139
-0.00271044
0.000107259
-0.00282282
9.45678e-05
-0.00291073
7.61364e-05
-0.00297822
5.24167e-05
-0.00302894
2.39614e-05
-0.00306607
-8.60787e-06
-0.00309236
-4.46257e-05
-0.00311009
-8.3407e-05
-0.00312115
-0.00012427
-0.00312699
-0.000166561
-0.00312865
-0.00312678
-0.000209683
5.78489e-06
-0.000306621
1.82679e-05
-0.000821646
3.36128e-05
-0.00125776
4.87912e-05
-0.00162541
6.14908e-05
-0.00193305
7.00366e-05
-0.00218806
7.33037e-05
-0.00239713
7.06284e-05
-0.00256641
6.17208e-05
-0.00270153
4.65841e-05
-0.00280768
2.54418e-05
-0.00288958
-1.32176e-06
-0.00295146
-3.32087e-05
-0.00299705
-6.96417e-05
-0.00302964
-0.000109988
-0.00305201
-0.000153575
-0.00306651
-0.00019971
-0.00307502
-0.000247693
-0.003079
-0.000296842
-0.0030795
-0.00307709
-0.00034653
4.67349e-06
-0.000311295
1.42013e-05
-0.000831174
2.50618e-05
-0.00126862
3.4516e-05
-0.00163487
4.05235e-05
-0.00193905
4.166e-05
-0.00218919
3.70271e-05
-0.0023925
2.6159e-05
-0.00255554
8.93133e-06
-0.0026843
-1.45218e-05
-0.00278423
-4.38808e-05
-0.00286022
-7.86988e-05
-0.00291664
-0.000118446
-0.0029573
-0.000162537
-0.00298555
-0.000210347
-0.0030042
-0.000261216
-0.00301564
-0.000314454
-0.00302178
-0.000369349
-0.00302411
-0.000425183
-0.00302367
-0.003021
-0.000481275
3.50153e-06
-0.000314796
9.94896e-06
-0.000837621
1.61793e-05
-0.00127485
1.97776e-05
-0.00163847
1.89985e-05
-0.00193827
1.26842e-05
-0.00218288
1.71212e-07
-0.00237999
-1.88059e-05
-0.00253656
-4.4207e-05
-0.0026589
-7.57711e-05
-0.00275267
-0.000113088
-0.00282291
-0.000155658
-0.00287407
-0.00020293
-0.00291003
-0.000254327
-0.00293415
-0.000309252
-0.00294927
-0.00036708
-0.00295781
-0.000427147
-0.00296171
-0.000488739
-0.00296252
-0.000551091
-0.00296131
-0.00295865
-0.000613438
2.27608e-06
-0.000317072
5.53685e-06
-0.000840882
7.01969e-06
-0.00127634
4.66382e-06
-0.00163611
-2.95994e-06
-0.00193065
-1.67308e-05
-0.00216911
-3.70721e-05
-0.00235965
-6.40481e-05
-0.00250959
-9.74564e-05
-0.00262549
-0.000136912
-0.00271321
-0.000181919
-0.0027779
-0.000231927
-0.00282406
-0.000286371
-0.00285559
-0.000344695
-0.00287583
-0.000406348
-0.00288762
-0.000470769
-0.00289339
-0.000537351
-0.00289513
-0.000605404
-0.00289447
-0.000674118
-0.0028926
-0.00289018
-0.000742592
1.00496e-06
-0.000318077
9.92923e-07
-0.00084087
-2.36028e-06
-0.00127298
-1.07342e-05
-0.00162774
-2.5225e-05
-0.00191616
-4.64249e-05
-0.00214791
-7.45149e-05
-0.00233156
-0.00010936
-0.00247474
-0.000150599
-0.00258425
-0.000197726
-0.00266608
-0.000250161
-0.00272547
-0.000307302
-0.00276692
-0.000368572
-0.00279432
-0.000433435
-0.00281096
-0.0005014
-0.00281966
-0.000571997
-0.00282279
-0.000644723
-0.0028224
-0.000718965
-0.00282022
-0.000793893
-0.00281767
-0.00281568
-0.000868397
-3.03333e-07
-0.000317774
-3.65288e-06
-0.000837521
-1.19003e-05
-0.00126474
-2.63211e-05
-0.00161332
-4.76657e-05
-0.00189482
-7.62346e-05
-0.00211934
-0.000111968
-0.00229582
-0.000154536
-0.00243217
-0.000203426
-0.00253536
-0.000258016
-0.00261149
-0.000317643
-0.00266584
-0.000381652
-0.00270291
-0.00044944
-0.00272653
-0.000520483
-0.00273992
-0.000594347
-0.00274579
-0.000670665
-0.00274647
-0.000749093
-0.00274398
-0.000829188
-0.00274013
-0.000910187
-0.00273667
-0.00273517
-0.000990691
-1.63949e-06
-0.000316135
-8.36844e-06
-0.000830792
-2.15366e-05
-0.00125157
-4.1997e-05
-0.00159286
-7.01451e-05
-0.00186667
-0.000105989
-0.0020835
-0.000149233
-0.00225258
-0.000199363
-0.00238204
-0.000255723
-0.002479
-0.000317586
-0.00254963
-0.00038421
-0.00259921
-0.000454884
-0.00263224
-0.000528968
-0.00265245
-0.000605925
-0.00266296
-0.000685345
-0.00266637
-0.000766948
-0.00266487
-0.00085057
-0.00266035
-0.000936066
-0.00265463
-0.00102295
-0.00264979
-0.00264836
-0.00110977
-2.99351e-06
-0.000313141
-1.31196e-05
-0.000820666
-3.1202e-05
-0.00123349
-5.76566e-05
-0.0015664
-9.25193e-05
-0.0018318
-0.000135508
-0.00204051
-0.000186099
-0.00220199
-0.000243606
-0.00232454
-0.000307247
-0.00241536
-0.000376203
-0.00248067
-0.000449671
-0.00252575
-0.00052689
-0.00255502
-0.000607181
-0.00257215
-0.000689969
-0.00258017
-0.000774813
-0.00258153
-0.000861447
-0.00257824
-0.00094983
-0.00257197
-0.00104019
-0.00256427
-0.00113271
-0.00255727
-0.00255369
-0.00122738
-4.35483e-06
-0.000308786
-1.78709e-05
-0.00080715
-4.08266e-05
-0.00121053
-7.31911e-05
-0.00153404
-0.000114638
-0.00179036
-0.0001646
-0.00199055
-0.000222336
-0.00214425
-0.000287001
-0.00225987
-0.000357704
-0.00234466
-0.000433561
-0.00240482
-0.00051373
-0.00244558
-0.000597437
-0.00247131
-0.000683996
-0.0024856
-0.000772819
-0.00249135
-0.000863442
-0.00249091
-0.000955561
-0.00248612
-0.00104913
-0.0024784
-0.00114465
-0.00246875
-0.00124373
-0.00245819
-0.00245024