/*--------------------------------*- C++ -*----------------------------------*\
  =========                 |
  \\      /  F ield         | OpenFOAM: The Open Source CFD Toolbox
   \\    /   O peration     | Website:  https://openfoam.org
    \\  /    A nd           | Version:  6.0
     \\/     M anipulation  |
\*---------------------------------------------------------------------------*/
FoamFile
{
    version     2.0;
    format      ascii;
    class       volScalarField;
    location    "0.4";
    object      p;
}
// * * * * * * * * * * * * * * * * * * * * * * * * * * * * * * * * * * * * * //

dimensions      [0 2 -2 0 0 0 0];

internalField   nonuniform List<scalar> 
800
(
-3.01793e-06
-0.00218656
-0.00534605
-0.00843529
-0.0107925
-0.0121011
-0.0122605
-0.0112886
-0.00925562
-0.00624592
-0.0023371
0.00240896
0.00794903
0.0142583
0.0213289
0.0291681
0.0377966
0.0472461
0.0575569
0.0687742
0.0809427
0.0940997
0.108265
0.123428
0.139536
0.156471
0.174036
0.191939
0.209776
0.227035
0.243103
0.257307
0.268968
0.277489
0.28246
0.283782
0.281787
0.277352
0.272004
0.267935
0.00216599
-7.87256e-05
-0.00257727
-0.00480666
-0.00643842
-0.00724319
-0.00711934
-0.00605001
-0.00405903
-0.00118552
0.0025302
0.00705411
0.0123618
0.0184394
0.0252837
0.0329008
0.0413058
0.0505208
0.0605728
0.0714908
0.0833006
0.096019
0.109645
0.124151
0.139468
0.155472
0.171972
0.188694
0.205276
0.221264
0.236131
0.249305
0.260223
0.268405
0.273541
0.275585
0.274843
0.272003
0.267958
0.263892
0.00544452
0.0023179
-0.000272022
-0.00220744
-0.00349511
-0.00401281
-0.003698
-0.00254246
-0.000558241
0.00223616
0.00582189
0.0101833
0.0153098
0.0211959
0.0278423
0.0352549
0.0434451
0.0524284
0.0622232
0.0728485
0.0843199
0.0966444
0.109814
0.123795
0.138521
0.153876
0.169684
0.185698
0.201588
0.216942
0.231277
0.244066
0.254785
0.262978
0.268337
0.270783
0.27055
0.268154
0.263949
0.258451
0.00878961
0.00442674
0.0013452
-0.000639752
-0.00183715
-0.00222858
-0.00180552
-0.000589497
0.00139958
0.00414818
0.00764752
0.0118925
0.016881
0.0226131
0.0290912
0.0363203
0.0443083
0.0530654
0.0626043
0.0729378
0.0840771
0.0960272
0.108781
0.122314
0.136569
0.151453
0.166815
0.182439
0.198029
0.213205
0.227506
0.240413
0.251387
0.259935
0.26568
0.26845
0.268372
0.26582
0.260753
0.253321
0.0113561
0.00570876
0.00202128
-0.000138107
-0.00134989
-0.00168962
-0.00120197
5.82112e-05
0.00205765
0.00478191
0.00822678
0.0123928
0.0172823
0.0228971
0.0292391
0.03631
0.0441126
0.0526518
0.0619341
0.0719683
0.0827634
0.0943262
0.106657
0.119744
0.133553
0.148018
0.163025
0.178397
0.193879
0.209125
0.223694
0.237061
0.248651
0.257895
0.264305
0.267572
0.267688
0.26489
0.258837
0.249493
0.0124975
0.00561552
0.00130518
-0.00107286
-0.0023416
-0.00265998
-0.00212092
-0.000810775
0.00122283
0.00396168
0.00740222
0.0115464
0.0163964
0.0219524
0.0282117
0.0351703
0.0428241
0.0511707
0.060211
0.0699496
0.0803954
0.09156
0.103455
0.116087
0.12945
0.143514
0.15821
0.173412
0.188915
0.204415
0.219496
0.233627
0.246186
0.256507
0.263955
0.268037
0.268572
0.265649
0.258675
0.247529
0.0116892
0.00364877
-0.0012525
-0.00383632
-0.00514897
-0.00542612
-0.00480459
-0.00339958
-0.00127272
0.00155223
0.00506909
0.00927712
0.0141744
0.0197548
0.0260081
0.0329215
0.040482
0.0486789
0.0575067
0.0669668
0.0770688
0.0878313
0.0992797
0.111444
0.12435
0.13801
0.15241
0.167482
0.183082
0.198965
0.214751
0.229915
0.243788
0.255597
0.26453
0.269869
0.271203
0.26843
0.260697
0.247833
0.00847413
-0.000656023
-0.00608253
-0.00880089
-0.010078
-0.0102275
-0.00942979
-0.00782798
-0.00549798
-0.00247082
0.00124174
0.00563263
0.010692
0.0164042
0.0227486
0.0297016
0.0372398
0.0453438
0.0540019
0.0632127
0.0729879
0.0833541
0.0943528
0.106038
0.118473
0.131716
0.14581
0.160756
0.176485
0.192824
0.209451
0.225866
0.241373
0.255093
0.266024
0.273175
0.27584
0.273646
0.265397
0.250852
0.00241715
-0.00776543
-0.0136215
-0.016333
-0.0174101
-0.017258
-0.016107
-0.0141314
-0.0114236
-0.00802397
-0.00395253
0.000774641
0.0061373
0.0121085
0.0186559
0.0257446
0.0333414
0.0414187
0.0499597
0.0589616
0.0684394
0.0784291
0.0889888
0.100199
0.112157
0.124971
0.138744
0.153551
0.169409
0.186232
0.203782
0.221615
0.239039
0.255094
0.268586
0.278215
0.2829
0.281876
0.273455
0.257228
-0.00694577
-0.0181927
-0.0243367
-0.0267961
-0.0273879
-0.0266407
-0.0248505
-0.0222312
-0.0188952
-0.0148947
-0.0102587
-0.00501285
0.000812424
0.00717974
0.0140465
0.0213687
0.0291055
0.0372242
0.045705
0.0545461
0.0637679
0.0734167
0.0835676
0.0943257
0.105824
0.118216
0.131666
0.146326
0.162302
0.179613
0.198128
0.217497
0.237078
0.255878
0.272534
0.285419
0.292993
0.293943
0.28584
0.267927
-0.0201868
-0.0325672
-0.0387636
-0.0405539
-0.0401932
-0.0383918
-0.0355378
-0.0318958
-0.0276018
-0.0227181
-0.0172798
-0.0113181
-0.00486874
0.00202542
0.0093169
0.0169577
0.0249045
0.0331239
0.0415977
0.0503282
0.0593434
0.0687013
0.0784942
0.0888504
0.0999349
0.111945
0.1251
0.139626
0.155723
0.173524
0.193029
0.21402
0.235963
0.257899
0.278357
0.295398
0.306954
0.310973
0.303929
0.284383
-0.0381286
-0.0517487
-0.0575596
-0.0579698
-0.0559136
-0.0523731
-0.0478607
-0.0427
-0.0370456
-0.0309598
-0.0244722
-0.0176072
-0.0103945
-0.00287162
0.00491869
0.0129333
0.0211338
0.0294926
0.0379984
0.0466619
0.0555214
0.0646482
0.0741511
0.0841803
0.094929
0.106632
0.119561
0.134009
0.150267
0.168586
0.189114
0.211805
0.236296
0.261753
0.286698
0.308944
0.325868
0.334481
0.329667
0.30873
-0.0621207
-0.0770154
-0.0815716
-0.0793882
-0.0744815
-0.0682202
-0.0612615
-0.0539771
-0.0465146
-0.0389074
-0.0311522
-0.0232426
-0.0151821
-0.00698544
0.00132359
0.00971821
0.0181746
0.0266783
0.0352305
0.0438546
0.052602
0.0615581
0.0708482
0.0806421
0.091158
0.102664
0.115474
0.129943
0.146449
0.16536
0.186983
0.211475
0.238711
0.268092
0.298279
0.326983
0.351075
0.36646
0.365809
0.344206
-0.0946092
-0.110373
-0.11189
-0.105055
-0.0955531
-0.0852269
-0.0748457
-0.0647664
-0.0550616
-0.0456746
-0.0365191
-0.0275187
-0.0186197
-0.00979145
-0.00102105
0.00769394
0.0163537
0.0249639
0.0335431
0.0421303
0.0507916
0.0596271
0.0687777
0.0784307
0.0888256
0.100258
0.113081
0.127704
0.144583
0.164202
0.187034
0.213467
0.24368
0.277431
0.313724
0.350417
0.384076
0.409439
0.41629
0.395971
-0.140336
-0.155027
-0.149791
-0.134875
-0.118253
-0.102144
-0.0872509
-0.0737482
-0.0614912
-0.0502247
-0.0397004
-0.0297167
-0.0201248
-0.0108227
-0.00174409
0.00715389
0.0159023
0.0245311
0.0330784
0.0415993
0.0501744
0.0589172
0.0679819
0.0775707
0.0879408
0.0994112
0.112368
0.12727
0.144646
0.165095
0.18926
0.217785
0.251219
0.289817
0.333183
0.379728
0.426175
0.466348
0.486693
0.472628
-0.208611
-0.215944
-0.196426
-0.16795
-0.140792
-0.116929
-0.0965265
-0.0792248
-0.0644077
-0.0514541
-0.0398492
-0.0292026
-0.0192334
-0.00974789
-0.000615822
0.00825043
0.0169138
0.025427
0.0338456
0.0422379
0.0506954
0.059341
0.0683386
0.0779009
0.0882982
0.0998681
0.113025
0.128269
0.146201
0.167527
0.19307
0.223756
0.260569
0.304419
0.355833
0.414386
0.477837
0.539963
0.5844
0.588333
-0.31763
-0.300165
-0.252231
-0.202232
-0.160325
-0.126777
-0.100314
-0.0793872
-0.0625084
-0.0484744
-0.0363945
-0.0256379
-0.0157718
-0.00650693
0.00234671
0.0109144
0.0192827
0.0275194
0.0356892
0.0438666
0.0521471
0.060657
0.0695633
0.079083
0.0894934
0.101143
0.114467
0.130001
0.148403
0.170486
0.197249
0.22992
0.26999
0.319205
0.379436
0.452289
0.53793
0.631902
0.71834
0.766128
-0.509708
-0.416414
-0.313275
-0.231939
-0.171511
-0.127465
-0.0956703
-0.0723857
-0.054745
-0.0407806
-0.0291809
-0.0190814
-0.00992251
-0.00134824
0.00686472
0.0148565
0.0227183
0.0305173
0.0383144
0.0461792
0.0542015
0.062502
0.0712426
0.0806357
0.0909564
0.102554
0.11587
0.131458
0.150014
0.172426
0.199837
0.233755
0.276198
0.329896
0.398557
0.486976
0.599786
0.738502
0.900535
1.05523
-0.900371
-0.568583
-0.351702
-0.232107
-0.156817
-0.107474
-0.0753455
-0.0538024
-0.038487
-0.0268383
-0.0173367
-0.00905871
-0.00144639
0.00582979
0.0129597
0.0200503
0.0271619
0.0343341
0.0416034
0.0490171
0.0566448
0.0645881
0.0729906
0.0820474
0.0920155
0.103227
0.116105
0.131186
0.149154
0.170894
0.197574
0.2308
0.272868
0.327228
0.39936
0.498044
0.635655
0.831562
1.13901
1.57649
-1.60888
-0.714153
-0.310969
-0.165768
-0.0955597
-0.0559186
-0.0337765
-0.0208708
-0.0124308
-0.00610138
-0.000697381
0.00441254
0.0095597
0.0149034
0.0205059
0.0263774
0.0325035
0.038864
0.0454464
0.0522562
0.059326
0.0667235
0.0745591
0.082995
0.0922531
0.102626
0.114491
0.128327
0.144739
0.164507
0.188647
0.218546
0.256211
0.304803
0.369915
0.462394
0.603767
0.847068
1.36695
2.38056
)
;

boundaryField
{
    movingWall
    {
        type            zeroGradient;
    }
    fixedWalls
    {
        type            zeroGradient;
    }
    frontAndBack
    {
        type            empty;
    }
}


// ************************************************************************* //
