/*--------------------------------*- C++ -*----------------------------------*\
  =========                 |
  \\      /  F ield         | OpenFOAM: The Open Source CFD Toolbox
   \\    /   O peration     | Website:  https://openfoam.org
    \\  /    A nd           | Version:  6.0
     \\/     M anipulation  |
\*---------------------------------------------------------------------------*/
FoamFile
{
    version     2.0;
    format      ascii;
    class       surfaceScalarField;
    location    "0.4";
    object      phi;
}
// * * * * * * * * * * * * * * * * * * * * * * * * * * * * * * * * * * * * * //

dimensions      [0 3 -1 0 0 0 0];

internalField   nonuniform List<scalar> 
1540
(
1.00713e-08
-1.00399e-08
-3.39258e-10
1.04118e-08
-3.6921e-08
3.65813e-08
-9.4538e-08
5.76163e-08
-1.66419e-07
7.18811e-08
-2.465e-07
8.00812e-08
-3.3009e-07
8.35895e-08
-4.13928e-07
8.3838e-08
-4.9596e-07
8.20318e-08
-5.75037e-07
7.90763e-08
-6.50639e-07
7.56027e-08
-7.22662e-07
7.20221e-08
-7.91241e-07
6.85797e-08
-8.56641e-07
6.53992e-08
-9.19154e-07
6.25131e-08
-9.79036e-07
5.98819e-08
-1.03644e-06
5.74028e-08
-1.09135e-06
5.49129e-08
-1.14354e-06
5.21886e-08
-1.19249e-06
4.89448e-08
-1.23732e-06
4.48358e-08
-1.27678e-06
3.94613e-08
-1.30916e-06
3.23799e-08
-1.3323e-06
2.31348e-08
-1.34359e-06
1.12944e-08
-1.34011e-06
-3.48714e-09
-1.31872e-06
-2.13889e-08
-1.2764e-06
-4.23212e-08
-1.21058e-06
-6.58111e-08
-1.11969e-06
-9.08897e-08
-1.00369e-06
-1.16006e-07
-8.64688e-07
-1.39e-07
-7.07511e-07
-1.57177e-07
-5.40008e-07
-1.67503e-07
-3.73058e-07
-1.66949e-07
-2.20072e-07
-1.52986e-07
-9.58151e-08
-1.24256e-07
-1.44636e-08
-8.13514e-08
1.42925e-08
-2.87562e-08
1.42925e-08
-1.01929e-08
1.54299e-10
-7.01868e-08
7.04055e-08
-1.83553e-07
1.49946e-07
-3.41446e-07
2.15508e-07
-5.31332e-07
2.61767e-07
-7.40892e-07
2.89642e-07
-9.59791e-07
3.02489e-07
-1.18025e-06
3.04294e-07
-1.39692e-06
2.987e-07
-1.60647e-06
2.8863e-07
-1.80711e-06
2.76246e-07
-1.99812e-06
2.63031e-07
-2.17946e-06
2.49922e-07
-2.35149e-06
2.37422e-07
-2.51467e-06
2.25699e-07
-2.66943e-06
2.14646e-07
-2.81595e-06
2.03914e-07
-2.95397e-06
1.92941e-07
-3.08273e-06
1.8095e-07
-3.20076e-06
1.66967e-07
-3.30575e-06
1.49833e-07
-3.39453e-06
1.28237e-07
-3.46293e-06
1.00777e-07
-3.50584e-06
6.60514e-08
-3.51736e-06
2.28056e-08
-3.49097e-06
-2.98746e-08
-3.42005e-06
-9.2308e-08
-3.29846e-06
-1.63915e-07
-3.12138e-06
-2.42891e-07
-2.88637e-06
-3.25895e-07
-2.59454e-06
-4.0784e-07
-2.25168e-06
-4.81862e-07
-1.86926e-06
-5.39589e-07
-1.46497e-06
-5.718e-07
-1.06238e-06
-5.69542e-07
-6.89609e-07
-5.25753e-07
-3.76465e-07
-4.37401e-07
-1.49791e-07
-3.08025e-07
-2.63453e-08
-1.52202e-07
-1.20527e-08
-3.9106e-08
3.92598e-08
-1.59014e-07
1.90313e-07
-3.52355e-07
3.43287e-07
-6.04612e-07
4.67765e-07
-8.98764e-07
5.55918e-07
-1.21849e-06
6.09365e-07
-1.54994e-06
6.33942e-07
-1.88244e-06
6.36798e-07
-2.20843e-06
6.24685e-07
-2.52301e-06
6.03206e-07
-2.82339e-06
5.76627e-07
-3.10832e-06
5.47958e-07
-3.37754e-06
5.19148e-07
-3.6314e-06
4.91282e-07
-3.87045e-06
4.6475e-07
-4.09517e-06
4.39365e-07
-4.30571e-06
4.14447e-07
-4.50163e-06
3.88869e-07
-4.68178e-06
3.61091e-07
-4.844e-06
3.29193e-07
-4.98509e-06
2.90922e-07
-5.10063e-06
2.43772e-07
-5.18496e-06
1.8511e-07
-5.23127e-06
1.12365e-07
-5.23177e-06
2.33054e-08
-5.17805e-06
-8.35971e-08
-5.06165e-06
-2.08706e-07
-4.87488e-06
-3.50681e-07
-4.61188e-06
-5.059e-07
-4.26984e-06
-6.67931e-07
-3.85052e-06
-8.27159e-07
-3.36163e-06
-9.70751e-07
-2.81808e-06
-1.08314e-06
-2.24264e-06
-1.14724e-06
-1.6657e-06
-1.14648e-06
-1.12359e-06
-1.06787e-06
-6.55129e-07
-9.05858e-07
-2.96442e-07
-6.66711e-07
-7.42366e-08
-3.74408e-07
-8.62893e-08
-6.73612e-08
1.0662e-07
-2.47975e-07
3.70926e-07
-5.20364e-07
6.15676e-07
-8.61781e-07
8.09182e-07
-1.24995e-06
9.44085e-07
-1.66495e-06
1.02436e-06
-2.09036e-06
1.05936e-06
-2.51365e-06
1.06008e-06
-2.92592e-06
1.03696e-06
-3.32143e-06
9.98717e-07
-3.6969e-06
9.52094e-07
-4.05085e-06
9.01912e-07
-4.38304e-06
8.51333e-07
-4.6939e-06
8.02145e-07
-4.98417e-06
7.55012e-07
-5.25446e-06
7.09664e-07
-5.50504e-06
6.65027e-07
-5.7355e-06
6.19323e-07
-5.94454e-06
5.70129e-07
-6.12979e-06
5.14451e-07
-6.28768e-06
4.48811e-07
-6.4133e-06
3.69384e-07
-6.50038e-06
2.72194e-07
-6.54143e-06
1.53412e-07
-6.52788e-06
9.75662e-09
-6.45051e-06
-1.60966e-07
-6.30001e-06
-3.59203e-07
-6.06782e-06
-5.82872e-07
-5.74719e-06
-8.26535e-07
-5.33452e-06
-1.0806e-06
-4.83092e-06
-1.33075e-06
-4.24387e-06
-1.55781e-06
-3.58872e-06
-1.73829e-06
-2.88983e-06
-1.84613e-06
-2.18074e-06
-1.85556e-06
-1.50294e-06
-1.74567e-06
-9.02744e-07
-1.50606e-06
-4.26443e-07
-1.14301e-06
-1.14704e-07
-6.86147e-07
-2.00993e-07
-9.32417e-08
1.99861e-07
-3.3152e-07
6.09204e-07
-6.78734e-07
9.62889e-07
-1.10243e-06
1.23288e-06
-1.57417e-06
1.41582e-06
-2.07027e-06
1.52046e-06
-2.5721e-06
1.56119e-06
-3.06591e-06
1.55389e-06
-3.54222e-06
1.51326e-06
-3.99507e-06
1.45157e-06
-4.42124e-06
1.37827e-06
-4.8195e-06
1.30017e-06
-5.18991e-06
1.22174e-06
-5.53329e-06
1.14552e-06
-5.85073e-06
1.07246e-06
-6.14324e-06
1.00217e-06
-6.4114e-06
9.3318e-07
-6.65507e-06
8.62998e-07
-6.87323e-06
7.88288e-07
-7.06373e-06
7.0495e-07
-7.22318e-06
6.08259e-07
-7.34685e-06
4.93056e-07
-7.42866e-06
3.54008e-07
-7.46125e-06
1.85993e-07
-7.4361e-06
-1.53901e-08
-7.34392e-06
-2.53144e-07
-7.17509e-06
-5.28032e-07
-6.92038e-06
-8.37588e-07
-6.5719e-06
-1.17502e-06
-6.1244e-06
-1.5281e-06
-5.57686e-06
-1.87829e-06
-4.93434e-06
-2.20032e-06
-4.21001e-06
-2.46263e-06
-3.42697e-06
-2.62917e-06
-2.61939e-06
-2.66314e-06
-1.83233e-06
-2.53273e-06
-1.11953e-06
-2.21886e-06
-5.39112e-07
-1.72343e-06
-1.48225e-07
-1.07703e-06
-3.49218e-07
-1.16632e-07
3.16494e-07
-4.08154e-07
9.00726e-07
-8.24111e-07
1.37885e-06
-1.32158e-06
1.73035e-06
-1.86528e-06
1.95953e-06
-2.42757e-06
2.08275e-06
-2.98784e-06
2.12146e-06
-3.53162e-06
2.09767e-06
-4.04948e-06
2.03112e-06
-4.53593e-06
1.93801e-06
-4.98839e-06
1.83074e-06
-5.40635e-06
1.71813e-06
-5.79058e-06
1.60598e-06
-6.1426e-06
1.49754e-06
-6.46415e-06
1.39401e-06
-6.75686e-06
1.29488e-06
-7.02187e-06
1.19819e-06
-7.25966e-06
1.10079e-06
-7.46978e-06
9.98412e-07
-7.65074e-06
8.85904e-07
-7.79983e-06
7.57348e-07
-7.91308e-06
6.0631e-07
-7.98521e-06
4.26141e-07
-8.00964e-06
2.10418e-07
-7.97855e-06
-4.64798e-08
-7.88309e-06
-3.48598e-07
-7.71368e-06
-6.97443e-07
-7.46047e-06
-1.0908e-06
-7.11412e-06
-1.52137e-06
-6.66687e-06
-1.97535e-06
-6.11414e-06
-2.43102e-06
-5.45661e-06
-2.85786e-06
-4.70278e-06
-3.21646e-06
-3.87186e-06
-3.46009e-06
-2.99634e-06
-3.53866e-06
-2.12344e-06
-3.40563e-06
-1.31435e-06
-3.02795e-06
-6.40566e-07
-2.39721e-06
-1.7781e-07
-1.53979e-06
-5.27028e-07
-1.37954e-07
4.54448e-07
-4.78253e-07
1.24103e-06
-9.56149e-07
1.85674e-06
-1.51767e-06
2.29186e-06
-2.12029e-06
2.56215e-06
-2.73237e-06
2.69483e-06
-3.33169e-06
2.72078e-06
-3.90369e-06
2.66967e-06
-4.43969e-06
2.56712e-06
-4.93534e-06
2.43367e-06
-5.38936e-06
2.28475e-06
-5.80244e-06
2.13121e-06
-6.17653e-06
1.98006e-06
-6.51414e-06
1.83515e-06
-6.81795e-06
1.69782e-06
-7.09041e-06
1.56734e-06
-7.33349e-06
1.44128e-06
-7.54848e-06
1.31578e-06
-7.73582e-06
1.18575e-06
-7.89496e-06
1.04504e-06
-8.02427e-06
8.86662e-07
-8.12098e-06
7.03019e-07
-8.18108e-06
4.86236e-07
-8.19926e-06
2.28601e-07
-8.16891e-06
-7.68256e-08
-8.08209e-06
-4.35421e-07
-7.92957e-06
-8.49959e-07
-7.70107e-06
-1.3193e-06
-7.38562e-06
-1.83682e-06
-6.97245e-06
-2.38852e-06
-6.45234e-06
-2.95113e-06
-5.81985e-06
-3.49034e-06
-5.07651e-06
-3.9598e-06
-4.23484e-06
-4.30176e-06
-3.32284e-06
-4.45066e-06
-2.38774e-06
-4.34073e-06
-1.4975e-06
-3.91819e-06
-7.38188e-07
-3.15652e-06
-2.06664e-07
-2.07131e-06
-7.33692e-07
-1.57989e-07
6.12436e-07
-5.4346e-07
1.6265e-06
-1.07658e-06
2.38986e-06
-1.69155e-06
2.90683e-06
-2.33839e-06
3.20899e-06
-2.98179e-06
3.33823e-06
-3.59862e-06
3.33762e-06
-4.1751e-06
3.24615e-06
-4.70422e-06
3.09623e-06
-5.18358e-06
2.91304e-06
-5.61385e-06
2.71502e-06
-5.9975e-06
2.51487e-06
-6.338e-06
2.32056e-06
-6.63917e-06
2.13632e-06
-6.90481e-06
1.96346e-06
-7.13836e-06
1.80089e-06
-7.34275e-06
1.64566e-06
-7.5202e-06
1.49323e-06
-7.67216e-06
1.33772e-06
-7.79925e-06
1.17212e-06
-7.90113e-06
9.88541e-07
-7.97648e-06
7.78369e-07
-8.02289e-06
5.32643e-07
-8.03672e-06
2.42438e-07
-8.01298e-06
-1.00566e-07
-7.94508e-06
-5.03327e-07
-7.82463e-06
-9.70408e-07
-7.6413e-06
-1.50263e-06
-7.38282e-06
-2.0953e-06
-7.03533e-06
-2.736e-06
-6.5845e-06
-3.40197e-06
-6.01755e-06
-4.05729e-06
-5.32688e-06
-4.65046e-06
-4.51527e-06
-5.11337e-06
-3.60249e-06
-5.36344e-06
-2.63231e-06
-5.31092e-06
-1.67729e-06
-4.87321e-06
-8.38571e-07
-3.99524e-06
-2.37628e-07
-2.67226e-06
-9.71319e-07
-1.77928e-07
7.90364e-07
-6.0661e-07
2.05518e-06
-1.18888e-06
2.97213e-06
-1.84586e-06
3.56381e-06
-2.52008e-06
3.88321e-06
-3.17344e-06
3.9916e-06
-3.78319e-06
3.94736e-06
-4.33763e-06
3.80059e-06
-4.8326e-06
3.5912e-06
-5.26866e-06
3.34909e-06
-5.64913e-06
3.09549e-06
-5.97877e-06
2.84451e-06
-6.2629e-06
2.60468e-06
-6.50683e-06
2.38025e-06
-6.71555e-06
2.17218e-06
-6.89354e-06
1.97888e-06
-7.04463e-06
1.79675e-06
-7.17199e-06
1.62058e-06
-7.27807e-06
1.4438e-06
-7.36463e-06
1.25868e-06
-7.43268e-06
1.0566e-06
-7.48248e-06
8.28161e-07
-7.51335e-06
5.6352e-07
-7.5236e-06
2.5269e-07
-7.51019e-06
-1.13978e-07
-7.46837e-06
-5.45143e-07
-7.39124e-06
-1.04755e-06
-7.26914e-06
-1.62472e-06
-7.08927e-06
-2.27517e-06
-6.83539e-06
-2.98988e-06
-6.4883e-06
-3.74906e-06
-6.02747e-06
-4.51813e-06
-5.43448e-06
-5.24344e-06
-4.69917e-06
-5.84868e-06
-3.82844e-06
-6.23416e-06
-2.85716e-06
-6.2822e-06
-1.85818e-06
-5.87218e-06
-9.46745e-07
-4.90668e-06
-2.73113e-07
-3.34589e-06
-1.24443e-06
-1.9963e-07
9.89994e-07
-6.72055e-07
2.5276e-06
-1.29829e-06
3.59837e-06
-1.98444e-06
4.24996e-06
-2.66601e-06
4.56477e-06
-3.30381e-06
4.62941e-06
-3.87755e-06
4.52109e-06
-4.37961e-06
4.30266e-06
-4.81025e-06
4.02183e-06
-5.17408e-06
3.71293e-06
-5.47786e-06
3.39927e-06
-5.72903e-06
3.09568e-06
-5.93493e-06
2.81059e-06
-6.1024e-06
2.54772e-06
-6.23752e-06
2.30731e-06
-6.34563e-06
2.08699e-06
-6.4313e-06
1.88242e-06
-6.49842e-06
1.6877e-06
-6.55027e-06
1.49565e-06
-6.58959e-06
1.298e-06
-6.61862e-06
1.08562e-06
-6.63906e-06
8.48606e-07
-6.65204e-06
5.76497e-07
-6.65787e-06
2.58518e-07
-6.65575e-06
-1.16103e-07
-6.64325e-06
-5.57638e-07
-6.61566e-06
-1.07514e-06
-6.56506e-06
-1.67532e-06
-6.47938e-06
-2.36086e-06
-6.34143e-06
-3.12783e-06
-6.12847e-06
-3.96202e-06
-5.81282e-06
-4.83379e-06
-5.3646e-06
-5.69166e-06
-4.7579e-06
-6.45539e-06
-3.98138e-06
-7.01069e-06
-3.05352e-06
-7.21006e-06
-2.03995e-06
-6.88575e-06
-1.06622e-06
-5.88041e-06
-3.15417e-07
-4.09669e-06
-1.55985e-06
-2.26094e-07
1.21609e-06
-7.46282e-07
3.04779e-06
-1.41186e-06
4.26395e-06
-2.11142e-06
4.94952e-06
-2.77493e-06
5.22828e-06
-3.36533e-06
5.2198e-06
-3.86806e-06
5.02383e-06
-4.28236e-06
4.71696e-06
-4.61485e-06
4.35432e-06
-4.87545e-06
3.97353e-06
-5.07494e-06
3.59876e-06
-5.22369e-06
3.24442e-06
-5.331e-06
2.9179e-06
-5.40497e-06
2.62169e-06
-5.45247e-06
2.3548e-06
-5.4793e-06
2.11382e-06
-5.49041e-06
1.89353e-06
-5.49002e-06
1.68731e-06
-5.48187e-06
1.4875e-06
-5.46937e-06
1.2855e-06
-5.45565e-06
1.0719e-06
-5.44366e-06
8.3662e-07
-5.43611e-06
5.68949e-07
-5.4353e-06
2.57701e-07
-5.44277e-06
-1.08631e-07
-5.45881e-06
-5.41602e-07
-5.4816e-06
-1.05235e-06
-5.50613e-06
-1.65079e-06
-5.52273e-06
-2.34426e-06
-5.5154e-06
-3.13515e-06
-5.46024e-06
-4.01718e-06
-5.32453e-06
-4.96949e-06
-5.06791e-06
-5.94829e-06
-4.64721e-06
-6.87609e-06
-4.02763e-06
-7.63026e-06
-3.20194e-06
-8.03575e-06
-2.2168e-06
-7.87088e-06
-1.19933e-06
-6.89789e-06
-3.67319e-07
-4.9287e-06
-1.92717e-06
-2.62287e-07
1.47837e-06
-8.38723e-07
3.62423e-06
-1.53797e-06
4.9632e-06
-2.22888e-06
5.64043e-06
-2.83977e-06
5.83917e-06
-3.34125e-06
5.72129e-06
-3.72959e-06
5.41217e-06
-4.01443e-06
5.0018e-06
-4.21098e-06
4.55087e-06
-4.33552e-06
4.09807e-06
-4.40319e-06
3.66643e-06
-4.42706e-06
3.26829e-06
-4.41796e-06
2.9088e-06
-4.38465e-06
2.58838e-06
-4.33416e-06
2.30431e-06
-4.27217e-06
2.05183e-06
-4.20336e-06
1.82472e-06
-4.1318e-06
1.61575e-06
-4.06116e-06
1.41687e-06
-3.99502e-06
1.21936e-06
-3.93702e-06
1.0139e-06
-3.89093e-06
7.90533e-07
-3.86073e-06
5.3875e-07
-3.85046e-06
2.4743e-07
-3.86396e-06
-9.51315e-08
-3.90438e-06
-5.01181e-07
-3.97338e-06
-9.83348e-07
-4.06991e-06
-1.55426e-06
-4.18848e-06
-2.22568e-06
-4.31689e-06
-3.00675e-06
-4.43344e-06
-3.90063e-06
-4.50424e-06
-4.89869e-06
-4.48166e-06
-5.97087e-06
-4.30637e-06
-7.05138e-06
-3.91657e-06
-8.02005e-06
-3.26915e-06
-8.68318e-06
-2.37541e-06
-8.76462e-06
-1.34725e-06
-7.92605e-06
-4.32969e-07
-5.84298e-06
-2.36014e-06
-3.16555e-07
1.79493e-06
-9.62455e-07
4.27013e-06
-1.68418e-06
5.68493e-06
-2.33141e-06
6.28765e-06
-2.83964e-06
6.3474e-06
-3.19655e-06
6.0782e-06
-3.41618e-06
5.63181e-06
-3.52284e-06
5.10845e-06
-3.54227e-06
4.5703e-06
-3.49757e-06
4.05337e-06
-3.4078e-06
3.57665e-06
-3.28784e-06
3.14834e-06
-3.14901e-06
2.76997e-06
-2.99969e-06
2.43906e-06
-2.8461e-06
2.15072e-06
-2.69291e-06
1.89865e-06
-2.54384e-06
1.67565e-06
-2.40207e-06
1.47397e-06
-2.27063e-06
1.28543e-06
-2.15272e-06
1.10146e-06
-2.05195e-06
9.13128e-07
-1.97247e-06
7.11049e-07
-1.91905e-06
4.85332e-07
-1.89709e-06
2.25469e-07
-1.91242e-06
-7.97999e-08
-1.97096e-06
-4.42639e-07
-2.07805e-06
-8.76262e-07
-2.23733e-06
-1.39499e-06
-2.44901e-06
-2.014e-06
-2.70731e-06
-2.74845e-06
-2.99675e-06
-3.61119e-06
-3.28761e-06
-4.60783e-06
-3.53112e-06
-5.72736e-06
-3.65676e-06
-6.92574e-06
-3.57628e-06
-8.10054e-06
-3.20221e-06
-9.05725e-06
-2.49022e-06
-9.47661e-06
-1.50881e-06
-8.90746e-06
-5.19059e-07
-6.83273e-06
-2.8792e-06
-4.02871e-07
2.1978e-06
-1.13358e-06
5.00084e-06
-1.85039e-06
6.40174e-06
-2.39373e-06
6.83099e-06
-2.72442e-06
6.67808e-06
-2.86169e-06
6.21547e-06
-2.84602e-06
5.61613e-06
-2.72011e-06
4.98255e-06
-2.52089e-06
4.37107e-06
-2.27719e-06
3.80967e-06
-2.01017e-06
3.30963e-06
-1.73462e-06
2.87279e-06
-1.4605e-06
2.49585e-06
-1.19427e-06
2.17282e-06
-9.40019e-07
1.89647e-06
-7.00375e-07
1.65901e-06
-4.7718e-07
1.45246e-06
-2.72037e-07
1.26883e-06
-8.67278e-08
1.10012e-06
7.64587e-08
9.38274e-07
2.14474e-07
7.75113e-07
3.23315e-07
6.02207e-07
3.97899e-07
4.10748e-07
4.31998e-07
1.9137e-07
4.18278e-07
-6.60799e-08
3.4848e-07
-3.72841e-07
2.13834e-07
-7.41616e-07
5.85332e-09
-1.18701e-06
-2.82239e-07
-1.7259e-06
-6.53091e-07
-2.3776e-06
-1.10132e-06
-3.16296e-06
-1.60765e-06
-4.1015e-06
-2.13097e-06
-5.20404e-06
-2.59966e-06
-6.45705e-06
-2.90656e-06
-7.79363e-06
-2.91784e-06
-9.04597e-06
-2.51303e-06
-9.88142e-06
-1.67553e-06
-9.74495e-06
-6.3581e-07
-7.87246e-06
-3.51501e-06
-5.43316e-07
2.74112e-06
-1.36478e-06
5.8223e-06
-2.00969e-06
7.04665e-06
-2.34329e-06
7.16459e-06
-2.3852e-06
6.71999e-06
-2.2055e-06
6.03578e-06
-1.87878e-06
5.28941e-06
-1.46681e-06
4.57057e-06
-1.01486e-06
3.91913e-06
-5.53617e-07
3.34843e-06
-1.02475e-07
2.85849e-06
3.27181e-07
2.44313e-06
7.29393e-07
2.09363e-06
1.10166e-06
1.80056e-06
1.4435e-06
1.55463e-06
1.75546e-06
1.34704e-06
2.03838e-06
1.16954e-06
2.29284e-06
1.01437e-06
2.51882e-06
8.74136e-07
2.71538e-06
7.41713e-07
2.88043e-06
6.1006e-07
3.01056e-06
4.72079e-07
3.10086e-06
3.20446e-07
3.14484e-06
1.47398e-07
3.13429e-06
-5.55305e-08
3.05932e-06
-2.97876e-07
2.90845e-06
-5.90745e-07
2.66894e-06
-9.4749e-07
2.32761e-06
-1.38457e-06
1.87256e-06
-1.92255e-06
1.29643e-06
-2.58683e-06
6.02245e-07
-3.40732e-06
-1.86836e-07
-4.41496e-06
-1.01332e-06
-5.63057e-06
-1.7687e-06
-7.03825e-06
-2.28397e-06
-8.53071e-06
-2.35117e-06
-9.81421e-06
-1.81661e-06
-1.02795e-05
-7.94998e-07
-8.89407e-06
-4.31001e-06
-7.651e-07
3.50622e-06
-1.6375e-06
6.69471e-06
-2.05811e-06
7.46726e-06
-2.00268e-06
7.10916e-06
-1.60152e-06
6.31883e-06
-9.93087e-07
5.42735e-06
-2.85537e-07
4.58186e-06
4.48034e-07
3.837e-06
1.16313e-06
3.20404e-06
1.83534e-06
2.67622e-06
2.45328e-06
2.24054e-06
3.01355e-06
1.88286e-06
3.51732e-06
1.58987e-06
3.96812e-06
1.34977e-06
4.37042e-06
1.15233e-06
4.72876e-06
9.88704e-07
5.04714e-06
8.51162e-07
5.32866e-06
7.32848e-07
5.57525e-06
6.27543e-07
5.7875e-06
5.29461e-07
5.96449e-06
4.33068e-07
6.10367e-06
3.32908e-07
6.20067e-06
2.23436e-07
6.24926e-06
9.88139e-08
6.24106e-06
-4.73364e-08
6.16547e-06
-2.22279e-07
6.00939e-06
-4.34663e-07
5.75714e-06
-6.95249e-07
5.39054e-06
-1.01796e-06
4.88937e-06
-1.42138e-06
4.2332e-06
-1.93066e-06
3.40549e-06
-2.57961e-06
2.4024e-06
-3.41186e-06
1.2493e-06
-4.47746e-06
2.77553e-08
-5.81671e-06
-1.09049e-06
-7.41246e-06
-1.82462e-06
-9.08008e-06
-1.83871e-06
-1.02654e-05
-9.94803e-07
-9.73798e-06
-5.30481e-06
-1.07141e-06
4.57763e-06
-1.80885e-06
7.43214e-06
-1.69233e-06
7.35074e-06
-9.77352e-07
6.39418e-06
4.28935e-08
5.29858e-06
1.16843e-06
4.30181e-06
2.28083e-06
3.46946e-06
3.31866e-06
2.79918e-06
4.25589e-06
2.2668e-06
5.08649e-06
1.84562e-06
5.81474e-06
1.51229e-06
6.44975e-06
1.24785e-06
7.00228e-06
1.03734e-06
7.48309e-06
8.68962e-07
7.90202e-06
7.33394e-07
8.2676e-06
6.23122e-07
8.58679e-06
5.31976e-07
8.86489e-06
4.54747e-07
9.10552e-06
3.86909e-07
9.31059e-06
3.24397e-07
9.48022e-06
2.63433e-07
9.61276e-06
2.00375e-07
9.70461e-06
1.31579e-07
9.75019e-06
5.32416e-08
9.74163e-06
-3.87833e-08
9.6686e-06
-1.49248e-07
9.51784e-06
-2.839e-07
9.27266e-06
-4.5007e-07
8.9123e-06
-6.57608e-07
8.41125e-06
-9.20336e-07
7.73891e-06
-1.25831e-06
6.8605e-06
-1.70121e-06
5.74162e-06
-2.29298e-06
4.36086e-06
-3.09671e-06
2.7388e-06
-4.19465e-06
9.92089e-07
-5.66575e-06
-5.90387e-07
-7.4976e-06
-1.49666e-06
-9.35915e-06
-1.16862e-06
-1.0066e-05
-6.47343e-06
-1.3253e-06
5.90293e-06
-1.34268e-06
7.44952e-06
-1.39293e-07
6.14735e-06
1.53661e-06
4.71828e-06
3.26769e-06
3.5675e-06
4.87354e-06
2.69596e-06
6.28872e-06
2.05427e-06
7.50328e-06
1.58462e-06
8.53196e-06
1.23813e-06
9.39822e-06
9.79361e-07
1.01268e-05
7.8374e-07
1.07404e-05
6.34194e-07
1.1259e-05
5.18714e-07
1.16993e-05
4.28683e-07
1.2075e-05
3.57763e-07
1.23969e-05
3.0116e-07
1.26738e-05
2.55129e-07
1.29119e-05
2.16644e-07
1.31156e-05
1.83169e-07
1.32875e-05
1.52496e-07
1.34283e-05
1.22621e-07
1.35371e-05
9.16496e-08
1.36109e-05
5.77134e-08
1.36453e-05
1.88804e-08
1.36334e-05
-2.6949e-08
1.35664e-05
-8.2187e-08
1.34323e-05
-1.49778e-07
1.32157e-05
-2.33545e-07
1.28969e-05
-3.38766e-07
1.24497e-05
-4.73138e-07
1.18398e-05
-6.48449e-07
1.10221e-05
-8.83511e-07
9.93849e-06
-1.20933e-06
8.51975e-06
-1.67797e-06
6.701e-06
-2.3759e-06
4.47088e-06
-3.43562e-06
1.98794e-06
-5.01466e-06
-2.11489e-07
-7.15973e-06
-1.0605e-06
-9.21701e-06
-7.53393e-06
-6.51483e-07
6.55441e-06
1.50399e-06
5.29405e-06
4.37369e-06
3.27765e-06
6.97995e-06
2.11202e-06
9.13486e-06
1.41259e-06
1.08629e-05
9.67901e-07
1.2235e-05
6.82147e-07
1.33242e-05
4.95424e-07
1.41927e-05
3.6964e-07
1.48899e-05
2.82137e-07
1.54541e-05
2.19555e-07
1.59146e-05
1.73769e-07
1.62936e-05
1.39645e-07
1.66085e-05
1.1381e-07
1.68723e-05
9.39546e-08
1.7095e-05
7.84307e-08
1.72842e-05
6.60087e-08
1.74451e-05
5.57317e-08
1.75814e-05
4.68209e-08
1.76953e-05
3.86135e-08
1.77874e-05
3.05189e-08
1.78571e-05
2.1986e-08
1.79023e-05
1.24763e-08
1.79197e-05
1.43627e-09
1.79045e-05
-1.17334e-08
1.78501e-05
-2.77221e-08
1.77477e-05
-4.73756e-08
1.75859e-05
-7.18049e-08
1.73497e-05
-1.02572e-07
1.70186e-05
-1.42021e-07
1.65641e-05
-1.93892e-07
1.59451e-05
-2.64537e-07
1.51012e-05
-3.65437e-07
1.39419e-05
-5.18654e-07
1.23346e-05
-7.6858e-07
1.01052e-05
-1.20632e-06
7.10431e-06
-2.01373e-06
3.45518e-06
-3.51059e-06
2.29499e-07
-5.99133e-06
-7.30443e-06
6.55441e-06
1.18485e-05
1.51261e-05
1.72381e-05
1.86507e-05
1.96186e-05
2.03008e-05
2.07962e-05
2.11658e-05
2.1448e-05
2.16675e-05
2.18413e-05
2.19809e-05
2.20947e-05
2.21887e-05
2.22671e-05
2.23331e-05
2.23889e-05
2.24357e-05
2.24743e-05
2.25048e-05
2.25268e-05
2.25393e-05
2.25407e-05
2.2529e-05
2.25013e-05
2.24539e-05
2.23821e-05
2.22795e-05
2.21375e-05
2.19436e-05
2.16791e-05
2.13136e-05
2.0795e-05
2.00264e-05
1.88201e-05
1.68064e-05
1.32958e-05
7.30443e-06
)
;

boundaryField
{
    movingWall
    {
        type            calculated;
        value           uniform 0;
    }
    fixedWalls
    {
        type            calculated;
        value           uniform 0;
    }
    frontAndBack
    {
        type            empty;
        value           nonuniform 0();
    }
}


// ************************************************************************* //
