/*--------------------------------*- C++ -*----------------------------------*\
  =========                 |
  \\      /  F ield         | OpenFOAM: The Open Source CFD Toolbox
   \\    /   O peration     | Website:  https://openfoam.org
    \\  /    A nd           | Version:  6.0
     \\/     M anipulation  |
\*---------------------------------------------------------------------------*/
FoamFile
{
    version     2.0;
    format      ascii;
    class       volVectorField;
    location    "0.4";
    object      U;
}
// * * * * * * * * * * * * * * * * * * * * * * * * * * * * * * * * * * * * * //

dimensions      [0 1 -1 0 0 0 0];

internalField   nonuniform List<vector> 
800
(
(0.000299992 -0.00029978 0)
(0.000397015 -2.99273e-05 0)
(-0.000554936 0.000382721 0)
(-0.00248147 0.000710182 0)
(-0.00512116 0.000923312 0)
(-0.00820493 0.00103891 0)
(-0.0115129 0.00108321 0)
(-0.0148855 0.00108119 0)
(-0.0182182 0.00105233 0)
(-0.0214489 0.0010103 0)
(-0.0245463 0.000963954 0)
(-0.0274995 0.000918647 0)
(-0.0303104 0.000877313 0)
(-0.032988 0.000841256 0)
(-0.0355442 0.000810652 0)
(-0.0379907 0.000784822 0)
(-0.0403362 0.000762333 0)
(-0.042584 0.000740985 0)
(-0.0447298 0.000717748 0)
(-0.0467591 0.000688683 0)
(-0.0486445 0.000648881 0)
(-0.0503438 0.000592471 0)
(-0.0517977 0.00051274 0)
(-0.0529286 0.000402429 0)
(-0.0536407 0.000254286 0)
(-0.0538221 6.194e-05 0)
(-0.0533496 -0.000178837 0)
(-0.0520974 -0.000468481 0)
(-0.0499501 -0.000801688 0)
(-0.0468203 -0.0011654 0)
(-0.0426709 -0.00153713 0)
(-0.0375393 -0.0018842 0)
(-0.0315611 -0.00216455 0)
(-0.0249887 -0.0023295 0)
(-0.0181994 -0.00232872 0)
(-0.0116868 -0.00211767 0)
(-0.00602874 -0.00166796 0)
(-0.0018271 -0.000980812 0)
(0.000395851 -0.000133958 0)
(0.000478206 0.000469136 0)
(3.85988e-05 -0.000412732 0)
(-0.00109933 0.00108546 0)
(-0.00459734 0.00296603 0)
(-0.0101383 0.0045175 0)
(-0.0172132 0.00559623 0)
(-0.0253092 0.00623386 0)
(-0.0339648 0.00652033 0)
(-0.0428148 0.00655629 0)
(-0.0515989 0.00642991 0)
(-0.060148 0.00620945 0)
(-0.0683642 0.00594372 0)
(-0.0762009 0.00566524 0)
(-0.0836465 0.00539387 0)
(-0.0907099 0.00513995 0)
(-0.0974099 0.00490659 0)
(-0.103766 0.00469107 0)
(-0.109792 0.00448559 0)
(-0.115488 0.00427761 0)
(-0.120835 0.00404989 0)
(-0.125788 0.0037805 0)
(-0.130275 0.003443 0)
(-0.134185 0.00300701 0)
(-0.137373 0.00243939 0)
(-0.139651 0.00170622 0)
(-0.140797 0.000776085 0)
(-0.140561 -0.000375405 0)
(-0.138674 -0.00175945 0)
(-0.134873 -0.00336663 0)
(-0.128932 -0.00515857 0)
(-0.120695 -0.00706 0)
(-0.110125 -0.00895293 0)
(-0.09735 -0.0106753 0)
(-0.082709 -0.0120269 0)
(-0.0667837 -0.0127848 0)
(-0.0504065 -0.0127295 0)
(-0.0346315 -0.0116829 0)
(-0.0206447 -0.00956069 0)
(-0.00961201 -0.00643598 0)
(-0.00255626 -0.0026846 0)
(-6.97999e-05 0.00042255 0)
(-0.000409978 0.000555433 0)
(-0.00319735 0.00463706 0)
(-0.00954219 0.00906476 0)
(-0.0186452 0.0127234 0)
(-0.0297429 0.0153256 0)
(-0.042168 0.0169091 0)
(-0.0553123 0.0176489 0)
(-0.0686811 0.0177597 0)
(-0.0819115 0.0174422 0)
(-0.0947598 0.0168608 0)
(-0.107078 0.0161388 0)
(-0.118791 0.0153623 0)
(-0.129873 0.0145861 0)
(-0.14033 0.0138405 0)
(-0.150183 0.0131359 0)
(-0.159455 0.0124666 0)
(-0.168161 0.0118129 0)
(-0.176298 0.0111426 0)
(-0.183836 0.0104111 0)
(-0.190709 0.00956275 0)
(-0.196812 0.0085317 0)
(-0.201994 0.00724395 0)
(-0.206051 0.00562094 0)
(-0.208735 0.00358512 0)
(-0.209749 0.00106801 0)
(-0.208765 -0.00197872 0)
(-0.20544 -0.0055692 0)
(-0.199441 -0.00966672 0)
(-0.190486 -0.014166 0)
(-0.178389 -0.0188768 0)
(-0.163116 -0.0235126 0)
(-0.144844 -0.0276895 0)
(-0.124016 -0.0309422 0)
(-0.101382 -0.0327603 0)
(-0.0780164 -0.0326514 0)
(-0.0552763 -0.0302323 0)
(-0.0346912 -0.0253476 0)
(-0.0177746 -0.0182086 0)
(-0.00602112 -0.00961295 0)
(-0.000813795 -0.0016007 0)
(-0.000842842 0.00269099 0)
(-0.00529627 0.0106722 0)
(-0.0145129 0.0184377 0)
(-0.027068 0.0247031 0)
(-0.0418774 0.02913 0)
(-0.0581198 0.0318086 0)
(-0.0750726 0.0330289 0)
(-0.0921533 0.0331452 0)
(-0.108936 0.0324946 0)
(-0.125136 0.0313596 0)
(-0.140578 0.029957 0)
(-0.155174 0.0284414 0)
(-0.168895 0.0269134 0)
(-0.181749 0.0254299 0)
(-0.193764 0.0240115 0)
(-0.20497 0.0226494 0)
(-0.215388 0.0213089 0)
(-0.225017 0.0199326 0)
(-0.233825 0.0184421 0)
(-0.24174 0.0167399 0)
(-0.248645 0.0147122 0)
(-0.254369 0.012233 0)
(-0.25869 0.00917084 0)
(-0.261331 0.00539827 0)
(-0.261968 0.000805789 0)
(-0.260239 -0.00468011 0)
(-0.255768 -0.0110743 0)
(-0.248187 -0.0183065 0)
(-0.237179 -0.0261934 0)
(-0.222524 -0.0344127 0)
(-0.204156 -0.0424847 0)
(-0.182233 -0.0497701 0)
(-0.157199 -0.0554938 0)
(-0.12984 -0.058803 0)
(-0.101319 -0.0588694 0)
(-0.0731601 -0.0550392 0)
(-0.0471336 -0.0470241 0)
(-0.0250796 -0.0351109 0)
(-0.00905938 -0.0204128 0)
(-0.00142268 -0.0054261 0)
(-0.00122868 0.00591944 0)
(-0.00724815 0.0190876 0)
(-0.019206 0.0308868 0)
(-0.035002 0.0400893 0)
(-0.0531807 0.046445 0)
(-0.0727459 0.0501817 0)
(-0.092867 0.0517562 0)
(-0.112896 0.0516946 0)
(-0.132375 0.0504923 0)
(-0.151002 0.0485652 0)
(-0.168603 0.0462351 0)
(-0.185096 0.0437331 0)
(-0.200464 0.0412115 0)
(-0.214729 0.0387567 0)
(-0.227934 0.0364011 0)
(-0.240125 0.0341321 0)
(-0.251335 0.0318987 0)
(-0.261577 0.0296159 0)
(-0.27083 0.0271685 0)
(-0.27903 0.0244147 0)
(-0.286069 0.0211901 0)
(-0.291785 0.0173148 0)
(-0.295961 0.0126026 0)
(-0.298327 0.00687463 0)
(-0.298562 -2.16748e-05 0)
(-0.296308 -0.00818823 0)
(-0.291178 -0.0176458 0)
(-0.282789 -0.0282983 0)
(-0.270787 -0.0398943 0)
(-0.254896 -0.0519902 0)
(-0.234974 -0.0639215 0)
(-0.211085 -0.0747942 0)
(-0.183574 -0.0835087 0)
(-0.153151 -0.0888322 0)
(-0.120958 -0.089535 0)
(-0.0885921 -0.0845965 0)
(-0.0580314 -0.073472 0)
(-0.0314775 -0.0563748 0)
(-0.0116458 -0.0345527 0)
(-0.00190304 -0.0107236 0)
(-0.00157072 0.010135 0)
(-0.00902799 0.0297266 0)
(-0.0235244 0.0462145 0)
(-0.0422759 0.0586023 0)
(-0.0634255 0.0668735 0)
(-0.0857827 0.0715 0)
(-0.10841 0.0731772 0)
(-0.13061 0.0726486 0)
(-0.151916 0.0705948 0)
(-0.172041 0.0675812 0)
(-0.190833 0.0640429 0)
(-0.208239 0.0602925 0)
(-0.224269 0.0565356 0)
(-0.238977 0.0528889 0)
(-0.25243 0.0493956 0)
(-0.264701 0.0460387 0)
(-0.275847 0.0427496 0)
(-0.285903 0.0394152 0)
(-0.294871 0.0358833 0)
(-0.302713 0.031968 0)
(-0.309347 0.0274557 0)
(-0.31464 0.0221137 0)
(-0.318407 0.0157017 0)
(-0.320409 0.00798892 0)
(-0.320357 -0.00122367 0)
(-0.317916 -0.0120742 0)
(-0.312712 -0.0246028 0)
(-0.304351 -0.0387083 0)
(-0.29244 -0.0540986 0)
(-0.276625 -0.0702407 0)
(-0.256642 -0.0863172 0)
(-0.232392 -0.101201 0)
(-0.204033 -0.113469 0)
(-0.172091 -0.121474 0)
(-0.137581 -0.123501 0)
(-0.102098 -0.118026 0)
(-0.0677916 -0.104064 0)
(-0.0372635 -0.0815516 0)
(-0.0139627 -0.0516773 0)
(-0.00231684 -0.0172644 0)
(-0.00188058 0.0152416 0)
(-0.010658 0.0424041 0)
(-0.0274738 0.0641605 0)
(-0.0488547 0.0798836 0)
(-0.0725219 0.0899366 0)
(-0.0970799 0.0951573 0)
(-0.121492 0.0965674 0)
(-0.145034 0.0951839 0)
(-0.167257 0.0919057 0)
(-0.187916 0.0874638 0)
(-0.206911 0.0824137 0)
(-0.224238 0.0771502 0)
(-0.239957 0.0719306 0)
(-0.254164 0.0668988 0)
(-0.266966 0.0621065 0)
(-0.278468 0.0575299 0)
(-0.288763 0.053082 0)
(-0.297916 0.0486216 0)
(-0.305963 0.0439614 0)
(-0.312904 0.0388741 0)
(-0.318695 0.0331002 0)
(-0.32325 0.0263577 0)
(-0.326433 0.0183551 0)
(-0.328057 0.00880948 0)
(-0.327885 -0.00252918 0)
(-0.325625 -0.0158463 0)
(-0.320932 -0.0312216 0)
(-0.313412 -0.048579 0)
(-0.302635 -0.0676272 0)
(-0.288156 -0.0877943 0)
(-0.269558 -0.108163 0)
(-0.246524 -0.127418 0)
(-0.218942 -0.143834 0)
(-0.187052 -0.155322 0)
(-0.151623 -0.159591 0)
(-0.11414 -0.154442 0)
(-0.0768637 -0.138212 0)
(-0.042803 -0.110289 0)
(-0.0162255 -0.0715831 0)
(-0.00272759 -0.0249538 0)
(-0.00217498 0.0211686 0)
(-0.0121914 0.0569509 0)
(-0.0311299 0.0844471 0)
(-0.0547985 0.103523 0)
(-0.0804765 0.115079 0)
(-0.106566 0.120459 0)
(-0.131954 0.121113 0)
(-0.155923 0.118395 0)
(-0.17808 0.113459 0)
(-0.198255 0.107217 0)
(-0.21643 0.100346 0)
(-0.232677 0.0933217 0)
(-0.247121 0.0864449 0)
(-0.259915 0.079881 0)
(-0.271215 0.0736843 0)
(-0.281166 0.0678204 0)
(-0.2899 0.0621822 0)
(-0.297518 0.0566012 0)
(-0.304097 0.0508573 0)
(-0.309678 0.0446862 0)
(-0.314266 0.0377879 0)
(-0.31783 0.0298369 0)
(-0.320296 0.0204946 0)
(-0.321544 0.00942743 0)
(-0.321403 -0.00366954 0)
(-0.319642 -0.0190406 0)
(-0.315964 -0.0368275 0)
(-0.309995 -0.0570148 0)
(-0.301281 -0.0793627 0)
(-0.289294 -0.103325 0)
(-0.273455 -0.127957 0)
(-0.253196 -0.151831 0)
(-0.22807 -0.172965 0)
(-0.197923 -0.188834 0)
(-0.163143 -0.196486 0)
(-0.124946 -0.192857 0)
(-0.0855799 -0.175308 0)
(-0.0484167 -0.142323 0)
(-0.0186309 -0.0942281 0)
(-0.00319171 -0.0338218 0)
(-0.00247776 0.0278843 0)
(-0.0137129 0.0732491 0)
(-0.0346311 0.106815 0)
(-0.0602434 0.129081 0)
(-0.0873617 0.141677 0)
(-0.114208 0.146618 0)
(-0.13964 0.145899 0)
(-0.163 0.141285 0)
(-0.184003 0.134215 0)
(-0.202601 0.125793 0)
(-0.218889 0.116815 0)
(-0.233038 0.107823 0)
(-0.245259 0.0991523 0)
(-0.255768 0.0909762 0)
(-0.264773 0.0833428 0)
(-0.272466 0.0762012 0)
(-0.279013 0.069421 0)
(-0.284555 0.062807 0)
(-0.289204 0.0561092 0)
(-0.293044 0.0490318 0)
(-0.296132 0.0412415 0)
(-0.298492 0.0323763 0)
(-0.300118 0.0220575 0)
(-0.300965 0.00990499 0)
(-0.30094 -0.00444178 0)
(-0.299891 -0.0212945 0)
(-0.29759 -0.0408762 0)
(-0.293711 -0.0632671 0)
(-0.287807 -0.0883313 0)
(-0.279297 -0.115621 0)
(-0.267465 -0.14426 0)
(-0.251492 -0.172805 0)
(-0.230556 -0.199117 0)
(-0.204016 -0.220279 0)
(-0.171715 -0.232639 0)
(-0.134392 -0.232084 0)
(-0.0940614 -0.214644 0)
(-0.0543293 -0.177424 0)
(-0.0213464 -0.119704 0)
(-0.0037604 -0.0440044 0)
(-0.00282654 0.0354163 0)
(-0.0153547 0.0912636 0)
(-0.0381881 0.131039 0)
(-0.0653916 0.156081 0)
(-0.0932811 0.169008 0)
(-0.119953 0.172712 0)
(-0.144319 0.169871 0)
(-0.165868 0.162727 0)
(-0.184493 0.153032 0)
(-0.200322 0.142078 0)
(-0.213601 0.130762 0)
(-0.224623 0.119673 0)
(-0.233693 0.109158 0)
(-0.241095 0.0993804 0)
(-0.24709 0.0903698 0)
(-0.251906 0.0820492 0)
(-0.25574 0.0742611 0)
(-0.258761 0.0667828 0)
(-0.261112 0.0593382 0)
(-0.262913 0.0516063 0)
(-0.264262 0.0432285 0)
(-0.265239 0.0338165 0)
(-0.265902 0.0229607 0)
(-0.266282 0.0102428 0)
(-0.266372 -0.00474848 0)
(-0.266113 -0.0223938 0)
(-0.26537 -0.0430091 0)
(-0.263899 -0.0667961 0)
(-0.261309 -0.0937701 0)
(-0.257021 -0.123657 0)
(-0.250239 -0.155749 0)
(-0.239939 -0.188725 0)
(-0.224931 -0.220432 0)
(-0.204024 -0.247686 0)
(-0.176354 -0.26617 0)
(-0.141915 -0.270588 0)
(-0.102161 -0.255261 0)
(-0.0606557 -0.215286 0)
(-0.0245236 -0.148182 0)
(-0.00448957 -0.0557297 0)
(-0.00328532 0.043886 0)
(-0.0173231 0.111079 0)
(-0.0421016 0.156933 0)
(-0.0704951 0.183973 0)
(-0.0983079 0.196188 0)
(-0.123626 0.197619 0)
(-0.145558 0.191769 0)
(-0.163865 0.181419 0)
(-0.178714 0.168637 0)
(-0.190469 0.154873 0)
(-0.199562 0.141095 0)
(-0.206427 0.127898 0)
(-0.211461 0.11561 0)
(-0.215012 0.104362 0)
(-0.217378 0.0941442 0)
(-0.218812 0.084844 0)
(-0.219527 0.0762709 0)
(-0.219703 0.0681749 0)
(-0.219499 0.0602572 0)
(-0.219056 0.0521787 0)
(-0.218503 0.0435657 0)
(-0.217963 0.0340149 0)
(-0.21755 0.0230993 0)
(-0.217365 0.0103749 0)
(-0.21749 -0.00460832 0)
(-0.217966 -0.0222917 0)
(-0.218773 -0.0430829 0)
(-0.219786 -0.0673166 0)
(-0.220725 -0.095191 0)
(-0.221093 -0.126666 0)
(-0.220105 -0.161311 0)
(-0.21663 -0.198075 0)
(-0.209183 -0.234995 0)
(-0.19602 -0.268838 0)
(-0.175453 -0.294785 0)
(-0.146434 -0.30634 0)
(-0.1094 -0.295768 0)
(-0.0673927 -0.255383 0)
(-0.0283287 -0.179857 0)
(-0.00545743 -0.0693248 0)
(-0.00396755 0.0535696 0)
(-0.0199436 0.132944 0)
(-0.046778 0.184315 0)
(-0.0758013 0.212043 0)
(-0.102356 0.222064 0)
(-0.124746 0.219908 0)
(-0.142504 0.210051 0)
(-0.155839 0.195833 0)
(-0.165306 0.179598 0)
(-0.171568 0.162898 0)
(-0.17527 0.1467 0)
(-0.176981 0.131557 0)
(-0.177178 0.117732 0)
(-0.176252 0.105291 0)
(-0.174513 0.0941664 0)
(-0.172213 0.0841959 0)
(-0.169556 0.0751515 0)
(-0.166712 0.0667558 0)
(-0.163834 0.0586926 0)
(-0.161065 0.0506132 0)
(-0.158548 0.0421396 0)
(-0.15643 0.0328676 0)
(-0.154868 0.0223682 0)
(-0.154021 0.0101901 0)
(-0.154052 -0.00413718 0)
(-0.155107 -0.0210966 0)
(-0.15729 -0.0411713 0)
(-0.160627 -0.06482 0)
(-0.165005 -0.0924303 0)
(-0.170096 -0.124234 0)
(-0.175248 -0.160158 0)
(-0.179371 -0.199581 0)
(-0.180838 -0.240966 0)
(-0.177464 -0.281351 0)
(-0.166703 -0.315749 0)
(-0.146212 -0.336665 0)
(-0.114853 -0.334112 0)
(-0.0743806 -0.296759 0)
(-0.0329785 -0.214869 0)
(-0.00679295 -0.0852535 0)
(-0.00507849 0.0650061 0)
(-0.0237248 0.157308 0)
(-0.0527093 0.212911 0)
(-0.0813977 0.23923 0)
(-0.104901 0.245016 0)
(-0.122167 0.237685 0)
(-0.133499 0.222783 0)
(-0.139773 0.204161 0)
(-0.142049 0.184323 0)
(-0.141333 0.164809 0)
(-0.138474 0.14649 0)
(-0.134149 0.129797 0)
(-0.128876 0.114877 0)
(-0.123041 0.101697 0)
(-0.11693 0.0901088 0)
(-0.110754 0.079891 0)
(-0.104677 0.0707752 0)
(-0.098831 0.0624598 0)
(-0.093338 0.0546179 0)
(-0.08832 0.0469009 0)
(-0.0839111 0.0389398 0)
(-0.0802648 0.0303443 0)
(-0.0775594 0.0207017 0)
(-0.0759989 0.00957392 0)
(-0.0758102 -0.00350515 0)
(-0.0772328 -0.0190321 0)
(-0.0804997 -0.0375345 0)
(-0.0858032 -0.0595638 0)
(-0.0932405 -0.0856732 0)
(-0.102729 -0.116361 0)
(-0.113881 -0.151955 0)
(-0.12584 -0.192383 0)
(-0.137075 -0.236777 0)
(-0.145205 -0.28284 0)
(-0.146978 -0.325952 0)
(-0.138636 -0.358131 0)
(-0.116901 -0.367292 0)
(-0.0811713 -0.33772 0)
(-0.038766 -0.253184 0)
(-0.00871987 -0.104202 0)
(-0.00698843 0.079181 0)
(-0.0294317 0.184804 0)
(-0.060334 0.242083 0)
(-0.0868094 0.263767 0)
(-0.104401 0.262639 0)
(-0.113432 0.248376 0)
(-0.115447 0.227548 0)
(-0.112223 0.20431 0)
(-0.105395 0.181114 0)
(-0.0962895 0.159298 0)
(-0.0858976 0.139506 0)
(-0.0749242 0.121958 0)
(-0.0638502 0.106629 0)
(-0.0529918 0.0933545 0)
(-0.04255 0.0818911 0)
(-0.0326515 0.0719552 0)
(-0.0233794 0.0632407 0)
(-0.0147979 0.0554294 0)
(-0.0069711 0.048194 0)
(2.2545e-05 0.0411986 0)
(0.0060785 0.0340973 0)
(0.0110574 0.0265299 0)
(0.0147785 0.0181182 0)
(0.017016 0.00845974 0)
(0.0174977 -0.00288024 0)
(0.0159093 -0.0163783 0)
(0.0119052 -0.0325642 0)
(0.00513025 -0.0520318 0)
(-0.00473762 -0.0754432 0)
(-0.0179153 -0.103512 0)
(-0.0343927 -0.136939 0)
(-0.053741 -0.176244 0)
(-0.0748332 -0.221414 0)
(-0.0954884 -0.271226 0)
(-0.11215 -0.322114 0)
(-0.119839 -0.366524 0)
(-0.112766 -0.39104 0)
(-0.0866803 -0.375335 0)
(-0.0460098 -0.294307 0)
(-0.0116103 -0.127209 0)
(-0.0103273 0.0978065 0)
(-0.038067 0.216039 0)
(-0.0695147 0.270236 0)
(-0.0900149 0.282571 0)
(-0.0971021 0.271328 0)
(-0.0936039 0.248542 0)
(-0.0828089 0.221437 0)
(-0.0675163 0.194029 0)
(-0.0498682 0.168354 0)
(-0.0313597 0.145303 0)
(-0.0129612 0.125132 0)
(0.00473988 0.107766 0)
(0.0214187 0.092966 0)
(0.0369224 0.0804197 0)
(0.0512034 0.069791 0)
(0.0642717 0.0607416 0)
(0.0761607 0.0529412 0)
(0.0869035 0.0460695 0)
(0.096515 0.039814 0)
(0.104978 0.033867 0)
(0.112235 0.0279204 0)
(0.118176 0.0216603 0)
(0.122637 0.0147607 0)
(0.125392 0.00687506 0)
(0.126145 -0.00237409 0)
(0.124537 -0.0134092 0)
(0.120137 -0.0267166 0)
(0.112456 -0.0428705 0)
(0.100966 -0.0625605 0)
(0.0851425 -0.0866159 0)
(0.0645617 -0.116006 0)
(0.0390669 -0.151771 0)
(0.00907247 -0.19479 0)
(-0.0239571 -0.245208 0)
(-0.0568605 -0.301248 0)
(-0.0841238 -0.357071 0)
(-0.0976283 -0.399546 0)
(-0.088349 -0.404695 0)
(-0.0547021 -0.336642 0)
(-0.015976 -0.155761 0)
(-0.0159553 0.123757 0)
(-0.0503163 0.250845 0)
(-0.0778896 0.293564 0)
(-0.0851534 0.290276 0)
(-0.0747524 0.265827 0)
(-0.0533433 0.233882 0)
(-0.0261599 0.201347 0)
(0.00322074 0.171334 0)
(0.0325249 0.144973 0)
(0.0604449 0.122432 0)
(0.086321 0.103458 0)
(0.109898 0.0876317 0)
(0.131156 0.0744976 0)
(0.150209 0.0636158 0)
(0.167227 0.0545823 0)
(0.182397 0.0470327 0)
(0.195895 0.0406386 0)
(0.207867 0.0351005 0)
(0.218415 0.0301412 0)
(0.227591 0.0254981 0)
(0.23539 0.0209168 0)
(0.241744 0.0161437 0)
(0.246516 0.0109194 0)
(0.249496 0.00496966 0)
(0.250392 -0.00200514 0)
(0.248828 -0.0103451 0)
(0.244331 -0.0204519 0)
(0.236326 -0.0328192 0)
(0.224135 -0.0480739 0)
(0.20698 -0.06703 0)
(0.184025 -0.0907501 0)
(0.154477 -0.120587 0)
(0.11782 -0.158134 0)
(0.0742896 -0.204919 0)
(0.0257204 -0.261462 0)
(-0.0231498 -0.325057 0)
(-0.063117 -0.385415 0)
(-0.0802969 -0.417919 0)
(-0.0632373 -0.376278 0)
(-0.0220859 -0.191919 0)
(-0.0241638 0.162026 0)
(-0.0640305 0.286094 0)
(-0.0762427 0.303202 0)
(-0.0575569 0.277554 0)
(-0.0205896 0.238845 0)
(0.0238221 0.199646 0)
(0.0694105 0.164742 0)
(0.112824 0.135337 0)
(0.152481 0.111187 0)
(0.187851 0.0915861 0)
(0.218969 0.0757613 0)
(0.246143 0.0630064 0)
(0.269792 0.0527202 0)
(0.290361 0.0444043 0)
(0.308267 0.0376477 0)
(0.323882 0.0321088 0)
(0.337516 0.0274999 0)
(0.349417 0.0235728 0)
(0.359763 0.0201083 0)
(0.368664 0.0169066 0)
(0.376163 0.0137799 0)
(0.382229 0.0105457 0)
(0.386758 0.00702008 0)
(0.389568 0.00301066 0)
(0.390392 -0.00169273 0)
(0.38887 -0.00733055 0)
(0.384534 -0.0141921 0)
(0.37679 -0.0226433 0)
(0.364896 -0.0331695 0)
(0.347932 -0.046439 0)
(0.324776 -0.0633965 0)
(0.294103 -0.0853888 0)
(0.254464 -0.114302 0)
(0.204573 -0.152609 0)
(0.144045 -0.203025 0)
(0.0750332 -0.26693 0)
(0.00503006 -0.33995 0)
(-0.0497829 -0.402743 0)
(-0.0650915 -0.404638 0)
(-0.028299 -0.238613 0)
(-0.0302677 0.218599 0)
(-0.065467 0.309085 0)
(-0.0370062 0.280507 0)
(0.0257232 0.230082 0)
(0.0964986 0.182303 0)
(0.164272 0.142699 0)
(0.225027 0.111682 0)
(0.277623 0.0879072 0)
(0.322332 0.0697467 0)
(0.36002 0.0558238 0)
(0.391703 0.0450854 0)
(0.418351 0.0367476 0)
(0.440827 0.0302294 0)
(0.459862 0.0250968 0)
(0.476062 0.0210205 0)
(0.48992 0.0177451 0)
(0.501823 0.0150674 0)
(0.512069 0.0128205 0)
(0.52087 0.0108628 0)
(0.528365 0.00906997 0)
(0.534618 0.00732818 0)
(0.539623 0.00552938 0)
(0.543308 0.00356651 0)
(0.545523 0.00132861 0)
(0.546045 -0.00130499 0)
(0.544562 -0.00447283 0)
(0.540662 -0.00834356 0)
(0.53381 -0.0131351 0)
(0.523311 -0.0191456 0)
(0.508262 -0.0268048 0)
(0.487478 -0.0367587 0)
(0.459393 -0.0500106 0)
(0.421951 -0.0681488 0)
(0.372549 -0.0936803 0)
(0.308281 -0.130385 0)
(0.227075 -0.183144 0)
(0.130358 -0.255525 0)
(0.0290817 -0.341586 0)
(-0.0412146 -0.401897 0)
(-0.025202 -0.294338 0)
(0.00180094 0.268515 0)
(0.00533708 0.28024 0)
(0.11223 0.202458 0)
(0.229397 0.141609 0)
(0.326131 0.0998669 0)
(0.403293 0.0712773 0)
(0.464704 0.0517907 0)
(0.513418 0.03843 0)
(0.55212 0.0290998 0)
(0.58306 0.0224397 0)
(0.607991 0.017588 0)
(0.628252 0.0139907 0)
(0.644861 0.0112829 0)
(0.658599 0.00921718 0)
(0.670064 0.00762022 0)
(0.679711 0.00636614 0)
(0.687886 0.00536006 0)
(0.694841 0.00452757 0)
(0.700757 0.00380788 0)
(0.705746 0.00314912 0)
(0.709862 0.00250505 0)
(0.713107 0.00183252 0)
(0.715427 0.00108937 0)
(0.716716 0.000232284 0)
(0.716811 -0.000785671 0)
(0.715485 -0.00201847 0)
(0.712436 -0.00353235 0)
(0.70727 -0.00541425 0)
(0.699466 -0.00778615 0)
(0.68833 -0.0108301 0)
(0.672909 -0.0148341 0)
(0.651857 -0.0202784 0)
(0.62321 -0.0280057 0)
(0.584029 -0.039558 0)
(0.52995 -0.0578235 0)
(0.454882 -0.0880986 0)
(0.350513 -0.139128 0)
(0.209524 -0.221206 0)
(0.0640035 -0.32504 0)
(0.0290456 -0.314703 0)
(0.293829 0.143433 0)
(0.382809 0.125898 0)
(0.535979 0.0770721 0)
(0.651301 0.0459601 0)
(0.7222 0.0280466 0)
(0.768225 0.0175336 0)
(0.800233 0.0113121 0)
(0.823233 0.00758234 0)
(0.840168 0.00527983 0)
(0.85295 0.00380404 0)
(0.862809 0.00282268 0)
(0.870552 0.00214859 0)
(0.876732 0.00167279 0)
(0.881736 0.00132919 0)
(0.885843 0.00107579 0)
(0.889255 0.000884568 0)
(0.892118 0.000735777 0)
(0.894535 0.000614766 0)
(0.896574 0.000510061 0)
(0.898277 0.000412185 0)
(0.899659 0.000312873 0)
(0.900713 0.000204535 0)
(0.901412 7.98122e-05 0)
(0.901704 -6.88162e-05 0)
(0.901518 -0.000249503 0)
(0.900755 -0.000471675 0)
(0.899287 -0.000747033 0)
(0.896949 -0.00109122 0)
(0.893522 -0.00152678 0)
(0.888713 -0.00208861 0)
(0.882114 -0.00283476 0)
(0.873124 -0.00386898 0)
(0.860806 -0.00539125 0)
(0.843586 -0.00781543 0)
(0.818657 -0.0120454 0)
(0.780765 -0.0201046 0)
(0.718217 -0.0364244 0)
(0.604519 -0.0696144 0)
(0.43209 -0.127111 0)
(0.316872 -0.151683 0)
)
;

boundaryField
{
    movingWall
    {
        type            fixedValue;
        value           uniform (1 0 0);
    }
    fixedWalls
    {
        type            noSlip;
    }
    frontAndBack
    {
        type            empty;
    }
}


// ************************************************************************* //
