1.275 	2.15223e-18 	-2.76991e-20 	0.467682 	-0.0129211 	-7.04136e-23
1.825 	2.15223e-18 	-1.39322e-20 	0.703817 	-0.00719011 	-2.95314e-22
2.375 	2.15223e-18 	-2.66896e-23 	0.868888 	-0.00366798 	-1.43359e-23
