/*--------------------------------*- C++ -*----------------------------------*\
  =========                 |
  \\      /  F ield         | OpenFOAM: The Open Source CFD Toolbox
   \\    /   O peration     | Website:  https://openfoam.org
    \\  /    A nd           | Version:  6.0
     \\/     M anipulation  |
\*---------------------------------------------------------------------------*/
FoamFile
{
    version     2.0;
    format      ascii;
    class       surfaceScalarField;
    location    "5.6";
    object      phi;
}
// * * * * * * * * * * * * * * * * * * * * * * * * * * * * * * * * * * * * * //

dimensions      [0 3 -1 0 0 0 0];

internalField   nonuniform List<scalar> 
68636
(
3.02283e-05
0.00310561
1.63881e-09
6.08422e-05
0.00307074
9.1091e-05
0.00300252
0.00012048
0.00290145
0.000148622
0.00276857
0.000175172
0.00260534
0.000199815
0.00241356
0.000222267
0.00219536
0.000242271
0.00195315
0.000259598
0.00168961
0.000274052
0.00140761
0.000285472
0.00111024
0.000293736
0.000800789
0.000298723
0.000482412
0.000157092
0.000299656
2.99494e-05
0.00307565
7.02369e-09
6.02857e-05
0.0030404
9.02596e-05
0.00297254
0.000119381
0.00287233
0.000147267
0.00274069
0.000173574
0.00257904
0.000197993
0.00238914
0.00022024
0.00217312
0.000240061
0.00193334
0.00025723
0.00167244
0.000271553
0.00139329
0.000282868
0.00109893
0.000291074
0.000792589
0.000295928
0.000477566
0.000156098
0.000296937
2.96726e-05
0.00304597
1.25662e-08
5.97336e-05
0.00301034
8.94354e-05
0.00294284
0.000118293
0.00284347
0.000145926
0.00271305
0.000171994
0.00255297
0.00019619
0.00236495
0.000218234
0.00215107
0.000237874
0.0019137
0.000254887
0.00165543
0.00026908
0.0013791
0.000280289
0.00108771
0.000288421
0.000784455
0.000293279
0.000472704
0.000154882
0.000294484
2.93981e-05
0.00301655
1.81106e-08
5.91865e-05
0.00298055
8.86188e-05
0.00291341
0.000117214
0.00281488
0.000144596
0.00268567
0.000170428
0.00252714
0.000194404
0.00234097
0.000216247
0.00212923
0.000235708
0.00189424
0.000252565
0.00163857
0.000266628
0.00136504
0.000277733
0.00107661
0.000285784
0.000776406
0.000290631
0.000467861
0.000153568
0.000291952
2.91261e-05
0.0029874
2.36826e-08
5.86443e-05
0.00295104
8.78095e-05
0.00288424
0.000116145
0.00278654
0.000143279
0.00265854
0.000168875
0.00250154
0.000192634
0.00231721
0.000214278
0.00210758
0.00023356
0.00187495
0.000250263
0.00162187
0.000264198
0.0013511
0.0002752
0.00106561
0.000283169
0.000768435
0.00028798
0.000463045
0.000152163
0.000289373
2.88565e-05
0.00295852
2.90779e-08
5.81068e-05
0.00292179
8.70073e-05
0.00285534
0.000115086
0.00275846
0.000141973
0.00263165
0.000167337
0.00247618
0.000190879
0.00229367
0.000212325
0.00208614
0.000231432
0.00185585
0.000247982
0.00160532
0.000261789
0.0013373
0.000272692
0.0010547
0.00028058
0.000760548
0.000285348
0.000458278
0.000150727
0.000286787
2.85893e-05
0.00292989
3.42766e-08
5.75741e-05
0.0028928
8.62122e-05
0.00282671
0.000114036
0.00273064
0.000140679
0.00260501
0.000165812
0.00245104
0.00018914
0.00227035
0.000210391
0.00206489
0.000229323
0.00183691
0.000245722
0.00158892
0.000259403
0.00132361
0.000270207
0.0010439
0.000278017
0.000752735
0.00028274
0.000453551
0.000149256
0.000284201
2.83245e-05
0.00290153
3.92373e-08
5.70462e-05
0.00286408
8.54243e-05
0.00279833
0.000112995
0.00270307
0.000139397
0.00257861
0.000164301
0.00242614
0.000187416
0.00224723
0.000208473
0.00204383
0.000227233
0.00181815
0.000243482
0.00157267
0.000257039
0.00131006
0.000267744
0.00103319
0.00027548
0.000745
0.000280157
0.000448875
0.00014779
0.000281626
2.80622e-05
0.00287342
4.3912e-08
5.65231e-05
0.00283562
8.46435e-05
0.00277021
0.000111964
0.00267574
0.000138126
0.00255245
0.000162804
0.00240146
0.000185708
0.00222433
0.000206574
0.00202296
0.000225162
0.00179957
0.000241263
0.00155657
0.000254696
0.00129662
0.000265304
0.00102258
0.000272968
0.000737335
0.000277601
0.000444239
0.000146309
0.000279072
2.78024e-05
0.00284557
4.83202e-08
5.60047e-05
0.00280742
8.38698e-05
0.00274234
0.000110942
0.00264867
0.000136866
0.00252652
0.000161319
0.00237701
0.000184015
0.00220163
0.000204691
0.00200229
0.00022311
0.00178115
0.000239064
0.00154062
0.000252374
0.00128331
0.000262886
0.00101207
0.000270479
0.000729743
0.00027507
0.000439649
0.000144836
0.000276544
2.7545e-05
0.00281798
5.24465e-08
5.54911e-05
0.00277947
8.31031e-05
0.00271473
0.00010993
0.00262184
0.000135617
0.00250084
0.000159849
0.00235277
0.000182338
0.00217914
0.000202825
0.0019818
0.000221076
0.00176289
0.000236885
0.00152481
0.000250073
0.00127013
0.000260491
0.00100165
0.000268014
0.000722217
0.000272564
0.000435097
0.000143352
0.00027404
2.729e-05
0.00279063
5.6296e-08
5.49822e-05
0.00275178
8.23433e-05
0.00268737
0.000108926
0.00259526
0.00013438
0.00247538
0.000158391
0.00232876
0.000180675
0.00215686
0.000200976
0.0019615
0.000219061
0.00174481
0.000234725
0.00150914
0.000247793
0.00125706
0.000258116
0.000991329
0.000265572
0.000714763
0.000270081
0.000430588
0.000141877
0.000271558
2.70374e-05
0.00276353
5.98906e-08
5.44779e-05
0.00272434
8.15904e-05
0.00266026
0.000107932
0.00256892
0.000133154
0.00245016
0.000156946
0.00230497
0.000179028
0.00213478
0.000199143
0.00194138
0.000217064
0.00172689
0.000232586
0.00149362
0.000245535
0.00124411
0.000255764
0.000981098
0.000263152
0.000707373
0.000267622
0.000426115
0.000140394
0.000269097
2.67872e-05
0.00273668
6.32501e-08
5.39782e-05
0.00269715
8.08442e-05
0.00263339
0.000106946
0.00254282
0.000131939
0.00242516
0.000155515
0.00228139
0.000177395
0.00211289
0.000197328
0.00192145
0.000215085
0.00170913
0.000230466
0.00147824
0.000243297
0.00123128
0.000253433
0.000970962
0.000260754
0.000700053
0.000265185
0.000421685
0.000138924
0.000266656
2.65393e-05
0.00271008
6.64177e-08
5.34831e-05
0.0026702
8.01048e-05
0.00260677
0.000105969
0.00251695
0.000130735
0.0024004
0.000154096
0.00225803
0.000175778
0.00209121
0.000195529
0.0019017
0.000213124
0.00169154
0.000228365
0.001463
0.000241079
0.00121856
0.000251124
0.000960917
0.000258378
0.000692797
0.00026277
0.000417292
0.000137453
0.000264235
2.62938e-05
0.00268371
6.94498e-08
5.29924e-05
0.0026435
7.9372e-05
0.00258039
0.000105001
0.00249132
0.000129542
0.00237586
0.00015269
0.00223488
0.000174174
0.00206973
0.000193746
0.00188213
0.000211181
0.0016741
0.000226283
0.0014479
0.000238882
0.00120596
0.000248835
0.000950964
0.000256025
0.000685607
0.000260377
0.00041294
0.000135998
0.000261832
2.60505e-05
0.00265759
7.24083e-08
5.25062e-05
0.00261705
7.86459e-05
0.00255425
0.000104042
0.00246593
0.000128359
0.00235154
0.000151297
0.00221195
0.000172586
0.00204844
0.000191979
0.00186273
0.000209256
0.00165682
0.000224221
0.00143293
0.000236705
0.00119348
0.000246568
0.0009411
0.000253693
0.000678482
0.000258006
0.000408625
0.000134548
0.000259451
2.58095e-05
0.00263171
7.53585e-08
5.20244e-05
0.00259083
7.79263e-05
0.00252835
0.000103091
0.00244076
0.000127187
0.00232744
0.000149916
0.00218922
0.000171011
0.00202735
0.000190228
0.00184352
0.000207348
0.0016397
0.000222177
0.0014181
0.000234548
0.00118111
0.000244321
0.000931327
0.000251382
0.000671421
0.000255657
0.000404351
0.000133115
0.000257091
2.55707e-05
0.00260606
7.83632e-08
5.1547e-05
0.00256486
7.72131e-05
0.00250268
0.000102149
0.00241583
0.000126026
0.00230357
0.000148548
0.00216669
0.000169451
0.00200644
0.000188493
0.00182447
0.000205458
0.00162274
0.000220152
0.00140341
0.00023241
0.00116885
0.000242095
0.000921641
0.000249093
0.000664423
0.00025333
0.000400112
0.000131686
0.000254754
2.53341e-05
0.00258064
8.14697e-08
5.10739e-05
0.00253912
7.65064e-05
0.00247725
0.000101215
0.00239112
0.000124875
0.00227991
0.000147192
0.00214438
0.000167905
0.00198573
0.000186774
0.0018056
0.000203585
0.00160593
0.000218145
0.00138885
0.000230292
0.0011567
0.000239889
0.000912045
0.000246824
0.000657488
0.000251024
0.000395913
0.000130273
0.000252438
2.50996e-05
0.00255546
8.47106e-08
5.0605e-05
0.00251361
7.58061e-05
0.00245205
0.00010029
0.00236664
0.000123734
0.00225646
0.000145849
0.00212226
0.000166373
0.0019652
0.000185071
0.00178691
0.000201729
0.00158927
0.000216157
0.00137442
0.000228194
0.00114467
0.000237704
0.000902534
0.000244576
0.000650615
0.000248739
0.000391749
0.000128864
0.000250143
2.48672e-05
0.0025305
8.80968e-08
5.01404e-05
0.00248834
7.5112e-05
0.00242708
9.9373e-05
0.00234237
0.000122604
0.00223323
0.000144517
0.00210035
0.000164855
0.00194487
0.000183383
0.00176838
0.000199889
0.00157276
0.000214187
0.00136012
0.000226114
0.00113274
0.000235538
0.000893111
0.000242349
0.000643805
0.000246475
0.000387624
0.000127471
0.00024787
2.46369e-05
0.00250577
9.16183e-08
4.968e-05
0.00246329
7.44242e-05
0.00240233
9.84644e-05
0.00231833
0.000121484
0.00221021
0.000143198
0.00207864
0.000163351
0.00192471
0.00018171
0.00175002
0.000198067
0.00155641
0.000212235
0.00134595
0.000224054
0.00112092
0.000233392
0.000883772
0.000240142
0.000637055
0.000244231
0.000383534
0.000126082
0.000245616
2.44087e-05
0.00248127
9.52456e-08
4.92237e-05
0.00243848
7.37426e-05
0.00237781
9.75639e-05
0.00229451
0.000120374
0.0021874
0.00014189
0.00205712
0.00016186
0.00190474
0.000180053
0.00173183
0.000196261
0.0015402
0.0002103
0.00133191
0.000222012
0.00110921
0.000231266
0.000874518
0.000237955
0.000630367
0.000242008
0.000379481
0.000124709
0.000243382
2.41825e-05
0.00245699
9.89376e-08
4.87715e-05
0.00241389
7.30671e-05
0.00235352
9.66716e-05
0.00227091
0.000119274
0.0021648
0.000140595
0.0020358
0.000160383
0.00188495
0.000178411
0.0017138
0.000194472
0.00152414
0.000208384
0.001318
0.00021999
0.0010976
0.00022916
0.000865348
0.000235788
0.000623738
0.000239805
0.000375463
0.000123344
0.000241168
2.39584e-05
0.00243293
1.02642e-07
4.83234e-05
0.00238953
7.23977e-05
0.00232944
9.57873e-05
0.00224752
0.000118184
0.00214241
0.000139311
0.00201467
0.00015892
0.00186535
0.000176784
0.00169593
0.000192699
0.00150822
0.000206484
0.00130422
0.000217985
0.0010861
0.000227072
0.000856261
0.000233642
0.000617169
0.000237623
0.000371482
0.000121994
0.000238974
2.37362e-05
0.00240908
1.0631e-07
4.78793e-05
0.00236538
7.17343e-05
0.00230559
9.4911e-05
0.00222434
0.000117104
0.00212021
0.000138039
0.00199374
0.00015747
0.00184591
0.000175171
0.00167823
0.000190942
0.00149245
0.000204602
0.00129056
0.000215999
0.0010747
0.000225004
0.000847256
0.000231514
0.000610659
0.00023546
0.000367536
0.000120652
0.000236799
2.3516e-05
0.00238546
1.09891e-07
4.74392e-05
0.00234146
7.1077e-05
0.00228195
9.40427e-05
0.00220138
0.000116034
0.00209822
0.000136778
0.00197299
0.000156032
0.00182666
0.000173573
0.00166069
0.000189201
0.00147683
0.000202738
0.00127702
0.000214031
0.00106341
0.000222955
0.000838333
0.000229406
0.000604207
0.000233317
0.000363626
0.000119326
0.000234645
2.32978e-05
0.00236205
1.13347e-07
4.70031e-05
0.00231775
7.04255e-05
0.00225853
9.31822e-05
0.00217862
0.000114973
0.00207643
0.000135529
0.00195244
0.000154608
0.00180758
0.00017199
0.00164331
0.000187476
0.00146134
0.00020089
0.0012636
0.000212081
0.00105222
0.000220924
0.00082949
0.000227318
0.000597813
0.000231194
0.000359749
0.000118007
0.000232511
2.30815e-05
0.00233885
1.16646e-07
4.65709e-05
0.00229427
6.978e-05
0.00223532
9.23295e-05
0.00215607
0.000113922
0.00205484
0.000134291
0.00193207
0.000153197
0.00178868
0.000170421
0.00162609
0.000185766
0.00144599
0.000199059
0.00125031
0.000210149
0.00104113
0.000218912
0.000820727
0.000225248
0.000591477
0.00022909
0.000355908
0.000116702
0.000230396
2.28672e-05
0.00231586
1.1977e-07
4.61426e-05
0.00227099
6.91403e-05
0.00221232
9.14846e-05
0.00213373
0.000112881
0.00203344
0.000133065
0.00191188
0.000151799
0.00176994
0.000168867
0.00160902
0.000184073
0.00143079
0.000197245
0.00123714
0.000208234
0.00103014
0.000216918
0.000812043
0.000223198
0.000585198
0.000227005
0.0003521
0.000115405
0.0002283
2.26548e-05
0.00229308
1.22714e-07
4.57181e-05
0.00224793
6.85065e-05
0.00218953
9.06473e-05
0.00211159
0.000111849
0.00201224
0.00013185
0.00189188
0.000150414
0.00175138
0.000167326
0.00159211
0.000182394
0.00141572
0.000195447
0.00122409
0.000206337
0.00101925
0.000214942
0.000803438
0.000221166
0.000578975
0.000224939
0.000348326
0.000114121
0.000226224
2.24443e-05
0.00227051
1.25485e-07
4.52976e-05
0.00222507
6.78783e-05
0.00216695
8.98176e-05
0.00208965
0.000110827
0.00199123
0.000130645
0.00187206
0.000149041
0.00173298
0.0001658
0.00157535
0.000180731
0.00140079
0.000193666
0.00121115
0.000204457
0.00100846
0.000212985
0.00079491
0.000219152
0.000572808
0.000222892
0.000344586
0.000112846
0.000224166
2.22357e-05
0.00224815
1.28102e-07
4.48808e-05
0.00220243
6.72559e-05
0.00214458
8.89955e-05
0.00206791
0.000109813
0.00197041
0.000129452
0.00185243
0.00014768
0.00171475
0.000164287
0.00155874
0.000179083
0.00138599
0.0001919
0.00119834
0.000202594
0.000997765
0.000211045
0.00078646
0.000217157
0.000566696
0.000220864
0.000340879
0.000111584
0.000222126
2.2029e-05
0.00222599
1.30595e-07
4.44678e-05
0.00217999
6.66391e-05
0.00212241
8.81808e-05
0.00204636
0.000108809
0.00194978
0.000128269
0.00183297
0.000146332
0.00169669
0.000162788
0.00154228
0.00017745
0.00137133
0.000190151
0.00118564
0.000200749
0.000987168
0.000209123
0.000778086
0.00021518
0.000560639
0.000218854
0.000337205
0.000110331
0.000220106
2.18242e-05
0.00220403
1.33002e-07
4.40585e-05
0.00215776
6.60279e-05
0.00210044
8.73736e-05
0.00202502
0.000107814
0.00192934
0.000127098
0.00181368
0.000144996
0.00167879
0.000161303
0.00152598
0.000175832
0.0013568
0.000188418
0.00117305
0.00019892
0.000976667
0.000207218
0.000769787
0.000213221
0.000554636
0.000216862
0.000333564
0.000109091
0.000218103
2.16213e-05
0.00218228
1.35366e-07
4.3653e-05
0.00213572
6.54223e-05
0.00207867
8.65737e-05
0.00200387
0.000106828
0.00190909
0.000125937
0.00179457
0.000143673
0.00166106
0.000159832
0.00150982
0.000174229
0.00134241
0.000186701
0.00116058
0.000197107
0.000966261
0.000205331
0.000761563
0.00021128
0.000548687
0.000214889
0.000329956
0.00010786
0.000216119
2.14203e-05
0.00216072
1.37727e-07
4.32512e-05
0.00211389
6.48222e-05
0.0020571
8.5781e-05
0.00198291
0.000105852
0.00188902
0.000124786
0.00177564
0.000142361
0.00164348
0.000158373
0.00149381
0.00017264
0.00132814
0.000184999
0.00114822
0.000195312
0.000955948
0.000203462
0.000753413
0.000209357
0.000542792
0.000212934
0.000326379
0.000106642
0.000214153
2.12211e-05
0.00213936
1.40126e-07
4.2853e-05
0.00209226
6.42275e-05
0.00203572
8.49956e-05
0.00196214
0.000104884
0.00186913
0.000123646
0.00175688
0.000141061
0.00162607
0.000156929
0.00147794
0.000171066
0.001314
0.000183313
0.00113597
0.000193532
0.000945729
0.000201609
0.000745337
0.000207452
0.00053695
0.000210996
0.000322834
0.000105432
0.000212206
2.10237e-05
0.00211819
1.42593e-07
4.24585e-05
0.00207083
6.36383e-05
0.00201454
8.42173e-05
0.00194156
0.000103924
0.00184942
0.000122516
0.00173829
0.000139774
0.00160881
0.000155497
0.00146222
0.000169506
0.00129999
0.000181642
0.00112383
0.000191769
0.000935603
0.000199773
0.000737333
0.000205563
0.000531159
0.000209077
0.000319321
0.000104234
0.000210275
2.08281e-05
0.00209722
1.45147e-07
4.20676e-05
0.00204959
6.30544e-05
0.00199356
8.34461e-05
0.00192117
0.000102974
0.0018299
0.000121397
0.00171986
0.000138497
0.00159171
0.000154078
0.00144664
0.00016796
0.00128611
0.000179987
0.00111181
0.000190022
0.000925568
0.000197954
0.000729402
0.000203692
0.000525421
0.000207174
0.000315839
0.000103045
0.000208363
2.06343e-05
0.00207644
1.47796e-07
4.16802e-05
0.00202854
6.24759e-05
0.00197276
8.2682e-05
0.00190096
0.000102032
0.00181055
0.000120288
0.00170161
0.000137233
0.00157476
0.000152672
0.0014312
0.000166429
0.00127235
0.000178347
0.00109989
0.000188291
0.000915623
0.000196151
0.000721542
0.000201838
0.000519734
0.00020529
0.000312388
0.000101867
0.000206468
2.04423e-05
0.00205584
1.50536e-07
4.12964e-05
0.00200769
6.19027e-05
0.00195215
8.19248e-05
0.00188094
0.000101099
0.00179137
0.000119188
0.00168352
0.00013598
0.00155797
0.000151279
0.0014159
0.000164911
0.00125872
0.000176721
0.00108808
0.000186576
0.000905768
0.000194366
0.000713754
0.000200002
0.000514099
0.000203422
0.000308968
0.000100699
0.00020459
2.02521e-05
0.00203544
1.53351e-07
4.09161e-05
0.00198702
6.13346e-05
0.00193173
8.11745e-05
0.0018611
0.000100174
0.00177237
0.000118099
0.00166559
0.000134738
0.00154133
0.000149899
0.00140074
0.000163407
0.00124521
0.000175111
0.00107638
0.000184877
0.000896002
0.000192596
0.000706034
0.000198182
0.000508513
0.000201572
0.000305577
9.95415e-05
0.000202729
2.00636e-05
0.00201522
1.56216e-07
4.05393e-05
0.00196655
6.07718e-05
0.0019115
8.0431e-05
0.00184144
9.9258e-05
0.00175354
0.00011702
0.00164783
0.000133508
0.00152484
0.000148531
0.00138571
0.000161918
0.00123183
0.000173515
0.00106478
0.000183193
0.000886325
0.000190843
0.000698385
0.000196378
0.000502978
0.000199738
0.000302218
9.83942e-05
0.000200886
1.98769e-05
0.00199518
1.59098e-07
4.0166e-05
0.00194626
6.02141e-05
0.00189145
7.96944e-05
0.00182196
9.83501e-05
0.00173489
0.000115951
0.00163023
0.000132289
0.00150851
0.000147176
0.00137083
0.000160441
0.00121856
0.000171934
0.00105329
0.000181524
0.000876734
0.000189105
0.000690804
0.000194591
0.000497492
0.000197921
0.000298888
9.72566e-05
0.000199059
1.96919e-05
0.00197533
1.61961e-07
3.97961e-05
0.00192615
5.96615e-05
0.00187159
7.89644e-05
0.00180266
9.74505e-05
0.0017164
0.000114891
0.00161279
0.000131081
0.00149232
0.000145833
0.00135608
0.000158978
0.00120542
0.000170367
0.0010419
0.000179871
0.00086723
0.000187384
0.000683292
0.000192821
0.000492056
0.000196121
0.000295588
9.61293e-05
0.000197249
1.95086e-05
0.00195566
1.64768e-07
3.94295e-05
0.00190623
5.9114e-05
0.0018519
7.82412e-05
0.00178353
9.65591e-05
0.00169808
0.000113841
0.00159551
0.000129885
0.00147627
0.000144503
0.00134146
0.000157529
0.00119239
0.000168815
0.00103061
0.000178233
0.000857812
0.000185678
0.000675847
0.000191067
0.000486668
0.000194338
0.000292316
9.50112e-05
0.000195456
1.9327e-05
0.00193616
1.67483e-07
3.90663e-05
0.00188649
5.85715e-05
0.0018324
7.75245e-05
0.00176458
9.56758e-05
0.00167993
0.000112801
0.00157838
0.000128699
0.00146038
0.000143185
0.00132697
0.000156093
0.00117948
0.000167277
0.00101943
0.00017661
0.000848479
0.000183988
0.000668469
0.000189328
0.000481329
0.00019257
0.000289075
9.39035e-05
0.000193679
1.9147e-05
0.00191684
1.70077e-07
3.87065e-05
0.00186694
5.80339e-05
0.00181307
7.68144e-05
0.0017458
9.48006e-05
0.00166195
0.00011177
0.00156141
0.000127524
0.00144462
0.000141878
0.00131262
0.00015467
0.00116669
0.000165753
0.00100835
0.000175002
0.000839229
0.000182314
0.000661158
0.000187606
0.000476036
0.000190819
0.000285861
9.28043e-05
0.000191918
1.89687e-05
0.0018977
1.72531e-07
3.83499e-05
0.00184755
5.75012e-05
0.00179392
7.61107e-05
0.00172719
9.39334e-05
0.00164413
0.000110749
0.0015446
0.00012636
0.00142901
0.000140584
0.00129839
0.00015326
0.00115402
0.000164243
0.000997365
0.000173409
0.000830064
0.000180655
0.000653912
0.0001859
0.000470792
0.000189084
0.000282677
9.17157e-05
0.000190174
1.87921e-05
0.00187874
1.74832e-07
3.79966e-05
0.00182835
5.69734e-05
0.00177494
7.54135e-05
0.00170875
9.30741e-05
0.00162646
0.000109737
0.00152793
0.000125206
0.00141354
0.000139302
0.0012843
0.000151863
0.00114146
0.000162746
0.000986481
0.00017183
0.00082098
0.000179011
0.000646731
0.000184209
0.000465594
0.000187365
0.00027952
9.06351e-05
0.000188446
1.8617e-05
0.00185994
1.76983e-07
3.76465e-05
0.00180932
5.64504e-05
0.00175614
7.47227e-05
0.00169048
9.22227e-05
0.00160896
0.000108734
0.00151142
0.000124063
0.00139821
0.000138031
0.00127033
0.000150478
0.00112901
0.000161264
0.000975696
0.000170266
0.000811979
0.000177382
0.000639615
0.000182533
0.000460444
0.000185662
0.000276393
8.95655e-05
0.000186733
1.84436e-05
0.00184132
1.78997e-07
3.72997e-05
0.00179046
5.59323e-05
0.00173751
7.40382e-05
0.00167237
9.13791e-05
0.00159162
0.000107741
0.00149506
0.00012293
0.00138302
0.000136772
0.00125649
0.000149107
0.00111667
0.000159795
0.000965008
0.000168716
0.000803059
0.000175768
0.000632562
0.000180874
0.000455338
0.000183974
0.000273292
8.85034e-05
0.000185036
1.82718e-05
0.00182287
1.80898e-07
3.6956e-05
0.00177178
5.54188e-05
0.00171904
7.336e-05
0.00165443
9.05432e-05
0.00157444
0.000106756
0.00147885
0.000121808
0.00136797
0.000135524
0.00124277
0.000147748
0.00110445
0.00015834
0.000954417
0.00016718
0.000794219
0.000174169
0.000625574
0.000179229
0.00045028
0.000182302
0.000270219
8.74524e-05
0.000183355
1.81015e-05
0.00180458
1.82716e-07
3.66154e-05
0.00175327
5.49101e-05
0.00170075
7.26879e-05
0.00163665
8.97149e-05
0.00155741
0.000105781
0.00146278
0.000120696
0.00135306
0.000134288
0.00122918
0.000146401
0.00109234
0.000156898
0.00094392
0.000165658
0.000785458
0.000172585
0.000618647
0.000177599
0.000445265
0.000180645
0.000267173
8.64084e-05
0.000181689
1.79328e-05
0.00178646
1.84486e-07
3.6278e-05
0.00173492
5.4406e-05
0.00168262
7.2022e-05
0.00161904
8.88942e-05
0.00154054
0.000104814
0.00144686
0.000119595
0.00133828
0.000133064
0.00121571
0.000145067
0.00108034
0.000155469
0.000933519
0.000164151
0.000776777
0.000171015
0.000611783
0.000175985
0.000440296
0.000179004
0.000264155
8.53757e-05
0.000180038
1.77657e-05
0.00176851
1.86242e-07
3.59436e-05
0.00171674
5.39065e-05
0.00166466
7.13622e-05
0.00160158
8.80811e-05
0.00152382
0.000103857
0.00143109
0.000118503
0.00132363
0.00013185
0.00120236
0.000143745
0.00106844
0.000154053
0.000923212
0.000162657
0.000768173
0.00016946
0.00060498
0.000174385
0.000435371
0.000177377
0.000261162
8.43495e-05
0.000178403
1.76001e-05
0.00175072
1.88019e-07
3.56123e-05
0.00169873
5.34116e-05
0.00164686
7.07085e-05
0.00158429
8.72754e-05
0.00150726
0.000102908
0.00141546
0.000117421
0.00130912
0.000130648
0.00118914
0.000142435
0.00105665
0.00015265
0.000912997
0.000161177
0.000759647
0.000167919
0.000598239
0.0001728
0.00043049
0.000175766
0.000258198
8.33348e-05
0.000176782
1.7436e-05
0.0017331
1.8984e-07
3.52841e-05
0.00168088
5.29212e-05
0.00162922
7.00607e-05
0.00156715
8.64771e-05
0.00149084
0.000101968
0.00139996
0.00011635
0.00129474
0.000129457
0.00117603
0.000141138
0.00104497
0.000151261
0.000902874
0.00015971
0.000751197
0.000166392
0.000591558
0.00017123
0.000425653
0.000174169
0.000255258
8.23261e-05
0.000175177
1.72734e-05
0.00171563
1.91725e-07
3.49588e-05
0.0016632
5.24353e-05
0.00161175
6.94189e-05
0.00155016
8.56861e-05
0.00147457
0.000101036
0.00138462
0.000115288
0.00128048
0.000128276
0.00116304
0.000139852
0.0010334
0.000149884
0.000892843
0.000158257
0.000742824
0.000164879
0.000584937
0.000169674
0.000420859
0.000172587
0.000252345
8.13289e-05
0.000173586
1.71123e-05
0.00169833
1.93681e-07
3.46365e-05
0.00164567
5.19539e-05
0.00159443
6.8783e-05
0.00153333
8.49024e-05
0.00145845
0.000100113
0.0013694
0.000114236
0.00126636
0.000127107
0.00115017
0.000138578
0.00102193
0.000148519
0.000882902
0.000156818
0.000734525
0.00016338
0.000578375
0.000168132
0.000416107
0.000171019
0.000249457
8.03373e-05
0.00017201
1.69527e-05
0.00168118
1.9571e-07
3.43172e-05
0.00162831
5.14769e-05
0.00157727
6.81529e-05
0.00151666
8.41258e-05
0.00144248
9.91987e-05
0.00135433
0.000113193
0.00125237
0.000125948
0.00113742
0.000137316
0.00101056
0.000147167
0.000873051
0.000155392
0.000726302
0.000161895
0.000571872
0.000166604
0.000411399
0.000169466
0.000246596
7.93574e-05
0.000170449
1.67945e-05
0.00166419
1.97803e-07
3.40008e-05
0.0016111
5.10042e-05
0.00156027
6.75286e-05
0.00150013
8.33564e-05
0.00142665
9.82926e-05
0.0013394
0.000112161
0.0012385
0.0001248
0.00112478
0.000136065
0.000999292
0.000145828
0.000863288
0.000153978
0.000718152
0.000160423
0.000565427
0.000165091
0.000406731
0.000167928
0.000243759
7.83825e-05
0.000168902
1.66378e-05
0.00164735
1.99944e-07
3.36873e-05
0.00159405
5.05359e-05
0.00154342
6.691e-05
0.00148376
8.25941e-05
0.00141097
9.73948e-05
0.0013246
0.000111137
0.00122476
0.000123662
0.00111225
0.000134826
0.000988129
0.000144501
0.000853613
0.000152578
0.000710075
0.000158966
0.00055904
0.000163591
0.000402106
0.000166403
0.000240949
7.74195e-05
0.000167369
1.64825e-05
0.00163066
2.02115e-07
3.33767e-05
0.00157716
5.00719e-05
0.00152672
6.62971e-05
0.00146753
8.18388e-05
0.00139543
9.65053e-05
0.00130993
0.000110123
0.00121114
0.000122535
0.00109984
0.000133598
0.000977066
0.000143186
0.000844025
0.000151191
0.000702071
0.000157521
0.00055271
0.000162106
0.000397521
0.000164893
0.000238161
7.6461e-05
0.00016585
1.63286e-05
0.00161413
2.04293e-07
3.30689e-05
0.00156042
4.96122e-05
0.00151018
6.56898e-05
0.00145146
8.10904e-05
0.00138003
9.56239e-05
0.0012954
0.000109119
0.00119764
0.000121419
0.00108754
0.000132382
0.000966103
0.000141884
0.000834524
0.000149816
0.000694139
0.00015609
0.000546437
0.000160634
0.000392979
0.000163396
0.0002354
7.55144e-05
0.000164345
1.61762e-05
0.00159775
2.06453e-07
3.2764e-05
0.00154383
4.91566e-05
0.00149379
6.50881e-05
0.00143552
8.03489e-05
0.00136477
9.47507e-05
0.00128099
0.000108123
0.00118427
0.000120312
0.00107535
0.000131177
0.000955239
0.000140593
0.000825108
0.000148454
0.000686277
0.000154672
0.000540219
0.000159175
0.000388475
0.000161913
0.000232662
7.4572e-05
0.000162855
1.60252e-05
0.00158152
2.08575e-07
3.24619e-05
0.0015274
4.87053e-05
0.00147754
6.44919e-05
0.00141974
7.96142e-05
0.00134964
9.38855e-05
0.00126672
0.000107137
0.00117102
0.000119216
0.00106328
0.000129983
0.000944473
0.000139314
0.000815776
0.000147105
0.000678487
0.000153267
0.000534058
0.000157731
0.000384013
0.000160444
0.000229949
7.36415e-05
0.000161378
1.58755e-05
0.00156543
2.10638e-07
3.21626e-05
0.00151111
4.82581e-05
0.00146145
6.39013e-05
0.0014041
7.88863e-05
0.00133466
9.30283e-05
0.00125258
0.00010616
0.00115789
0.00011813
0.00105131
0.000128799
0.000933803
0.000138047
0.000806529
0.000145768
0.000670766
0.000151875
0.000527951
0.000156299
0.000379589
0.000158989
0.000227259
7.27148e-05
0.000159914
1.57273e-05
0.00154949
2.12626e-07
3.1866e-05
0.00149497
4.78151e-05
0.0014455
6.3316e-05
0.00138859
7.8165e-05
0.00131981
9.21789e-05
0.00123857
0.000105192
0.00114487
0.000117054
0.00103944
0.000127627
0.00092323
0.000136792
0.000797364
0.000144444
0.000663115
0.000150496
0.0005219
0.000154881
0.000375206
0.000157547
0.000224594
7.18001e-05
0.000158465
1.55804e-05
0.00153369
2.14527e-07
3.15721e-05
0.00147898
4.73761e-05
0.00142969
6.27362e-05
0.00137323
7.74505e-05
0.0013051
9.13374e-05
0.00122468
0.000104233
0.00113198
0.000115988
0.00102769
0.000126466
0.000912752
0.000135548
0.000788282
0.000143132
0.000655531
0.00014913
0.000515901
0.000153475
0.000370861
0.000156118
0.00022195
7.08888e-05
0.000157028
1.54348e-05
0.00151804
2.16335e-07
3.1281e-05
0.00146313
4.69412e-05
0.00141403
6.21617e-05
0.00135801
7.67425e-05
0.00129051
9.05037e-05
0.00121092
0.000103283
0.0011192
0.000114931
0.00101604
0.000125315
0.000902368
0.000134316
0.000779282
0.000141832
0.000648016
0.000147776
0.000509957
0.000152083
0.000366555
0.000154703
0.000219332
6.99896e-05
0.000155605
1.52907e-05
0.00150253
2.18049e-07
3.09925e-05
0.00144743
4.65102e-05
0.00139852
6.15924e-05
0.00134293
7.6041e-05
0.00127607
8.96776e-05
0.00119728
0.000102341
0.00110654
0.000113885
0.0010045
0.000124175
0.000892078
0.000133095
0.000770362
0.000140544
0.000640568
0.000146435
0.000504066
0.000150704
0.000362286
0.0001533
0.000216735
6.90934e-05
0.000154195
1.51478e-05
0.00148717
2.19676e-07
3.07067e-05
0.00143187
4.60833e-05
0.00138314
6.10285e-05
0.00132799
7.5346e-05
0.00126175
8.88592e-05
0.00118377
0.000101408
0.00109399
0.000112848
0.000993059
0.000123046
0.00088188
0.000131886
0.000761522
0.000139267
0.000633187
0.000145107
0.000498227
0.000149337
0.000358057
0.000151911
0.000214163
6.82093e-05
0.000152799
1.50063e-05
0.00147194
2.21225e-07
3.04236e-05
0.00141645
4.56602e-05
0.0013679
6.04697e-05
0.00131318
7.46574e-05
0.00124756
8.80483e-05
0.00117038
0.000100484
0.00108155
0.00011182
0.000981723
0.000121927
0.000871774
0.000130688
0.000752761
0.000138003
0.000625872
0.00014379
0.00049244
0.000147983
0.000353863
0.000150535
0.000211611
6.73278e-05
0.000151415
1.48661e-05
0.00145685
2.22715e-07
3.0143e-05
0.00140118
4.52411e-05
0.0013528
5.99161e-05
0.0012985
7.39751e-05
0.0012335
8.72449e-05
0.00115711
9.95684e-05
0.00106923
0.000110803
0.000970489
0.000120818
0.000861759
0.0001295
0.00074408
0.00013675
0.000618623
0.000142486
0.000486706
0.000146642
0.000349709
0.000149171
0.000209084
6.64585e-05
0.000150044
1.47272e-05
0.0014419
2.24162e-07
2.9865e-05
0.00138604
4.48258e-05
0.00133784
5.93675e-05
0.00128396
7.32992e-05
0.00121957
8.64489e-05
0.00114396
9.86612e-05
0.00105702
0.000109794
0.000959356
0.00011972
0.000851833
0.000128324
0.000735476
0.000135509
0.000611437
0.000141194
0.000481021
0.000145313
0.000345589
0.00014782
0.000206576
6.55915e-05
0.000148685
1.45895e-05
0.00142708
2.25592e-07
2.95896e-05
0.00137104
4.44144e-05
0.00132302
5.88241e-05
0.00126955
7.26295e-05
0.00120577
8.56602e-05
0.00113093
9.77624e-05
0.00104491
0.000108795
0.000948324
0.000118631
0.000841998
0.000127159
0.000726949
0.00013428
0.000604317
0.000139914
0.000475388
0.000143996
0.000341508
0.000146481
0.000204093
6.47366e-05
0.00014734
1.44532e-05
0.0014124
2.27024e-07
2.93168e-05
0.00135618
4.40068e-05
0.00130833
5.82856e-05
0.00125527
7.19659e-05
0.00119209
8.48789e-05
0.00111802
9.68719e-05
0.00103292
0.000107805
0.00093739
0.000117553
0.000832249
0.000126004
0.000718498
0.000133062
0.000597259
0.000138645
0.000469804
0.000142692
0.000337461
0.000145155
0.000201629
6.38837e-05
0.000146007
1.43181e-05
0.00139786
2.28482e-07
2.90464e-05
0.00134145
4.36029e-05
0.00129377
5.77522e-05
0.00124112
7.13086e-05
0.00117853
8.41048e-05
0.00110522
9.59896e-05
0.00102104
0.000106825
0.000926555
0.000116485
0.00082259
0.00012486
0.000710124
0.000131855
0.000590266
0.000137389
0.000464271
0.0001414
0.000333452
0.000143841
0.000199189
6.30431e-05
0.000144686
1.41843e-05
0.00138344
2.2998e-07
2.87786e-05
0.00132685
4.32027e-05
0.00127935
5.72236e-05
0.0012271
7.06572e-05
0.0011651
8.33378e-05
0.00109254
9.51155e-05
0.00100926
0.000105853
0.000915818
0.000115427
0.000813016
0.000123727