1.45 	0 	0 	-0.292131
2.35 	0 	0 	-0.127441
