/*--------------------------------*- C++ -*----------------------------------*\
  =========                 |
  \\      /  F ield         | OpenFOAM: The Open Source CFD Toolbox
   \\    /   O peration     | Website:  https://openfoam.org
    \\  /    A nd           | Version:  6.0
     \\/     M anipulation  |
\*---------------------------------------------------------------------------*/
FoamFile
{
    version     2.0;
    format      ascii;
    class       volScalarField;
    location    "0.3";
    object      p;
}
// * * * * * * * * * * * * * * * * * * * * * * * * * * * * * * * * * * * * * //

dimensions      [0 2 -2 0 0 0 0];

internalField   nonuniform List<scalar> 
1600
(
6.1493e-06
-0.00118064
-0.00390924
-0.00758139
-0.0115247
-0.0152435
-0.01838
-0.0206818
-0.0219817
-0.0221798
-0.0212306
-0.019132
-0.0159176
-0.0116502
-0.00641702
-0.00032589
0.0064983
0.0139162
0.0217765
0.0299183
0.0381735
0.0463695
0.0543319
0.0618879
0.0688698
0.0751192
0.0804915
0.0848608
0.0881256
0.0902143
0.0910919
0.0907673
0.0893008
0.0868134
0.0834985
0.0796347
0.0756026
0.0719105
0.0692268
0.0681112
0.00119887
8.38463e-06
-0.00220812
-0.00505931
-0.00810176
-0.0109703
-0.0133805
-0.0151191
-0.016036
-0.0160353
-0.0150669
-0.0131194
-0.0102136
-0.00639766
-0.00174264
0.00366073
0.00970529
0.01627
0.0232226
0.0304217
0.0377193
0.0449634
0.0520009
0.0586806
0.0648566
0.0703919
0.0751634
0.0790653
0.0820148
0.0839567
0.0848692
0.084769
0.0837181
0.0818296
0.079274
0.0762853
0.0731653
0.0702896
0.0681074
0.0669972
0.00394211
0.0022163
-3.07742e-05
-0.0025897
-0.00521772
-0.0076453
-0.00964892
-0.011057
-0.0117437
-0.0116255
-0.0106562
-0.00882284
-0.0061406
-0.0026493
0.00159021
0.00649898
0.0119826
0.0179335
0.0242335
0.0307558
0.0373675
0.043932
0.0503113
0.0563699
0.0619769
0.0670104
0.0713611
0.074936
0.0776633
0.0794967
0.0804196
0.0804496
0.0796429
0.0780986
0.0759609
0.0734206
0.0707176
0.0681332
0.0659264
0.0643105
0.00770406
0.00509622
0.00245446
-0.000174142
-0.00272848
-0.00500908
-0.00684175
-0.00809482
-0.00866989
-0.00850015
-0.00754892
-0.0058068
-0.00328867
-3.07464e-05
0.00391201
0.00846827
0.0135525
0.019067
0.0249039
0.0309474
0.0370757
0.0431631
0.049083
0.0547103
0.0599248
0.0646139
0.0686769
0.072028
0.0746007
0.0763515
0.0772636
0.0773502
0.0766577
0.0752677
0.0732973
0.0708984
0.0682634
0.0656067
0.063015
0.0605494
0.0118909
0.00825616
0.00504623
0.0021659
-0.000491078
-0.00278135
-0.00457227
-0.00576925
-0.00630118
-0.00611972
-0.00519985
-0.00353861
-0.0011531
0.00192139
0.00563331
0.00991662
0.0146925
0.0198708
0.0253523
0.0310296
0.0367898
0.0425161
0.0480906
0.0533961
0.0583197
0.0627556
0.0666081
0.0697956
0.0722534
0.0739374
0.0748275
0.0749298
0.0742786
0.0729375
0.0709973
0.0685749
0.065824
0.0629073
0.0597527
0.0562873
0.0160765
0.011372
0.00750119
0.00425142
0.00136968
-0.00104381
-0.00288988
-0.00410657
-0.00464813
-0.00448455
-0.0036035
-0.00200993
0.000274954
0.00321484
0.00675959
0.0108464
0.0154012
0.0203397
0.0255686
0.0309875
0.0364903
0.0419667
0.0473048
0.0523934
0.0571241
0.0613949
0.0651126
0.0681966
0.0705812
0.0722194
0.0730852
0.0731755
0.0725119
0.0711402
0.0691276
0.066561
0.0635643
0.0602622
0.0564449
0.0519294
0.0199518
0.0141824
0.00960424
0.00590906
0.0027179
9.93577e-05
-0.00187338
-0.00316599
-0.00375542
-0.00362889
-0.00278678
-0.0012428
0.000976493
0.00383231
0.00727428
0.0112412
0.0156618
0.0204556
0.0255341
0.0308014
0.0361561
0.0414926
0.0467029
0.0516789
0.0563149
0.0605098
0.0641704
0.0672144
0.069573
0.0711937
0.0720427
0.0721068
0.0713944
0.0699346
0.067774
0.0649749
0.0616399
0.0578678
0.0533323
0.0477623
0.0232838
0.0164738
0.0111704
0.00698618
0.00343299
0.000556686
-0.00158921
-0.00299359
-0.00365324
-0.00357113
-0.00275988
-0.00124219
0.000949318
0.00377232
0.00717495
0.0110962
0.0154662
0.0202069
0.0252324
0.0304501
0.0357615
0.0410636
0.0462505
0.0512153
0.0558524
0.0600598
0.063742
0.0668127
0.0691977
0.0708373
0.0716886
0.0717272
0.0709483
0.0693657
0.067008
0.0639182
0.0601843
0.0558891
0.0506066
0.0439944
0.0258904
0.0180669
0.0120351
0.00733951
0.00339455
0.000230003
-0.00211535
-0.00364989
-0.00438772
-0.00434611
-0.00354916
-0.00202849
0.000176828
0.0030202
0.00644738
0.0103964
0.0147977
0.0195742
0.0246415
0.0299085
0.0352783
0.0406489
0.0459147
0.0509683
0.0557023
0.0600119
0.0637972
0.0669662
0.0694371
0.0711415
0.072026
0.0720546
0.0712088
0.0694886
0.0669069
0.0634912
0.0593207
0.0544696
0.0484238
0.040781
0.0276212
0.0188059
0.0120488
0.00683204
0.0024811
-0.000985857
-0.00354121
-0.00520987
-0.00602127
-0.00600568
-0.00519804
-0.00363868
-0.00137328
0.00154678
0.00506417
0.00911518
0.0136295
0.0185299
0.0237326
0.0291468
0.0346757
0.0402171
0.0456642
0.0509075
0.0558364
0.0603413
0.0643164
0.0676618
0.0702869
0.0721125
0.0730737
0.0731217
0.0722249
0.0703695
0.0675547
0.0637955
0.0591663
0.053738
0.0469165
0.0382451
0.0283431
0.0185495
0.0110708
0.00533062
0.0005702
-0.0032011
-0.00596432
-0.00775889
-0.00862809
-0.00861422
-0.0077626
-0.00612208
-0.00374513
-0.000688189
0.00298775
0.0072166
0.0119266
0.0170396
0.0224714
0.0281306
0.0339197
0.0397349
0.0454673
0.0510039
0.0562293
0.0610278
0.0652858
0.0688942
0.0717515
0.0737664
0.0748609
0.0749724
0.0740555
0.0720829
0.0690413
0.0649347
0.0598358
0.0538158
0.0462039
0.0364928
0.0279309
0.0171624
0.0089641
0.00270262
-0.0024633
-0.00653138
-0.00948989
-0.0113916
-0.0122926
-0.0122469
-0.0113098
-0.00953869
-0.00699299
-0.0037345
0.000171748
0.00465678
0.0096468
0.0150624
0.020818
0.0268212
0.0329728
0.0391669
0.0452912
0.0512285
0.0568572
0.0620542
0.0666965
0.070664
0.0738428
0.0761279
0.0774263
0.0776601
0.0767693
0.0747124
0.0714637
0.0670175
0.061446
0.0548232
0.0464022
0.0356251
0.0262589
0.0145096
0.005591
-0.00118745
-0.00674942
-0.011099
-0.0142312
-0.0162115
-0.0171089
-0.0169886
-0.0159162
-0.0139579
-0.0111801
-0.00765032
-0.00343797
0.00138476
0.00674172
0.0125517
0.0187277
0.0251757
0.0317944
0.0384751
0.0451018
0.0515518
0.0576969
0.063405
0.0685424
0.0729764
0.0765789
0.0792288
0.0808168
0.0812476
0.0804446
0.0783514
0.0749287
0.070161
0.0641209
0.0568862
0.0476315
0.0357472
0.0231963
0.0104512
0.00080831
-0.00648128
-0.0124253
-0.0170344
-0.0203101
-0.0223313
-0.0231799
-0.0229331
-0.0216671
-0.0194571
-0.0163771
-0.0125006
-0.00790178
-0.00265613
0.00315764
0.00945646
0.0161516
0.0231474
0.0303405
0.0376191
0.044863
0.0519436
0.0587251
0.0650657
0.0708197
0.0758401
0.0799825
0.0831079
0.0850876
0.0858072
0.0851709
0.0831049
0.0795549
0.0744944
0.0679962
0.060142
0.0500233
0.0369759
0.0186027
0.00483834
-0.00553622
-0.0133299
-0.0196377
-0.0244774
-0.027858
-0.0298726
-0.0306174
-0.0301822
-0.0286547
-0.02612
-0.0226602
-0.0183554
-0.0132844
-0.00752644
-0.00116261
0.00572222
0.0130378
0.0206871
0.0285647
0.0365561
0.0445366
0.0523718
0.0599177
0.067022
0.0735258
0.0792664
0.0840807
0.0878094
0.0903019
0.091421
0.0910489
0.0890913
0.085476
0.080163
0.0732244
0.0647451
0.0537265
0.0394461
0.0123246
-0.00249091
-0.0136076
-0.0218969
-0.0285454
-0.0335793
-0.0370167
-0.0389665
-0.0395409
-0.0388442
-0.0369769
-0.0340349
-0.0301094
-0.0252873
-0.0196527
-0.0132883
-0.00627743
0.00129356
0.00933354
0.0177445
0.0264196
0.0352421
0.0440835
0.0528036
0.0612501
0.0692595
0.076659
0.0832685
0.0889042
0.0933836
0.0965307
0.0981818
0.0981929
0.0964449
0.0928438
0.0873324
0.0799799
0.0708728
0.0589138
0.0433169
0.00419216
-0.0117151
-0.0235876
-0.0323619
-0.0393221
-0.0445049
-0.0479394
-0.0497534
-0.0500777
-0.0490332
-0.0467351
-0.0432921
-0.0388051
-0.0333688
-0.0270724
-0.0200022
-0.0122435
-0.00388328
0.00498728
0.0142702
0.0238583
0.0336333
0.0434641
0.0532053
0.0626966
0.0717634
0.0802178
0.087861
0.0944867
0.0998858
0.103853
0.106194
0.106732
0.105318
0.101832
0.096193
0.0884645
0.0787319
0.065788
0.048778
-0.00598424
-0.0230335
-0.0356784
-0.0449241
-0.0521593
-0.057434
-0.0607919
-0.0623835
-0.0623613
-0.0608667
-0.0580322
-0.0539808
-0.0488251
-0.042668
-0.0356043
-0.0277235
-0.0191121
-0.00985677
-4.75754e-05
0.010219
0.020837
0.0316884
0.0426405
0.0535441
0.0642319
0.0745185
0.0842008
0.09306
0.100865
0.107377
0.112356
0.115572
0.116811
0.115885
0.112639
0.106965
0.0989133
0.0885647
0.0745892
0.0560561
-0.0184181
-0.0366711
-0.0501084
-0.059807
-0.06727
-0.0725647
-0.0757539
-0.0770158
-0.0765306
-0.0744636
-0.0709684
-0.0661853
-0.06024
-0.0532444
-0.0452994
-0.036497
-0.026924
-0.0166655
-0.00580851
0.00555384
0.017319
0.0293712
0.0415786
0.0537897
0.0658321
0.0775107
0.0886072
0.0988821
0.108077
0.115921
0.122136
0.126447
0.128593
0.128344
0.125496
0.119905
0.111602
0.100658
0.0856027
0.0654228
-0.033352
-0.0528851
-0.0671379
-0.0772642
-0.0848933
-0.0901155
-0.0930195
-0.0938186
-0.092727
-0.0899403
-0.0856377
-0.0799797
-0.0731072
-0.0651427
-0.0561927
-0.0463511
-0.0357038
-0.0243323
-0.0123186
0.0002505
0.0132784
0.0266547
0.040251
0.0539167
0.0674765
0.0807271
0.0934368
0.105345
0.116165
0.12559
0.133296
0.138959
0.142264
0.142919
0.140667
0.135312
0.126856
0.115352
0.0991694
0.0772038
-0.0510642
-0.0719728
-0.0870681
-0.0975866
-0.1053
-0.110329
-0.112799
-0.112967
-0.111092
-0.107407
-0.102121
-0.095421
-0.0874644
-0.0783852
-0.0682957
-0.0572907
-0.0454529
-0.032858
-0.01958
-0.00569643
0.00870588
0.0235256
0.0386415
0.0539078
0.0691494
0.0841584
0.0986911
0.112467
0.125171
0.136456
0.14595
0.153267
0.158027
0.159868
0.158459
0.153536
0.14506
0.133051
0.115697
0.09179
-0.0718787
-0.0942838
-0.110252
-0.121112
-0.128798
-0.133476
-0.135319
-0.134644
-0.131764
-0.12696
-0.120481
-0.112541
-0.10332
-0.0929632
-0.0815877
-0.0692878
-0.0561408
-0.0422132
-0.0275671
-0.012267
0.00361445
0.0199895
0.0367491
0.053757
0.0708432
0.0877993
0.104374
0.120268
0.135138
0.148596
0.160214
0.169541
0.176113
0.179482
0.179225
0.174989
0.16667
0.154243
0.135678
0.109652
-0.0961788
-0.120236
-0.137112
-0.148238
-0.155744
-0.159859
-0.160822
-0.15903
-0.154867
-0.148674
-0.140748
-0.131337
-0.120644
-0.108826
-0.0960056
-0.0822729
-0.0676964
-0.0523295
-0.0362182
-0.0194085
-0.00195408
0.0160767
0.0345931
0.053474
0.0725611
0.0916512
0.11049
0.128765
0.146107
0.162085
0.176213
0.187961
0.196774
0.202092
0.203375
0.200153
0.192232
0.179513
0.159708
0.131361
-0.124427
-0.150337
-0.168158
-0.17944
-0.186554
-0.189819
-0.18957
-0.186307
-0.180509
-0.172593
-0.162912
-0.151756
-0.139352
-0.12587
-0.111432
-0.0961236
-0.0799982
-0.0630916
-0.0454278
-0.0270289
-0.00792279
0.0118478
0.0322171
0.0530872
0.0743188
0.095722
0.117047
0.137975
0.158115
0.176995
0.194069
0.20872
0.220283
0.228067
0.231381
0.229599
0.2224
0.209573
0.188514
0.157612
-0.157197
-0.185223
-0.204022
-0.215293
-0.221714
-0.223737
-0.221832
-0.216641
-0.208763
-0.19871
-0.186905
-0.173682
-0.159294
-0.143922
-0.127685
-0.110654
-0.0928649
-0.0743281
-0.0550394
-0.0349896
-0.0141742
0.00739767
0.0296933
0.0526465
0.0761466
0.100027
0.124052
0.147908
0.171188
0.193387
0.213897
0.232009
0.246933
0.257818
0.263784
0.264002
0.257965
0.245297
0.222997
0.189259
-0.195212
-0.2257
-0.2455
-0.256504
-0.261801
-0.262041
-0.257888
-0.250173
-0.239652
-0.226953
-0.21258
-0.196915
-0.180237
-0.162729
-0.144502
-0.125605
-0.106047
-0.0858052
-0.0648396
-0.0431018
-0.0205467
0.00285847
0.0271234
0.0522235
0.078088
0.104585
0.131509
0.158561
0.185334
0.211299
0.235792
0.258011
0.277024
0.291795
0.301205
0.304157
0.299886
0.287768
0.26428
0.227371
-0.239419
-0.272825
-0.293612
-0.30395
-0.307498
-0.305204
-0.298007
-0.286995
-0.273121
-0.257154
-0.239687
-0.221153
-0.201845
-0.181941
-0.161531
-0.140634
-0.11922
-0.0972227
-0.0745564
-0.0511254
-0.026835
-0.00160136
0.0246372
0.0519091
0.0801957
0.109416
0.139408
0.169908
0.200527
0.23073
0.25981
0.286876
0.310848
0.330472
0.344342
0.351005
0.349337
0.338343
0.313794
0.273302
-0.291085
-0.328006
-0.349693
-0.358736
-0.359617
-0.353737
-0.342427
-0.327115
-0.309001
-0.289017
-0.267846
-0.245961
-0.223659
-0.201097
-0.178324
-0.155315
-0.131985
-0.108215
-0.0838617
-0.0587728
-0.0327945
-0.00578292
0.0223862
0.0518057
0.0825235
0.114525
0.147714
0.181883
0.216689
0.251616
0.285939
0.318694
0.348657
0.374331
0.393964
0.405649
0.407761
0.398747
0.373392
0.328805
-0.35197
-0.393177
-0.415514
-0.422253
-0.419106
-0.408164
-0.391308
-0.370406
-0.346959
-0.322069
-0.296502
-0.27075
-0.245084
-0.219614
-0.194328
-0.169131
-0.14387
-0.118357
-0.0923802
-0.0657195
-0.0381535
-0.00946902
0.0205305
0.0520144
0.0851112
0.119892
0.156348
0.194359
0.23366
0.273792
0.314054
0.353445
0.390611
0.423813
0.450893
0.469371
0.476934
0.471203
0.445527
0.396215
-0.424597
-0.471057
-0.493458
-0.496257
-0.487051
-0.46897
-0.444655
-0.416528
-0.386424
-0.355608
-0.324894
-0.294747
-0.265371
-0.236788
-0.208892
-0.181493
-0.154348
-0.127183
-0.0997077
-0.0716232
-0.0426321
-0.0124438
0.0192194
0.0526139
0.0879636
0.125444
0.16516
0.207112
0.251156
0.296945
0.34386
0.390921
0.436704
0.479242
0.51594
0.54362
0.559044
0.558614
0.533528
0.478742
-0.512733
-0.565562
-0.586761
-0.582935
-0.564625
-0.536497
-0.502199
-0.46481
-0.426497
-0.388633
-0.352003
-0.31697
-0.283607
-0.25179
-0.221277
-0.19175
-0.162854
-0.134211
-0.105438
-0.0761508
-0.0459697
-0.01452
0.0185636
0.0536336
0.0910217
0.131027
0.173893
0.219782
0.268722
0.320546
0.3748
0.430629
0.486632
0.540696
0.5898
0.629965
0.656754
0.664804
0.642033
0.580987
-0.62225
-0.682462
-0.699828
-0.684941
-0.652956
-0.61074
-0.563193
-0.514083
-0.465824
-0.419759
-0.376509
-0.336217
-0.298724
-0.263692
-0.230688
-0.19923
-0.168825
-0.138976
-0.109198
-0.0790146
-0.0479598
-0.0155727
0.0186031
0.0550212
0.0941307
0.136369
0.182149
0.231828
0.285669
0.343768
0.405954
0.471637
0.539611
0.607784
0.672831
0.729945
0.773228
0.794845
0.777677
0.709867
-0.762769
-0.830437
-0.838595
-0.805303
-0.752834
-0.691014
-0.626118
-0.562462
-0.502452
-0.447143
-0.396764
-0.351063
-0.309522
-0.271501
-0.236314
-0.203281
-0.171745
-0.14108
-0.110693
-0.0800129
-0.0484886
-0.0155756
0.0192721
0.0566095
0.0970067
0.141051
0.189342
0.242476
0.301009
0.365399
0.435899
0.512387
0.594114
0.679324
0.764687
0.844748
0.912027
0.955411
0.95018
0.876372
-0.950976
-1.02276
-1.0108
-0.946995
-0.864069
-0.775347
-0.688216
-0.607033
-0.533659
-0.468408
-0.41078
-0.359894
-0.314721
-0.274218
-0.237393
-0.203333
-0.171203
-0.140243
-0.109751
-0.0790715
-0.0475728
-0.0146348
0.0203691
0.0580883
0.0992103
0.144474
0.194677
0.250682
0.313398
0.383744
0.46256
0.550451
0.647502
0.752804
0.863641
0.974501
1.07662
1.15502
1.17409
1.09913
-1.21737
-1.27975
-1.22556
-1.11157
-0.984075
-0.859369
-0.744749
-0.643423
-0.555735
-0.480564
-0.416233
-0.360953
-0.313021
-0.270908
-0.233272
-0.198952
-0.166937
-0.136339
-0.106363
-0.0762761
-0.0453863
-0.013013
0.0215355
0.058987
0.100131
0.145846
0.197126
0.255108
0.32109
0.396536
0.483041
0.582226
0.695498
0.823549
0.965364
1.11672
1.26887
1.40355
1.47121
1.41146
-1.61792
-1.63106
-1.49158
-1.29672
-1.10589
-0.934998
-0.788304
-0.665539
-0.563978
-0.480136
-0.410637
-0.352512
-0.303264
-0.260828
-0.223514
-0.189927
-0.158903
-0.129451
-0.100707
-0.0718907
-0.0422689
-0.011126
0.0222699
0.0586989
0.0990251
0.144238
0.195498
0.254197
0.32202
0.401013
0.493647
0.602835
0.731846
0.883961
1.06154
1.26421
1.48651
1.71014
1.87253
1.87302
-2.25456
-2.11601
-1.81355
-1.49436
-1.2174
-0.990508
-0.809411
-0.66645
-0.553624
-0.464012
-0.392067
-0.333471
-0.284903
-0.243804
-0.208187
-0.176483
-0.147427
-0.119971
-0.0932202
-0.0663798
-0.0387102
-0.00949032
0.0220196
0.0566164
0.0951981
0.138817
0.188745
0.246565
0.314287
0.394497
0.490559
0.606847
0.748976
0.923928
1.13976
1.40418
1.72085
2.07931
2.41799
2.58929
-3.35472
-2.78424
-2.17258
-1.67557
-1.29248
-1.00569
-0.794114
-0.637248
-0.519312
-0.429161
-0.358964
-0.303177
-0.257834
-0.220056
-0.1877
-0.159134
-0.133077
-0.108491
-0.0845038
-0.0603468
-0.0353122
-0.00871017
0.0201686
0.0520941
0.0879446
0.128767
0.175856
0.23087
0.29599
0.374158
0.469436
0.587523
0.736494
0.927848
1.17792
1.50824
1.94069
2.49093
3.15908
3.7932
-5.51245
-3.66717
-2.4315
-1.71354
-1.24144
-0.921588
-0.704679
-0.553821
-0.445382
-0.365126
-0.304123
-0.256522
-0.218365
-0.186891
-0.160105
-0.136518
-0.114974
-0.0945479
-0.0744652
-0.0540476
-0.0326708
-0.00972687
0.0154101
0.0434215
0.0750881
0.111347
0.153371
0.202681
0.261322
0.332132
0.419192
0.528565
0.669532
0.856883
1.11518
1.48358
2.01538
2.80602
4.13003
6.08272
-9.19495
-4.52333
-2.30673
-1.42098
-0.959051
-0.68309
-0.512397
-0.400692
-0.323002
-0.266486
-0.223949
-0.190961
-0.164611
-0.142888
-0.124338
-0.10786
-0.0925965
-0.0778481
-0.0630247
-0.047605
-0.0311061
-0.0130568
0.00702772
0.0296733
0.0554788
0.0851571
0.119592
0.159924
0.207671
0.264946
0.33481
0.42193
0.533854
0.683872
0.897611
1.22422
1.75375
2.7338
5.06516
9.85708
)
;

boundaryField
{
    movingWall
    {
        type            zeroGradient;
    }
    fixedWalls
    {
        type            zeroGradient;
    }
    frontAndBack
    {
        type            empty;
    }
}


// ************************************************************************* //
