/*--------------------------------*- C++ -*----------------------------------*\
  =========                 |
  \\      /  F ield         | OpenFOAM: The Open Source CFD Toolbox
   \\    /   O peration     | Website:  https://openfoam.org
    \\  /    A nd           | Version:  6.0
     \\/     M anipulation  |
\*---------------------------------------------------------------------------*/
FoamFile
{
    version     2.0;
    format      ascii;
    class       volVectorField;
    location    "12";
    object      U;
}
// * * * * * * * * * * * * * * * * * * * * * * * * * * * * * * * * * * * * * //

dimensions      [0 1 -1 0 0 0 0];

internalField   nonuniform List<vector> 
2000
(
(-0.00199235 0.00173699 3.46892e-20)
(-0.00760936 0.00329374 3.68302e-20)
(-0.0152853 0.00364188 -3.37848e-20)
(-0.0222385 0.00330471 -6.66507e-20)
(-0.0275151 0.00259375 -4.52045e-20)
(-0.0309658 0.00171284 5.8683e-20)
(-0.032693 0.000808152 3.34171e-20)
(-0.0329684 -1.27124e-05 -1.3245e-20)
(-0.0322163 -0.000669725 -3.24898e-20)
(-0.0307398 -0.00109957 1.91053e-20)
(-0.0024896 0.00511714 -8.59617e-20)
(-0.00835386 0.0096589 1.06099e-19)
(-0.0156707 0.0106375 1.01826e-20)
(-0.0219144 0.009599 -5.71824e-20)
(-0.0262694 0.00745987 2.65611e-19)
(-0.0286626 0.00481916 -1.1391e-19)
(-0.0292447 0.00210747 -1.20476e-19)
(-0.0283141 -0.000354208 1.42419e-19)
(-0.0263132 -0.00232159 -1.38009e-19)
(-0.0236201 -0.0036035 5.61703e-20)
(-0.00343307 0.00821735 1.42799e-20)
(-0.00970186 0.015364 4.5213e-21)
(-0.0162273 0.0167848 3.05849e-19)
(-0.0209995 0.0149751 1.03722e-19)
(-0.0234786 0.0114017 1.99581e-20)
(-0.023743 0.00701965 1.61e-19)
(-0.0220362 0.00251863 -2.98929e-19)
(-0.0187064 -0.00157424 6.35195e-21)
(-0.0142292 -0.0048384 -1.70221e-19)
(-0.00913868 -0.00695095 1.51694e-19)
(-0.00471719 0.0108564 -2.68418e-20)
(-0.0113625 0.0199942 1.37995e-19)
(-0.0165137 0.0215744 -3.87034e-19)
(-0.0189418 0.0189159 -4.84079e-20)
(-0.0185203 0.0139416 -2.67476e-19)
(-0.0155514 0.00789365 2.69937e-19)
(-0.0104119 0.00167193 -2.79897e-19)
(-0.00351467 -0.00400873 1.92668e-19)
(0.00462459 -0.00853441 7.95677e-20)
(0.0132225 -0.0114438 -7.2945e-20)
(-0.00617413 0.0128582 -2.98352e-19)
(-0.0128785 0.0231691 2.37225e-21)
(-0.0158375 0.0245771 4.76441e-19)
(-0.0148729 0.0210409 1.38191e-19)
(-0.0104073 0.0148056 -4.26546e-19)
(-0.00303777 0.00729797 2.5843e-19)
(0.00668719 -0.000452705 2.86527e-19)
(0.0182852 -0.00758644 -2.50385e-19)
(0.0312103 -0.0132826 1.7544e-19)
(0.044323 -0.0169353 3.50127e-20)
(-0.00756248 0.0140522 4.08061e-20)
(-0.0136071 0.0245532 6.75532e-21)
(-0.0132321 0.0254658 -6.08672e-19)
(-0.00757507 0.0211425 -3.29406e-19)
(0.00226087 0.0139826 3.81627e-19)
(0.0153095 0.00546424 -4.35562e-19)
(0.0308073 -0.00337662 4.88102e-19)
(0.048203 -0.0116243 -4.12293e-20)
(0.0669598 -0.0182692 -1.32252e-19)
(0.0854712 -0.0225696 -3.141e-19)
(-0.00855551 0.0142759 -8.85048e-20)
(-0.0127083 0.0238697 -1.44616e-19)
(-0.00745133 0.0240291 -1.71066e-19)
(0.00452684 0.0191949 3.53156e-19)
(0.0213245 0.0117355 6.36421e-19)
(0.0415258 0.00303137 -1.28128e-19)
(0.064087 -0.00604192 -3.05315e-19)
(0.0883718 -0.0146881 9.12451e-20)
(0.113936 -0.0218141 -5.65281e-19)
(0.138636 -0.0265896 5.09385e-19)
(-0.00873732 0.0133899 5.41155e-19)
(-0.0091612 0.020926 -2.64049e-19)
(0.00298672 0.0201803 4.96907e-19)
(0.0233029 0.0153298 -7.85247e-19)
(0.0489983 0.00854522 -3.64572e-19)
(0.0781206 0.000990051 -4.92282e-19)
(0.109237 -0.00680086 1.39735e-19)
(0.141548 -0.014421 -3.82264e-19)
(0.174832 -0.0209304 8.17848e-19)
(0.206525 -0.0255799 1.89069e-19)
(-0.00761818 0.0113071 3.94257e-20)
(-0.00182473 0.0156561 4.30154e-19)
(0.0196891 0.0139628 8.22966e-19)
(0.0507692 0.00976734 2.43567e-19)
(0.0877055 0.00494782 6.99915e-19)
(0.127916 0.000467571 3.74346e-20)
(0.169386 -0.00347506 -6.17959e-22)
(0.210892 -0.0069412 2.63754e-19)
(0.252446 -0.00931959 2.10224e-19)
(0.29163 -0.0108918 -5.67055e-19)
(-0.00468478 0.00803966 -3.19818e-19)
(0.0104305 0.0081809 -4.7961e-19)
(0.0441853 0.005547 -6.71701e-19)
(0.0888545 0.00264472 1.51081e-20)
(0.139947 0.00101579 -3.21949e-19)
(0.194352 0.00162433 4.94608e-19)
(0.249487 0.0047965 -1.33208e-18)
(0.303391 0.0107276 5.86516e-19)
(0.355369 0.019977 2.17225e-19)
(0.402826 0.0286393 5.72022e-19)
(0.000500553 0.00375727 1.6008e-19)
(0.0284766 -0.00109516 -5.47842e-19)
(0.077474 -0.00468603 4.71065e-19)
(0.138589 -0.00604151 -1.76909e-19)
(0.206954 -0.00418949 1.86864e-19)
(0.279591 0.00179355 3.96878e-19)
(0.354649 0.0126406 -5.20857e-19)
(0.431698 0.0292752 6.6505e-20)
(0.511729 0.0510151 -2.40616e-19)
(0.597183 0.0681264 4.24003e-19)
(0.00820315 -0.00116309 2.28764e-19)
(0.0527051 -0.0113255 -4.96166e-19)
(0.119557 -0.0157537 6.51263e-19)
(0.198954 -0.0155963 -3.92609e-19)
(0.285657 -0.0110069 -1.39829e-19)
(0.376596 -0.0018483 8.06909e-20)
(0.469943 0.0117886 4.08097e-20)
(0.565109 0.0295938 5.43077e-19)
(0.661775 0.0489411 1.5364e-19)
(0.757675 0.0612115 5.74293e-19)
(0.0185308 -0.00615893 -2.03951e-19)
(0.0831542 -0.0211553 6.41004e-19)
(0.169954 -0.0256856 -5.15408e-19)
(0.268443 -0.0233867 -5.85278e-19)
(0.3729 -0.0157852 7.9519e-19)
(0.479812 -0.00367848 -5.8974e-19)
(0.586765 0.0120009 1.52233e-19)
(0.692186 0.0301465 -8.85011e-19)
(0.794324 0.0481481 6.51177e-19)
(0.889221 0.0606765 2.86857e-20)
(0.0314893 -0.0106017 -2.65488e-19)
(0.119623 -0.0290252 -2.29894e-19)
(0.227968 -0.0321883 -4.71519e-19)
(0.345631 -0.0264054 5.52689e-19)
(0.466445 -0.0146587 -2.71817e-20)
(0.586431 0.00134989 3.38789e-19)
(0.702635 0.0200182 6.04609e-19)
(0.812805 0.0398525 -1.82089e-19)
(0.914593 0.058807 -6.32802e-19)
(1.00402 0.0738725 1.1054e-18)
(0.0470079 -0.0138825 -1.37072e-19)
(0.161665 -0.0334316 -1.46417e-19)
(0.292589 -0.0331497 2.54155e-19)
(0.428849 -0.0221182 -4.57234e-19)
(0.564042 -0.00479717 7.57527e-20)
(0.693942 0.016257 6.58629e-20)
(0.815414 0.0388963 2.8254e-20)
(0.926101 0.0614172 -4.3687e-21)
(1.02382 0.0823416 -6.66679e-20)
(1.10523 0.100057 -9.35424e-19)
(0.0649268 -0.0154385 5.56569e-19)
(0.208546 -0.0330484 -3.47622e-19)
(0.362374 -0.0268554 4.27163e-21)
(0.515934 -0.00871472 -4.93997e-19)
(0.662936 0.0154688 -1.71995e-19)
(0.799285 0.0423638 1.56576e-19)
(0.922137 0.0693996 1.19158e-19)
(1.02959 0.0947862 -4.16147e-19)
(1.1202 0.11756 3.34504e-19)
(1.19163 0.136922 -3.85835e-19)
(0.0849651 -0.0147577 2.39997e-19)
(0.259195 -0.0267851 -1.91067e-19)
(0.435418 -0.0120859 7.64861e-19)
(0.604222 0.0148157 7.56453e-20)
(0.759916 0.0466872 1.68524e-19)
(0.899026 0.0795708 7.33313e-19)
(1.01952 0.110653 -1.09406e-19)
(1.12049 0.138228 9.83579e-20)
(1.20157 0.161871 4.01263e-20)
(1.26175 0.181277 -4.29527e-20)
(0.106691 -0.0113894 1.6755e-19)
(0.3122 -0.0138279 3.61116e-19)
(0.509403 0.0118437 -3.72888e-19)
(0.690688 0.0487053 -1.22383e-19)
(0.851563 0.0884431 -1.46898e-19)
(0.989739 0.126729 2.21695e-19)
(1.10452 0.160776 -1.12979e-19)
(1.19638 0.189205 2.98088e-19)
(1.26635 0.212225 9.88612e-20)
(1.31484 0.229888 -1.40768e-19)
(0.129508 -0.00496988 -1.80623e-19)
(0.365837 0.00631236 1.43828e-19)
(0.581715 0.045062 -2.95664e-19)
(0.772162 0.0924649 1.23476e-19)
(0.934557 0.13954 -1.24517e-19)
(1.06837 0.181968 -1.51679e-19)
(1.17469 0.217348 -1.1938e-19)
(1.25567 0.244914 1.3091e-19)
(1.31383 0.265638 -2.43214e-19)
(1.35099 0.279893 1.27959e-19)
(0.15266 0.00473994 -6.43515e-20)
(0.418138 0.0337446 -1.12844e-19)
(0.649597 0.0871268 5.17205e-20)
(0.845559 0.144952 3.04838e-21)
(1.00595 0.19817 4.03891e-20)
(1.13251 0.242967 5.41681e-20)
(1.22843 0.277735 4.92371e-20)
(1.29766 0.302613 -6.39655e-20)
(1.34416 0.319456 5.37675e-20)
(1.37107 0.328964 -7.29585e-20)
(0.175267 0.0178141 -3.72815e-20)
(0.466998 0.0681479 -1.25352e-20)
(0.710333 0.137027 4.81019e-20)
(0.9081 0.204455 -2.13723e-20)
(1.06337 0.26208 5.56016e-20)
(1.18052 0.307166 -7.00131e-20)
(1.265 0.33931 1.58285e-20)
(1.32251 0.359807 1.66563e-20)
(1.35826 0.371458 -6.94915e-21)
(1.37646 0.375311 2.25623e-20)
(0.196361 0.034126 -4.02314e-20)
(0.510302 0.108741 -1.63207e-19)
(0.761421 0.193211 -1.09643e-20)
(0.957493 0.268794 3.17744e-21)
(1.10515 0.328728 -1.92894e-19)
(1.2116 0.371941 2.47383e-20)
(1.28449 0.399602 -2.0667e-20)
(1.33108 0.414326 -4.92998e-20)
(1.35751 0.419861 1.01721e-19)
(1.36883 0.417597 -1.58955e-19)
(0.214951 0.0533237 -1.94951e-20)
(0.546065 0.154283 3.31003e-19)
(0.800741 0.25365 5.13156e-20)
(0.992062 0.335444 -2.71702e-19)
(1.1304 0.395426 -2.14672e-20)
(1.22573 0.434732 -2.48258e-19)
(1.28768 0.45637 1.78509e-19)
(1.32471 0.464337 -6.41025e-20)
(1.34363 0.463255 1.11982e-19)
(1.34999 0.454835 -7.06191e-20)
(0.230083 0.0748215 -1.22848e-19)
(0.572563 0.203105 1.05791e-19)
(0.826687 0.315932 -7.35202e-20)
(1.01083 0.401664 5.34678e-19)
(1.13896 0.459475 2.57214e-19)
(1.22358 0.493139 -5.84714e-20)
(1.27586 0.507643 1.93669e-19)
(1.30512 0.508319 -1.25311e-19)
(1.31848 0.500529 -3.49922e-20)
(1.32176 0.48627 1.93588e-19)
(0.24091 0.0978088 -2.13129e-19)
(0.58846 0.253179 2.43944e-19)
(0.838263 0.377382 -4.62284e-19)
(1.01352 0.464632 6.32484e-20)
(1.13139 0.51827 1.38322e-19)
(1.20638 0.544974 -2.04954e-19)
(1.25075 0.551714 -2.38531e-19)
(1.27425 0.545007 1.04007e-19)
(1.28402 0.530777 -1.24479e-19)
(1.28592 0.511287 1.29359e-19)
(0.246755 0.121276 -5.37838e-20)
(0.592893 0.302218 -2.48376e-19)
(0.835121 0.4352 1.31801e-19)
(1.00055 0.521581 2.17249e-19)
(1.10881 0.569389 -1.26253e-19)
(1.17581 0.588295 -9.30443e-20)
(1.21433 0.587115 -5.54996e-20)
(1.23413 0.573329 -2.69323e-20)
(1.24217 0.553213 3.67218e-21)
(1.24422 0.529313 5.29275e-20)
(0.247162 0.144063 4.0759e-20)
(0.58554 0.347797 -2.12379e-19)
(0.817571 0.486611 3.42128e-19)
(0.97295 0.569922 -1.95389e-19)
(1.07285 0.610675 5.68352e-20)
(1.13385 0.621427 -7.75529e-20)
(1.16873 0.612599 8.2003e-20)
(1.18687 0.592344 2.14006e-20)
(1.19486 0.567067 -1.73964e-20)
(1.19832 0.539672 2.93886e-20)
(0.241951 0.164917 -1.08082e-19)
(0.566648 0.387499 1.90358e-19)
(0.786538 0.529022 -7.37538e-21)
(0.93224 0.607366 -4.02133e-20)
(1.02544 0.640307 -9.76178e-20)
(1.08268 0.643005 1.35065e-20)
(1.1162 0.627169 1.36234e-20)
(1.13467 0.601301 -5.59025e-20)
(1.14423 0.571638 6.28194e-20)
(1.1503 0.541573 4.79196e-20)
(0.231244 0.182585 3.43662e-20)
(0.537029 0.419074 -4.5891e-20)
(0.743477 0.560165 5.50455e-21)
(0.880301 0.63201 2.40334e-20)
(0.968654 0.6568 1.93585e-20)
(1.02444 0.651881 -5.66018e-20)
(1.05895 0.629927 -1.25262e-19)
(1.07997 0.599479 -5.13581e-20)
(1.09321 0.566273 -6.53443e-20)
(1.10349 0.534373 4.32546e-20)
(0.21549 0.195911 5.32946e-20)
(0.498021 0.440613 -7.95214e-20)
(0.690269 0.578268 7.44139e-20)
(0.819177 0.642461 -1.41939e-19)
(0.904377 0.659027 3.27994e-20)
(0.960657 0.646896 2.26034e-19)
(0.998229 0.619288 -6.80375e-20)
(1.02409 0.584499 7.75546e-20)
(1.04358 0.547616 1.13197e-19)
(1.05977 0.514471 3.32713e-19)
(0.195461 0.203958 3.83652e-19)
(0.451452 0.450736 -2.31529e-19)
(0.629177 0.582284 5.46548e-19)
(0.751038 0.638214 -9.02239e-20)
(0.834202 0.646931 4.42772e-19)
(0.891885 0.628081 2.70633e-19)
(0.933135 0.594634 -6.20571e-19)
(0.964329 0.553691 9.25889e-19)
(0.990103 0.507602 -1.93068e-19)
(1.00727 0.460183 3.41609e-19)
(0.17222 0.206075 -2.12412e-19)
(0.399591 0.448643 -1.37082e-19)
(0.562925 0.571901 1.2952e-19)
(0.67856 0.619748 -3.04369e-19)
(0.760336 0.62215 -9.23552e-19)
(0.819388 0.599002 -3.62909e-19)
(0.863373 0.563079 -3.18293e-19)
(0.897728 0.521554 1.5225e-19)
(0.925687 0.477894 1.23903e-18)
(0.943545 0.436754 -2.31558e-19)
(0.14703 0.201888 1.13479e-19)
(0.345029 0.433983 -4.12512e-19)
(0.494659 0.547097 8.69681e-20)
(0.605174 0.587362 -6.12625e-19)
(0.686604 0.585135 1.30041e-18)
(0.747847 0.559937 -1.47482e-19)
(0.795123 0.523987 6.75845e-19)
(0.832897 0.484097 -9.47454e-19)
(0.863786 0.443734 2.92533e-19)
(0.885399 0.406968 4.09746e-20)
(0.121227 0.19129 8.38242e-20)
(0.290394 0.406829 4.54287e-19)
(0.427437 0.508169 -1.28642e-18)
(0.533988 0.541423 6.04408e-19)
(0.616068 0.536085 -1.35588e-21)
(0.680329 0.510628 -1.92993e-19)
(0.731628 0.476361 2.38167e-19)
(0.773603 0.439503 -2.31156e-19)
(0.808509 0.40318 -7.79016e-19)
(0.834837 0.370491 -1.92595e-19)
(0.0961383 0.174437 2.75646e-19)
(0.238208 0.3677 2.76613e-19)
(0.364089 0.455843 1.09805e-18)
(0.467731 0.482675 -5.90768e-19)
(0.551175 0.475589 1.18185e-18)
(0.618915 0.45137 -2.47845e-19)
(0.674547 0.420093 -2.55678e-19)
(0.720987 0.387212 2.96328e-19)
(0.760198 0.355393 1.89495e-19)
(0.791319 0.326867 6.18727e-19)
(0.0730222 0.151746 -2.80454e-19)
(0.190797 0.317553 8.21134e-20)
(0.307157 0.391295 2.15194e-20)
(0.408776 0.412282 6.0307e-19)
(0.493975 0.404664 -1.46101e-18)
(0.565267 0.382975 2.42038e-19)
(0.62513 0.355793 5.21284e-19)
(0.675849 0.327692 -6.17395e-19)
(0.719145 0.30083 2.13413e-19)
(0.754723 0.276735 -8.93005e-19)
(0.0530171 0.12388 5.98278e-20)
(0.150216 0.257757 2.88478e-19)
(0.25884 0.316114 1.0789e-19)
(0.359132 0.331794 1.41472e-19)
(0.446158 0.324696 2.62842e-19)
(0.520727 0.30663 7.61747e-19)
(0.584371 0.284474 -9.1112e-19)
(0.63885 0.261844 -5.02483e-19)
(0.685696 0.240391 8.17739e-20)
(0.725131 0.221102 5.79803e-19)
(0.0370984 0.0917257 -3.61944e-19)
(0.118192 0.190044 -3.83803e-20)
(0.220956 0.232259 -3.09945e-19)
(0.320436 0.243095 4.2724e-20)
(0.409087 0.237378 -2.48813e-19)
(0.486369 0.223818 -2.76725e-19)
(0.553074 0.207436 -4.02869e-19)
(0.610555 0.190845 1.06311e-18)
(0.660215 0.175204 1.79934e-19)
(0.70271 0.161102 -2.47426e-19)
(0.026038 0.0563619 1.95147e-19)
(0.0960719 0.116445 2.30615e-19)
(0.194905 0.141986 8.7234e-20)
(0.293935 0.148336 -4.55665e-19)
(0.383793 0.144641 -2.05827e-19)
(0.463004 0.136238 -4.31959e-20)
(0.531855 0.126183 8.23918e-20)
(0.591422 0.116054 6.48368e-20)
(0.643026 0.106537 -4.91773e-19)
(0.687641 0.0979384 2.54624e-19)
(0.0203709 0.0190114 -1.01641e-19)
(0.0847771 0.039223 -1.03384e-19)
(0.181639 0.0477714 7.92197e-20)
(0.280472 0.0498621 6.79727e-20)
(0.370971 0.0485859 6.76129e-20)
(0.451184 0.0457402 1.00673e-19)
(0.521139 0.0423503 -5.2042e-21)
(0.581772 0.0389445 -1.26358e-19)
(0.634368 0.0357499 1.17797e-19)
(0.680068 0.0328598 -1.59877e-19)
(0.0203709 -0.0190115 -1.02303e-19)
(0.0847771 -0.0392232 -9.85072e-20)
(0.181639 -0.0477717 8.73056e-20)
(0.280472 -0.0498624 1.65171e-19)
(0.370971 -0.0485862 1.06771e-19)
(0.451184 -0.0457405 -1.3703e-19)
(0.521139 -0.0423506 -7.26926e-20)
(0.581772 -0.0389447 3.10965e-20)
(0.634368 -0.0357501 6.85696e-20)
(0.680068 -0.03286 -3.68307e-20)
(0.026038 -0.056362 2.44083e-19)
(0.0960719 -0.116446 -2.77301e-19)
(0.194905 -0.141986 -2.21237e-20)
(0.293935 -0.148336 1.42828e-19)
(0.383793 -0.144641 -6.26472e-19)
(0.463005 -0.136239 2.60675e-19)
(0.531855 -0.126183 2.62785e-19)
(0.591422 -0.116054 -3.03899e-19)
(0.643026 -0.106538 2.84972e-19)
(0.687641 -0.0979387 -1.12926e-19)
(0.0370984 -0.0917258 -4.22072e-20)
(0.118193 -0.190044 -4.76146e-21)
(0.220956 -0.232259 -7.19964e-19)
(0.320436 -0.243095 -2.21162e-19)
(0.409087 -0.237378 -2.24026e-20)
(0.486369 -0.223818 -3.43986e-19)
(0.553074 -0.207436 6.26158e-19)
(0.610555 -0.190845 -2.16643e-20)
(0.660215 -0.175204 3.43918e-19)
(0.70271 -0.161102 -2.72458e-19)
(0.0530171 -0.12388 7.12339e-20)
(0.150216 -0.257758 -2.94442e-19)
(0.25884 -0.316114 8.72121e-19)
(0.359132 -0.331795 1.19381e-19)
(0.446158 -0.324696 5.6887e-19)
(0.520728 -0.30663 -5.41372e-19)
(0.584372 -0.284474 5.55281e-19)
(0.63885 -0.261844 -3.92408e-19)
(0.685696 -0.240392 -1.69383e-19)
(0.725131 -0.221102 1.29406e-19)
(0.0730222 -0.151746 6.34965e-19)
(0.190797 -0.317553 1.5001e-21)
(0.307157 -0.391295 -9.17661e-19)
(0.408776 -0.412283 -2.57178e-19)
(0.493975 -0.404664 8.29464e-19)
(0.565267 -0.382975 -4.73201e-19)
(0.625131 -0.355794 -5.3529e-19)
(0.675849 -0.327692 4.71975e-19)
(0.719145 -0.30083 -3.15352e-19)
(0.754723 -0.276735 -6.12575e-20)
(0.0961384 -0.174437 -9.48551e-20)
(0.238208 -0.3677 -3.89294e-21)
(0.364089 -0.455843 9.93994e-19)
(0.467731 -0.482675 5.51022e-19)
(0.551176 -0.475589 -6.30538e-19)
(0.618915 -0.45137 7.44022e-19)
(0.674548 -0.420093 -7.88079e-19)
(0.720987 -0.387213 7.71152e-20)
(0.760198 -0.355393 2.2626e-19)
(0.791319 -0.326867 4.7e-19)
(0.121227 -0.19129 1.07924e-19)
(0.290394 -0.406829 1.55059e-19)
(0.427437 -0.508169 1.61721e-19)
(0.533988 -0.541423 -5.06541e-19)
(0.616068 -0.536086 -8.7491e-19)
(0.680329 -0.510628 1.79593e-19)
(0.731629 -0.476361 5.08833e-19)
(0.773603 -0.439503 -1.42593e-19)
(0.808509 -0.40318 8.41141e-19)
(0.834837 -0.370491 -7.38615e-19)
(0.14703 -0.201888 -6.10139e-19)
(0.345029 -0.433983 2.08076e-19)
(0.494659 -0.547097 -5.44022e-19)
(0.605174 -0.587362 8.49803e-19)
(0.686604 -0.585136 4.1265e-19)
(0.747848 -0.559937 5.67597e-19)
(0.795123 -0.523987 -1.27709e-19)
(0.832897 -0.484097 4.96125e-19)
(0.863786 -0.443735 -1.03099e-18)
(0.885399 -0.406968 -2.41721e-19)
(0.17222 -0.206075 3.71806e-20)
(0.399591 -0.448643 -3.64494e-19)
(0.562925 -0.571901 -5.5749e-19)
(0.678561 -0.619748 -2.30151e-19)
(0.760336 -0.62215 -6.30582e-19)
(0.819388 -0.599002 -6.32102e-20)
(0.863373 -0.56308 5.34131e-20)
(0.897728 -0.521555 -2.29394e-19)
(0.925687 -0.477894 -2.51996e-19)
(0.943545 -0.436755 5.98039e-19)
(0.195461 -0.203958 1.90136e-19)
(0.451452 -0.450736 2.35355e-19)
(0.629178 -0.582284 4.08271e-19)
(0.751038 -0.638214 1.83187e-20)
(0.834203 -0.646931 2.57538e-19)
(0.891885 -0.628081 -3.4179e-19)
(0.933135 -0.594635 1.02251e-18)
(0.96433 -0.553691 -4.41823e-19)
(0.990103 -0.507602 -2.13697e-19)
(1.00727 -0.460183 -5.79823e-19)
(0.21549 -0.195911 -7.40837e-20)
(0.498021 -0.440613 1.10931e-19)
(0.69027 -0.578268 -1.10544e-19)
(0.819177 -0.642462 5.89371e-20)
(0.904378 -0.659027 -6.79535e-20)
(0.960657 -0.646896 -1.70928e-19)
(0.99823 -0.619288 2.19471e-19)
(1.02409 -0.584499 -7.25946e-20)
(1.04358 -0.547616 1.07153e-19)
(1.05977 -0.514472 -1.89057e-19)
(0.231244 -0.182585 7.7347e-23)
(0.537029 -0.419074 -6.60003e-20)
(0.743477 -0.560165 2.45949e-20)
(0.880302 -0.63201 6.18739e-20)
(0.968654 -0.6568 -3.41021e-20)
(1.02444 -0.651882 9.91941e-21)
(1.05895 -0.629927 -6.87676e-21)
(1.07997 -0.599479 -1.56389e-19)
(1.09321 -0.566273 -7.34484e-20)
(1.10349 -0.534373 -1.83864e-19)
(0.241951 -0.164917 -6.01716e-20)
(0.566648 -0.3875 1.90756e-19)
(0.786538 -0.529022 -1.17288e-19)
(0.93224 -0.607366 -5.00336e-20)
(1.02544 -0.640307 3.37388e-20)
(1.08268 -0.643005 1.93972e-20)
(1.1162 -0.62717 3.23552e-22)
(1.13467 -0.601301 1.07992e-19)
(1.14423 -0.571638 -9.4062e-20)
(1.1503 -0.541573 -5.32618e-22)
(0.247162 -0.144063 -1.43586e-19)
(0.58554 -0.347797 -8.23558e-20)
(0.817572 -0.486611 -1.95665e-19)
(0.97295 -0.569922 2.15932e-19)
(1.07285 -0.610675 -1.51985e-20)
(1.13385 -0.621427 7.04948e-20)
(1.16873 -0.612599 8.34794e-20)
(1.18687 -0.592344 -2.89686e-20)
(1.19486 -0.567067 6.88792e-21)
(1.19832 -0.539672 -3.00042e-20)
(0.246755 -0.121276 -9.68013e-20)
(0.592893 -0.302218 -1.11234e-19)
(0.835121 -0.4352 1.62553e-19)
(1.00055 -0.521581 -2.38217e-19)
(1.10881 -0.569389 4.04866e-20)
(1.17581 -0.588295 2.06414e-20)
(1.21433 -0.587116 4.22661e-20)
(1.23413 -0.573329 -2.66428e-20)
(1.24217 -0.553213 -3.31345e-20)
(1.24422 -0.529313 -1.08872e-19)
(0.24091 -0.0978088 4.03524e-19)
(0.58846 -0.253179 -2.82031e-19)
(0.838263 -0.377382 1.24852e-20)
(1.01352 -0.464632 -3.38841e-19)
(1.13139 -0.51827 -9.65037e-20)
(1.20638 -0.544974 7.55535e-20)
(1.25075 -0.551714 5.46126e-20)
(1.27425 -0.545007 -1.79079e-19)
(1.28402 -0.530777 8.12892e-20)
(1.28592 -0.511287 -1.20341e-19)
(0.230083 -0.0748215 1.995e-19)
(0.572563 -0.203105 -1.76609e-19)
(0.826688 -0.315932 6.1258e-19)
(1.01083 -0.401664 4.77543e-20)
(1.13896 -0.459475 1.30769e-19)
(1.22358 -0.493139 4.58719e-19)
(1.27586 -0.507643 -9.21359e-20)
(1.30512 -0.508319 2.41277e-20)
(1.31848 -0.500529 -1.12008e-20)
(1.32176 -0.48627 -1.92087e-20)
(0.214951 -0.0533237 1.5344e-19)
(0.546065 -0.154283 3.12918e-19)
(0.800741 -0.25365 -3.07814e-19)
(0.992062 -0.335444 -9.09417e-20)
(1.1304 -0.395426 -9.4004e-20)
(1.22573 -0.434732 1.79016e-19)
(1.28768 -0.45637 -8.30695e-20)
(1.32471 -0.464337 1.93008e-19)
(1.34363 -0.463256 4.66846e-20)
(1.34999 -0.454835 -6.9383e-20)
(0.196361 -0.034126 -1.65811e-19)
(0.510303 -0.108741 1.3779e-19)
(0.761421 -0.193211 -2.72702e-19)
(0.957493 -0.268794 1.10611e-19)
(1.10515 -0.328728 -1.07826e-19)
(1.21161 -0.371941 -1.25324e-19)
(1.28449 -0.399602 -9.5467e-20)
(1.33108 -0.414326 1.03435e-19)
(1.35751 -0.419861 -1.7788e-19)
(1.36883 -0.417598 9.62542e-20)
(0.175267 -0.0178141 -6.20519e-20)
(0.466998 -0.0681479 -1.09165e-19)
(0.710333 -0.137027 4.94356e-20)
(0.908101 -0.204455 3.48556e-21)
(1.06337 -0.26208 3.7062e-20)
(1.18052 -0.307166 5.18807e-20)
(1.265 -0.33931 4.34335e-20)
(1.32251 -0.359807 -5.7539e-20)
(1.35826 -0.371458 4.6415e-20)
(1.37646 -0.375311 -6.32003e-20)
(0.15266 -0.00473994 -3.91006e-20)
(0.418138 -0.0337446 -1.41119e-20)
(0.649597 -0.0871268 5.07392e-20)
(0.845559 -0.144952 -2.21011e-20)
(1.00595 -0.19817 6.03031e-20)
(1.13251 -0.242967 -7.43595e-20)
(1.22843 -0.277735 1.86034e-20)
(1.29766 -0.302613 1.57263e-20)
(1.34416 -0.319456 -5.63499e-21)
(1.37107 -0.328965 2.21335e-20)
(0.129508 0.00496989 -4.68696e-20)
(0.365837 -0.00631235 -1.78205e-19)
(0.581715 -0.045062 -1.38696e-20)
(0.772162 -0.0924649 5.35497e-21)
(0.934557 -0.13954 -2.24228e-19)
(1.06837 -0.181968 2.30729e-20)
(1.17469 -0.217348 -2.38902e-20)
(1.25567 -0.244914 -6.39644e-20)
(1.31383 -0.265638 1.39579e-19)
(1.351 -0.279893 -2.21219e-19)
(0.106691 0.0113894 -2.65935e-20)
(0.3122 0.0138279 3.82379e-19)
(0.509403 -0.0118437 4.92195e-20)
(0.690688 -0.0487053 -3.21855e-19)
(0.851563 -0.0884431 -3.73072e-20)
(0.98974 -0.126729 -3.44428e-19)
(1.10452 -0.160776 2.62092e-19)
(1.19638 -0.189205 -1.04584e-19)
(1.26635 -0.212225 1.94658e-19)
(1.31484 -0.229888 -1.50539e-19)
(0.0849652 0.0147577 -1.505e-19)
(0.259195 0.0267851 1.57189e-19)
(0.435418 0.0120859 -1.05764e-19)
(0.604222 -0.0148157 7.0685e-19)
(0.759916 -0.0466872 3.63845e-19)
(0.899026 -0.0795708 -9.2984e-20)
(1.01953 -0.110653 3.53517e-19)
(1.12049 -0.138228 -2.26897e-19)
(1.20157 -0.161871 -7.21525e-20)
(1.26175 -0.181277 4.5518e-19)
(0.0649269 0.0154385 -2.78463e-19)
(0.208546 0.0330484 3.72392e-19)
(0.362374 0.0268554 -6.80434e-19)
(0.515935 0.00871475 1.13983e-19)
(0.662937 -0.0154688 2.76481e-19)
(0.799285 -0.0423638 -3.38396e-19)
(0.922137 -0.0693996 -5.86886e-19)
(1.02959 -0.0947862 3.08435e-19)
(1.1202 -0.11756 -3.94685e-19)
(1.19163 -0.136922 5.55203e-19)
(0.0470079 0.0138825 -6.87987e-20)
(0.161666 0.0334316 -3.75024e-19)
(0.292589 0.0331497 1.78107e-19)
(0.428849 0.0221183 4.31912e-19)
(0.564043 0.0047972 -2.25218e-19)
(0.693942 -0.016257 -2.16918e-19)
(0.815415 -0.0388963 -3.60037e-19)
(0.926101 -0.0614172 -1.61839e-19)
(1.02382 -0.0823417 -3.82776e-20)
(1.10523 -0.100057 5.55208e-19)
(0.0314893 0.0106017 1.15799e-19)
(0.119623 0.0290252 -5.09959e-19)
(0.227968 0.0321884 8.40297e-19)
(0.345631 0.0264054 -4.52424e-19)
(0.466445 0.0146587 2.85231e-19)
(0.586431 -0.00134987 -3.45895e-19)
(0.702635 -0.0200182 3.76715e-19)
(0.812805 -0.0398525 3.22661e-19)
(0.914593 -0.058807 6.92485e-19)
(1.00402 -0.0738726 -1.0073e-18)
(0.0185308 0.00615894 -3.59755e-19)
(0.0831543 0.0211553 6.47305e-19)
(0.169954 0.0256856 8.47587e-21)
(0.268443 0.0233867 -2.17095e-19)
(0.3729 0.0157852 -1.11751e-19)
(0.479813 0.00367849 8.74444e-20)
(0.586765 -0.0120009 -6.0689e-19)
(0.692187 -0.0301466 4.59548e-19)
(0.794324 -0.0481481 -5.81906e-19)
(0.889222 -0.0606766 -2.33236e-19)
(0.00820317 0.0011631 6.19775e-19)
(0.0527052 0.0113256 -1.73017e-19)
(0.119557 0.0157538 -3.13009e-19)
(0.198954 0.0155963 8.22223e-19)
(0.285657 0.0110069 -7.84758e-19)
(0.376596 0.00184829 4.27621e-19)
(0.469943 -0.0117886 4.4553e-19)
(0.565109 -0.0295939 1.19527e-19)
(0.661775 -0.0489412 1.22e-19)
(0.757675 -0.0612116 -1.51686e-19)
(0.000500565 -0.00375727 -5.93217e-19)
(0.0284767 0.00109518 5.05022e-19)
(0.0774741 0.00468604 -4.30363e-19)
(0.138589 0.00604151 5.22646e-19)
(0.206954 0.00418946 -1.51594e-19)
(0.279592 -0.00179359 -5.13886e-19)
(0.354649 -0.0126407 1.44007e-19)
(0.431698 -0.0292753 -2.32797e-19)
(0.511729 -0.0510152 -2.70584e-19)
(0.597183 -0.0681265 -7.35475e-19)
(-0.00468477 -0.00803965 -7.42215e-19)
(0.0104306 -0.00818091 5.28176e-19)
(0.0441854 -0.00554702 -9.96762e-19)
(0.0888546 -0.00264476 1.72457e-19)
(0.139947 -0.00101586 -6.49175e-19)
(0.194352 -0.00162443 -3.79798e-19)
(0.249487 -0.00479663 8.88919e-19)
(0.303392 -0.0107278 -1.19194e-18)
(0.355369 -0.0199772 2.25622e-19)
(0.402826 -0.0286396 -3.12764e-19)
(-0.00761818 -0.0113072 3.65765e-19)
(-0.00182472 -0.0156562 1.38855e-19)
(0.0196891 -0.0139628 -4.00122e-20)
(0.0507693 -0.00976743 3.66579e-19)
(0.0877056 -0.00494795 1.04611e-18)
(0.127916 -0.000467747 3.52177e-19)
(0.169387 0.00347484 3.55971e-19)
(0.210892 0.00694094 -1.2055e-19)
(0.252446 0.00931929 -1.10816e-18)
(0.29163 0.0108915 2.33662e-19)
(-0.00873732 -0.0133899 -1.03499e-19)
(-0.0091612 -0.0209261 2.94806e-19)
(0.00298675 -0.0201804 -7.43678e-20)
(0.0233029 -0.0153299 5.07678e-19)
(0.0489984 -0.00854543 -1.13979e-18)
(0.0781207 -0.000990313 9.44851e-20)
(0.109237 0.00680055 -5.17316e-19)
(0.141548 0.0144206 7.46963e-19)
(0.174833 0.02093 -2.14277e-19)
(0.206525 0.0255794 -2.53209e-20)
(-0.00855552 -0.014276 -7.04112e-20)
(-0.0127084 -0.0238698 -3.54512e-19)
(-0.00745132 -0.0240293 8.58813e-19)
(0.00452689 -0.0191951 -4.37725e-19)
(0.0213246 -0.0117358 2.97522e-20)
(0.041526 -0.00303173 1.32954e-19)
(0.0640871 0.00604151 -1.19099e-19)
(0.0883721 0.0146876 1.51486e-19)
(0.113936 0.0218136 5.16337e-19)
(0.138637 0.0265891 1.10973e-19)
(-0.0075625 -0.0140523 -1.58223e-19)
(-0.0136071 -0.0245533 -1.57505e-19)
(-0.0132321 -0.025466 -6.72721e-19)
(-0.00757503 -0.0211428 3.46502e-19)
(0.00226095 -0.013983 -6.94095e-19)
(0.0153096 -0.00546468 1.53605e-19)
(0.0308075 0.00337611 1.68894e-19)
(0.0482032 0.0116237 -1.7522e-19)
(0.06696 0.0182685 -1.11433e-19)
(0.0854715 0.0225689 -4.08819e-19)
(-0.00617415 -0.0128583 1.23799e-19)
(-0.0128785 -0.0231693 -2.60862e-20)
(-0.0158375 -0.0245774 4.46142e-22)
(-0.0148729 -0.0210412 -3.12924e-19)
(-0.0104072 -0.014806 7.69063e-19)
(-0.00303765 -0.00729851 -1.16904e-19)
(0.00668735 0.000452107 -2.85305e-19)
(0.0182854 0.00758578 3.42274e-19)
(0.0312106 0.0132819 -1.18223e-19)
(0.0443233 0.0169345 5.31563e-19)
(-0.00471721 -0.0108564 -2.32537e-20)
(-0.0113625 -0.0199945 -1.21914e-19)
(-0.0165137 -0.0215748 -4.63081e-20)
(-0.0189418 -0.0189163 -5.72113e-20)
(-0.0185203 -0.0139421 -1.19376e-19)
(-0.0155513 -0.00789425 -3.65378e-19)
(-0.0104117 -0.00167261 4.46782e-19)
(-0.00351449 0.00400799 2.55897e-19)
(0.00462481 0.00853362 -4.49997e-20)
(0.0132227 0.011443 -3.24949e-19)
(-0.00343309 -0.00821746 1.32103e-19)
(-0.00970188 -0.0153643 2.06109e-20)
(-0.0162274 -0.0167852 1.34394e-19)
(-0.0209995 -0.0149756 -1.49111e-20)
(-0.0234785 -0.0114023 1.14869e-19)
(-0.0237429 -0.00702032 1.26318e-19)
(-0.0220361 -0.00251936 1.85185e-19)
(-0.0187062 0.00157344 -5.14146e-19)
(-0.014229 0.00483754 -9.3251e-20)
(-0.00913847 0.00695004 1.3512e-19)
(-0.00248961 -0.00511727 -6.67348e-20)
(-0.00835387 -0.00965919 -8.48092e-20)
(-0.0156707 -0.010638 -3.92314e-20)
(-0.0219144 -0.00959953 1.8559e-19)
(-0.0262693 -0.0074605 8.7456e-20)
(-0.0286626 -0.00481987 1.74801e-20)
(-0.0292446 -0.00210825 -3.70357e-20)
(-0.028314 0.000353365 -2.81674e-20)
(-0.0263131 0.00232069 2.37539e-19)
(-0.0236199 0.00360255 -1.30573e-19)
(-0.00199235 -0.00173712 3.40264e-20)
(-0.00760937 -0.00329405 3.78489e-20)
(-0.0152853 -0.00364233 -3.10487e-20)
(-0.0222385 -0.00330527 -2.74553e-20)
(-0.0275151 -0.0025944 -2.76379e-20)
(-0.0309658 -0.00171357 -4.29792e-20)
(-0.032693 -0.000808953 1.34353e-21)
(-0.0329684 1.18481e-05 5.71304e-20)
(-0.0322162 0.000668804 -5.63607e-20)
(-0.0307397 0.0010986 8.27081e-20)
(-0.0062095 -0.00269847 3.9171e-21)
(0.0669837 -0.00679532 2.44024e-21)
(0.286823 -0.00694699 3.51351e-22)
(0.393043 -0.00474853 -2.38743e-22)
(0.505969 -0.00420596 -1.77356e-23)
(0.594562 -0.00329166 4.28391e-23)
(0.66377 -0.00301177 3.62768e-23)
(0.74171 -0.00228593 -1.74949e-24)
(0.775952 -0.00232602 -2.47265e-24)
(0.858668 -0.00165276 1.19118e-22)
(0.0107598 -0.00840082 6.16945e-21)
(0.08244 -0.0202234 2.23723e-22)
(0.298492 -0.0206883 -4.46906e-21)
(0.401989 -0.0141427 3.81634e-21)
(0.512793 -0.0125322 2.49399e-22)
(0.599826 -0.00980999 -1.69526e-22)
(0.667937 -0.00898159 1.5953e-22)
(0.744739 -0.00681888 -8.85875e-24)
(0.778445 -0.00694809 -6.41913e-23)
(0.860126 -0.00494247 -1.08406e-22)
(0.0443844 -0.0149921 6.46322e-21)
(0.112854 -0.0331656 -8.8152e-21)
(0.321374 -0.033963 4.55745e-21)
(0.41954 -0.0232233 -3.21697e-21)
(0.52618 -0.0206113 2.35593e-22)
(0.610165 -0.0161536 -1.81962e-22)
(0.676129 -0.0148064 -5.38102e-23)
(0.750705 -0.0112462 -1.33475e-23)
(0.783361 -0.0114732 4.75337e-23)
(0.863006 -0.00816953 -1.56947e-22)
(0.0940254 -0.0229526 -9.95993e-21)
(0.157255 -0.0453188 -1.22107e-20)
(0.35459 -0.0464806 -5.87822e-21)
(0.445034 -0.0317984 3.28397e-21)
(0.54563 -0.0282913 -4.15911e-21)
(0.625214 -0.0222147 1.12871e-21)
(0.688076 -0.0203962 -4.54023e-23)
(0.759429 -0.0155022 -1.64638e-23)
(0.790567 -0.0158402 4.1375e-23)
(0.867241 -0.0112942 5.93317e-23)
(0.1587 -0.0325547 2.81279e-20)
(0.214255 -0.0563922 1.82422e-20)
(0.396887 -0.0579724 6.72544e-21)
(0.477533 -0.039698 -6.59547e-21)
(0.570432 -0.0354373 3.45684e-21)
(0.644455 -0.027898 9.44947e-22)
(0.703389 -0.0256708 5.3891e-22)
(0.770653 -0.0195282 -8.33899e-24)
(0.799872 -0.0199931 -1.20659e-22)
(0.872734 -0.0142797 -3.07729e-22)
(0.237066 -0.0437322 -1.27168e-20)
(0.28211 -0.0660719 9.55916e-21)
(0.446714 -0.068182 1.2115e-21)
(0.515875 -0.0467723 7.55179e-21)
(0.599714 -0.0419333 -1.73384e-21)
(0.667249 -0.0331223 -1.12613e-21)
(0.721589 -0.0305617 -5.61751e-22)
(0.784059 -0.0232738 7.09652e-23)
(0.811033 -0.0238826 3.61554e-23)
(0.87936 -0.0170934 3.43136e-22)
(0.327428 -0.0562079 -9.80435e-21)
(0.35878 -0.0740919 -2.60873e-20)
(0.502309 -0.0769023 -4.60555e-21)
(0.558751 -0.0528989 -4.16641e-21)
(0.632494 -0.0476877 2.09959e-21)
(0.692872 -0.0378229 -5.54239e-22)
(0.74213 -0.0350137 7.08274e-22)
(0.799277 -0.0266986 4.53305e-23)
(0.823773 -0.0274678 1.29503e-23)
(0.886973 -0.0197066 1.30349e-22)