1.45 	0 	0 	-0.298846
2.35 	0 	0 	-0.133016
