1.45 	0 	0 	-0.298474
2.35 	0 	0 	-0.132472
