1.275 	2.15223e-18 	-2.76991e-20 	-0.0344765 	-0.000437778 	-1.90534e-22
1.825 	2.15223e-18 	-1.39322e-20 	-0.00949063 	-0.00275315 	1.68127e-21
2.375 	2.15223e-18 	-2.66896e-23 	0.11523 	-0.00323042 	-7.01257e-22
