1.45 	0 	0 	-0.29055
2.35 	0 	0 	-0.126378
