1.45 	0 	0 	-0.00811764 	-0.00258617 	1.65414e-20
2.35 	0 	0 	0.0622641 	-0.00662865 	9.89612e-21
