1.45 	0 	0 	-0.00768971 	-0.00259135 	3.8294e-21
2.35 	0 	0 	0.0623168 	-0.00666291 	2.35074e-21
