1.275 	2.15223e-18 	-2.76991e-20 	0.108288 	-0.00775437 	-1.50202e-22
1.825 	2.15223e-18 	-1.39322e-20 	0.377555 	-0.00997642 	1.43775e-22
2.375 	2.15223e-18 	-2.66896e-23 	0.656646 	-0.00729974 	-4.94468e-23
