1.45 	0 	0 	-0.0078642 	-0.00258214 	3.80991e-21
2.35 	0 	0 	0.0618879 	-0.00664902 	2.32391e-21
