1.275 	2.15223e-18 	-2.76991e-20 	-0.0339617 	-0.000441621 	-1.99039e-22
1.825 	2.15223e-18 	-1.39322e-20 	-0.00855355 	-0.00278018 	1.78864e-21
2.375 	2.15223e-18 	-2.66896e-23 	0.117886 	-0.00329741 	-7.46562e-22
