1.45 	0 	0 	-0.00203158 	-0.00308012 	3.97179e-21
2.35 	0 	0 	0.0836183 	-0.00739753 	2.32498e-21
