1.275 	2.15223e-18 	-2.76991e-20 	-0.0344461 	-0.000434606 	-1.91533e-22
1.825 	2.15223e-18 	-1.39322e-20 	-0.00943299 	-0.00275837 	1.69429e-21
2.375 	2.15223e-18 	-2.66896e-23 	0.115397 	-0.00324828 	-7.068e-22
