1.45 	0 	0 	-0.00805239 	-0.00258802 	1.65538e-20
2.35 	0 	0 	0.0623666 	-0.00660784 	9.91694e-21
