1.45 	0 	0 	-0.00809291 	-0.00257113 	3.78629e-21
2.35 	0 	0 	0.0613887 	-0.00663327 	2.29092e-21
