1.45 	0 	0 	-0.303568
2.35 	0 	0 	-0.134612
