1.45 	0 	0 	-0.0830939
2.35 	0 	0 	0.0319152
