1.45 	0 	0 	-0.0033735 	-0.00293258 	3.96446e-21
2.35 	0 	0 	0.0771463 	-0.00715035 	2.3974e-21
