1.45 	0 	0 	-0.249057
2.35 	0 	0 	-0.0141652
