1.45 	0 	0 	0.00157742 	-0.00352812 	3.96651e-21
2.35 	0 	0 	0.102667 	-0.00809246 	2.08879e-21
