1.275 	2.15223e-18 	-2.76991e-20 	-0.0327597 	-0.000764768 	-2.0707e-22
1.825 	2.15223e-18 	-1.39322e-20 	0.0097851 	-0.00425482 	1.66256e-21
2.375 	2.15223e-18 	-2.66896e-23 	0.201865 	-0.00581127 	-6.42333e-22
