/*--------------------------------*- C++ -*----------------------------------*\
  =========                 |
  \\      /  F ield         | OpenFOAM: The Open Source CFD Toolbox
   \\    /   O peration     | Website:  https://openfoam.org
    \\  /    A nd           | Version:  6.0
     \\/     M anipulation  |
\*---------------------------------------------------------------------------*/
FoamFile
{
    version     2.0;
    format      ascii;
    class       volScalarField;
    location    "53";
    object      p;
}
// * * * * * * * * * * * * * * * * * * * * * * * * * * * * * * * * * * * * * //

dimensions      [0 2 -2 0 0 0 0];

internalField   nonuniform List<scalar> 
2000
(
-0.348044
-0.35395
-0.355638
-0.35497
-0.35311
-0.350433
-0.347218
-0.343756
-0.340336
-0.33664
-0.350762
-0.356249
-0.357597
-0.356626
-0.354479
-0.351527
-0.348049
-0.344327
-0.340652
-0.336836
-0.356218
-0.360845
-0.361503
-0.359923
-0.357194
-0.353687
-0.349673
-0.345414
-0.341211
-0.337151
-0.364452
-0.36774
-0.367335
-0.364829
-0.361219
-0.356866
-0.352028
-0.346926
-0.341875
-0.337425
-0.375524
-0.37693
-0.375064
-0.371305
-0.366511
-0.361016
-0.355046
-0.348745
-0.342446
-0.337403
-0.389499
-0.388401
-0.384649
-0.379312
-0.373038
-0.366112
-0.358694
-0.350789
-0.342714
-0.336754
-0.40641
-0.40211
-0.396031
-0.388808
-0.380796
-0.372197
-0.363067
-0.353176
-0.342677
-0.33522
-0.426202
-0.41796
-0.409118
-0.399732
-0.389769
-0.379313
-0.368278
-0.356036
-0.342093
-0.33165
-0.448661
-0.435776
-0.423795
-0.412042
-0.399997
-0.387553
-0.374313
-0.358752
-0.338667
-0.321356
-0.473354
-0.455295
-0.439962
-0.425888
-0.412102
-0.398406
-0.384042
-0.366377
-0.341337
-0.317361
-0.499594
-0.47609
-0.457351
-0.441181
-0.426452
-0.41354
-0.402786
-0.394829
-0.394966
-0.414499
-0.526558
-0.497584
-0.475343
-0.456812
-0.440475
-0.426793
-0.41624
-0.409876
-0.412832
-0.430103
-0.553521
-0.519319
-0.493666
-0.472664
-0.4543
-0.438938
-0.426945
-0.419039
-0.418331
-0.426149
-0.579836
-0.540823
-0.512007
-0.488563
-0.467927
-0.450283
-0.435792
-0.424706
-0.418504
-0.417167
-0.604753
-0.56143
-0.529742
-0.503865
-0.480653
-0.460087
-0.442129
-0.426654
-0.414084
-0.404457
-0.627283
-0.580205
-0.545927
-0.517565
-0.491422
-0.467348
-0.445222
-0.424732
-0.405711
-0.388923
-0.646143
-0.595937
-0.559332
-0.528377
-0.498946
-0.470895
-0.444187
-0.418516
-0.393464
-0.370811
-0.659772
-0.607173
-0.568493
-0.534821
-0.501797
-0.46947
-0.438057
-0.407403
-0.377057
-0.349882
-0.666409
-0.612273
-0.571791
-0.535301
-0.498499
-0.461819
-0.425868
-0.390727
-0.356026
-0.325639
-0.664187
-0.609499
-0.567529
-0.528207
-0.48762
-0.446769
-0.406735
-0.367851
-0.329858
-0.297492
-0.65125
-0.597108
-0.554038
-0.512011
-0.467869
-0.423316
-0.379929
-0.338249
-0.298104
-0.264908
-0.625864
-0.573459
-0.529782
-0.485374
-0.438186
-0.3907
-0.344943
-0.301584
-0.260476
-0.227515
-0.586555
-0.537145
-0.493482
-0.447258
-0.397836
-0.348474
-0.301551
-0.257762
-0.216911
-0.185179
-0.532226
-0.487105
-0.444228
-0.397012
-0.346462
-0.296537
-0.249833
-0.206963
-0.167612
-0.13804
-0.462274
-0.422744
-0.381571
-0.334438
-0.284121
-0.235141
-0.190165
-0.149638
-0.113057
-0.086525
-0.376698
-0.344025
-0.305604
-0.259828
-0.211273
-0.164847
-0.123149
-0.0864053
-0.0538788
-0.0312585
-0.276184
-0.251554
-0.21701
-0.173981
-0.128775
-0.0864967
-0.0495553
-0.0179634
0.00920007
0.026933
-0.162173
-0.146618
-0.117072
-0.0781862
-0.0378649
-0.0012315
0.0295587
0.0545692
0.0746386
0.0860195
-0.0368754
-0.0311894
-0.00764059
0.0258839
0.0600746
0.0898961
0.113335
0.129979
0.139913
0.142284
0.0967547
0.0920889
0.10887
0.136199
0.16372
0.18671
0.203197
0.211565
0.21053
0.203801
0.235141
0.219952
0.229357
0.249865
0.270615
0.287728
0.299933
0.305415
0.304368
0.318286
0.374388
0.348754
0.350209
0.363028
0.376049
0.386022
0.392075
0.393317
0.39224
0.405163
0.510553
0.474824
0.468016
0.472568
0.477221
0.4793
0.478237
0.473616
0.467923
0.473026
0.639788
0.594552
0.579487
0.575585
0.571686
0.565698
0.557362
0.546528
0.53527
0.532428
0.758433
0.7045
0.681527
0.669418
0.657252
0.643504
0.628193
0.611356
0.594686
0.584739
0.863101
0.8015
0.771318
0.751674
0.731965
0.711189
0.689602
0.66739
0.645875
0.629719
0.950776
0.882745
0.846372
0.820237
0.794074
0.767325
0.740446
0.713735
0.68816
0.666801
1.0189
0.945867
0.904597
0.873322
0.842076
0.81065
0.779654
0.749466
0.720746
0.695331
1.06548
0.989014
0.944355
0.909523
0.874775
0.840139
0.806331
0.77378
0.742915
0.714714
1.08912
1.01091
0.964521
0.927872
0.891338
0.855071
0.819836
0.786091
0.754139
0.72452
1.08912
1.01091
0.964521
0.927872
0.891338
0.855071
0.819836
0.786091
0.754139
0.72452
1.06548
0.989014
0.944356
0.909524
0.874775
0.840139
0.806331
0.77378
0.742915
0.714715
1.0189
0.945867
0.904597
0.873322
0.842076
0.81065
0.779654
0.749467
0.720746
0.695331
0.950776
0.882745
0.846373
0.820237
0.794075
0.767325
0.740446
0.713735
0.68816
0.666802
0.863101
0.8015
0.771318
0.751674
0.731966
0.711189
0.689602
0.66739
0.645875
0.629719
0.758433
0.7045
0.681527
0.669419
0.657253
0.643505
0.628193
0.611357
0.594686
0.584739
0.639789
0.594552
0.579487
0.575585
0.571687
0.565698
0.557362
0.546529
0.53527
0.532428
0.510554
0.474824
0.468016
0.472568
0.477222
0.4793
0.478237
0.473616
0.467923
0.473027
0.374389
0.348755
0.35021
0.363029
0.376049
0.386023
0.392076
0.393318
0.39224
0.405164
0.235142
0.219953
0.229358
0.249866
0.270616
0.287729
0.299934
0.305415
0.304369
0.318287
0.0967555
0.0920896
0.108871
0.1362
0.163721
0.186711
0.203198
0.211565
0.210531
0.203802
-0.0368746
-0.0311886
-0.00763981
0.0258847
0.0600753
0.0898968
0.113335
0.12998
0.139914
0.142285
-0.162173
-0.146617
-0.117071
-0.0781854
-0.0378641
-0.00123073
0.0295595
0.0545699
0.0746392
0.0860202
-0.276184
-0.251553
-0.217009
-0.17398
-0.128775
-0.0864958
-0.0495545
-0.0179626
0.00920081
0.0269337
-0.376697
-0.344024
-0.305604
-0.259827
-0.211272
-0.164846
-0.123148
-0.0864045
-0.053878
-0.0312577
-0.462273
-0.422743
-0.38157
-0.334437
-0.28412
-0.23514
-0.190165
-0.149638
-0.113056
-0.0865242
-0.532225
-0.487104
-0.444227
-0.397011
-0.346461
-0.296536
-0.249832
-0.206962
-0.167612
-0.138039
-0.586554
-0.537143
-0.493481
-0.447257
-0.397835
-0.348473
-0.30155
-0.257761
-0.21691
-0.185178
-0.625863
-0.573458
-0.529781
-0.485373
-0.438185
-0.390699
-0.344942
-0.301583
-0.260475
-0.227514
-0.651249
-0.597107
-0.554037
-0.51201
-0.467868
-0.423315
-0.379928
-0.338248
-0.298103
-0.264907
-0.664186
-0.609498
-0.567528
-0.528206
-0.487619
-0.446768
-0.406734
-0.36785
-0.329857
-0.297491
-0.666408
-0.612272
-0.57179
-0.5353
-0.498498
-0.461818
-0.425867
-0.390726
-0.356025
-0.325638
-0.659771
-0.607172
-0.568492
-0.53482
-0.501796
-0.469469
-0.438056
-0.407402
-0.377056
-0.349881
-0.646142
-0.595936
-0.559331
-0.528376
-0.498945
-0.470894
-0.444186
-0.418515
-0.393463
-0.37081
-0.627282
-0.580204
-0.545926
-0.517564
-0.491421
-0.467347
-0.445221
-0.424731
-0.40571
-0.388922
-0.604752
-0.561429
-0.529741
-0.503864
-0.480651
-0.460086
-0.442128
-0.426653
-0.414083
-0.404456
-0.579835
-0.540822
-0.512006
-0.488562
-0.467926
-0.450282
-0.435791
-0.424705
-0.418503
-0.417166
-0.55352
-0.519318
-0.493665
-0.472663
-0.454299
-0.438937
-0.426944
-0.419038
-0.41833
-0.426148
-0.526557
-0.497583
-0.475342
-0.456811
-0.440474
-0.426792
-0.416239
-0.409875
-0.412831
-0.430102
-0.499594
-0.476089
-0.45735
-0.44118
-0.426451
-0.413539
-0.402785
-0.394828
-0.394966
-0.414499
-0.473353
-0.455294
-0.439962
-0.425887
-0.412101
-0.398405
-0.384041
-0.366376
-0.341337
-0.31736
-0.44866
-0.435775
-0.423795
-0.412041
-0.399996
-0.387552
-0.374312
-0.358751
-0.338666
-0.321355
-0.426201
-0.417959
-0.409118
-0.399731
-0.389768
-0.379312
-0.368278
-0.356036
-0.342092
-0.33165
-0.406409
-0.402109
-0.396031
-0.388807
-0.380795
-0.372196
-0.363066
-0.353175
-0.342676
-0.33522
-0.389499
-0.3884
-0.384649
-0.379312
-0.373038
-0.366112
-0.358694
-0.350789
-0.342713
-0.336754
-0.375524
-0.376929
-0.375064
-0.371305
-0.36651
-0.361015
-0.355046
-0.348745
-0.342445
-0.337402
-0.364451
-0.367739
-0.367335
-0.364828
-0.361218
-0.356865
-0.352028
-0.346925
-0.341875
-0.337425
-0.356217
-0.360845
-0.361502
-0.359923
-0.357194
-0.353686
-0.349673
-0.345414
-0.341211
-0.337151
-0.350762
-0.356248
-0.357597
-0.356626
-0.354478
-0.351527
-0.348049
-0.344327
-0.340652
-0.336836
-0.348044
-0.35395
-0.355638
-0.35497
-0.35311
-0.350433
-0.347218
-0.343756
-0.340336
-0.33664
-0.290431
-0.126294
-0.0812233
-0.0303219
-0.019217
-0.00778343
-0.00434364
-0.000873386
-0.000456125
0.00217178
-0.291661
-0.126842
-0.0814937
-0.0305203
-0.0192848
-0.00784313
-0.00437334
-0.000894283
-0.000465404
0.00215596
-0.294053
-0.127924
-0.0820291
-0.0309185
-0.0194204
-0.00796231
-0.00443258
-0.000935925
-0.000483658
0.00212444
-0.297464
-0.129515
-0.0828181
-0.0315185
-0.0196233
-0.00814051
-0.00452118
-0.000998158
-0.000510792
0.00207757
-0.301649
-0.131571
-0.0838346
-0.0323186
-0.0198915
-0.00837633
-0.00463863
-0.00108078
-0.00054653
0.00201578
-0.306253
-0.134017
-0.0850292
-0.033305
-0.0202193
-0.00866621
-0.00478372
-0.00118326
-0.000590521
0.00193973
-0.311145
-0.136921
-0.0864074
-0.034473
-0.0206073
-0.00900738
-0.0049559
-0.00130463
-0.000642969
0.00185099
-0.316848
-0.140937
-0.0882317
-0.0359233
-0.0210988
-0.00941329
-0.00516122
-0.00144525
-0.000705414
0.00175235
-0.321625
-0.146442
-0.0906806
-0.0378212
-0.0217443
-0.00991101
-0.00540884
-0.00161047
-0.000776268
0.00164123
-0.313821
-0.148818
-0.0917916
-0.0395225
-0.0222466
-0.010403
-0.00565359
-0.00180152
-0.000835984
0.00149466
-0.247289
-0.140719
-0.0881711
-0.0427774
-0.0227451
-0.0117348
-0.00637024
-0.00254134
-0.00100182
0.000841418
-0.189194
-0.13171
-0.082169
-0.0442364
-0.0244786
-0.0141274
-0.00821922
-0.00402474
-0.00176351
-8.29699e-07
-0.147778
-0.113852
-0.0727405
-0.0428063
-0.0259046
-0.0163336
-0.0101544
-0.00561607
-0.00269813
-0.000681033
-0.108186
-0.0929501
-0.0633209
-0.0408376
-0.0269544
-0.0181289
-0.0118291
-0.00705095
-0.00358904
-0.00115225
-0.078948
-0.0756776
-0.0565207
-0.0395828
-0.0277788
-0.0194743
-0.0131415
-0.00820485
-0.00433644
-0.00145091
-0.0588565
-0.0628305
-0.0515607
-0.0385834
-0.0281902
-0.0203214
-0.0140683
-0.0090591
-0.00491471
-0.00164456
-0.0458312
-0.0535694
-0.047699
-0.0376133
-0.0282783
-0.0208029
-0.0146921
-0.00966723
-0.00534324
-0.00178123
-0.0375869
-0.0471101
-0.0447369
-0.0367604
-0.0282335
-0.0210726
-0.0151003
-0.0100842
-0.00564592
-0.00188004
-0.0327651
-0.0430093
-0.0427294
-0.0361574
-0.0281773
-0.021219
-0.0153452
-0.0103435
-0.00583885
-0.00194463
-0.0305347
-0.0410078
-0.0417184
-0.0358605
-0.0281536
-0.0212839
-0.0154583
-0.0104654
-0.0059332
-0.00197489
-0.218587
-0.246484
-0.272264
-0.296207
-0.318702
-0.340251
-0.361476
-0.38302
-0.405386
-0.429228
-0.0679423
-0.0780849
-0.0872496
-0.0956796
-0.103682
-0.111637
-0.120004
-0.12932
-0.140166
-0.154333
-0.0451713
-0.0543531
-0.0631493
-0.0715332
-0.0794673
-0.0869067
-0.0938079
-0.100144
-0.105912
-0.111234
-0.0187481
-0.0244682
-0.0299819
-0.0353082
-0.040469
-0.0454875
-0.0503871
-0.0551896
-0.0598952
-0.0643832
-0.013039
-0.0173949
-0.0216262
-0.0257295
-0.0297009
-0.0335364
-0.0372325
-0.0407863
-0.0441781
-0.0473765
-0.00798464
-0.011202
-0.0143599
-0.0174575
-0.0204941
-0.0234693
-0.0263826
-0.0292324
-0.0320073
-0.0347105
-0.00686108
-0.00939799
-0.0118986
-0.0143589
-0.0167752
-0.0191446
-0.0214645
-0.0237323
-0.025942
-0.028107
-0.00606012
-0.00811805
-0.0101595
-0.0121803
-0.0141767
-0.0161455
-0.0180833
-0.0199873
-0.0218541
-0.023691
-0.00597254
-0.00774724
-0.00951402
-0.0112684
-0.0130061
-0.0147232
-0.0164164
-0.0180822
-0.0197187
-0.021327
-0.00591656
-0.00754255
-0.00916595
-0.010783
-0.0123901
-0.013984
-0.0155616
-0.01712
-0.0186577
-0.0201729
0.168012
0.127025
0.0816771
0.0386079
-0.00313053
-0.0440096
-0.0834129
-0.120758
-0.155776
-0.188383
0.117543
0.0916279
0.064836
0.0419972
0.021877
0.00320322
-0.0141072
-0.0298432
-0.0439783
-0.0566278
0.0734226
0.0577246
0.0427716
0.0298594
0.0180081
0.00654143
-0.00461153
-0.0153628
-0.0256893
-0.0356177
0.0531667
0.0440938
0.0354647
0.0277543
0.0204879
0.0133953
0.00647875
-0.000203193
-0.00662917
-0.0128063
0.03763
0.0316787
0.0259385
0.0206478
0.0155575
0.0105365
0.00559142
0.000753767
-0.00396399
-0.00856142
0.0273685
0.0234796
0.0196343
0.0159965
0.012454
0.00893863
0.00545188
0.00201048
-0.00137724
-0.00470927
0.0196659
0.0169375
0.0141823
0.0115057
0.00885962
0.00621125
0.00356234
0.000924065
-0.00169572
-0.00429218
0.0144856
0.0124905
0.0104452
0.00841208
0.0063746
0.00431911
0.00224799
0.000168764
-0.00191221
-0.00399001
0.011155
0.00956003
0.00791608
0.00625235
0.00456405
0.00284807
0.00110827
-0.00064919
-0.00241856
-0.00419468
0.00955887
0.00813824
0.00667428
0.00518122
0.00365845
0.00210703
0.00053128
-0.00106363
-0.00267287
-0.00429194
0.335428
0.334727
0.333178
0.330304
0.32532
0.316988
0.303539
0.282578
0.251471
0.206854
0.24553
0.244413
0.241778
0.237193
0.230323
0.220737
0.207866
0.191051
0.169543
0.142788
0.174699
0.17357
0.170903
0.166378
0.159888
0.151325
0.140498
0.127194
0.111006
0.0920195
0.123089
0.122203
0.120101
0.116538
0.111499
0.105007
0.0970579
0.0876597
0.0767348
0.0646185
0.0867553
0.0861108
0.0845719
0.0819588
0.0782788
0.0735844
0.0679097
0.0612928
0.0537141
0.0453823
0.0615762
0.0611128
0.0600043
0.0581221
0.0554796
0.0521279
0.0481088
0.0434661
0.0382175
0.0325093
0.0444249
0.0440864
0.0432763
0.041901
0.0399722
0.0375302
0.0346088
0.0312405
0.027445
0.0233061
0.0331394
0.0328826
0.0322681
0.031225
0.0297627
0.0279127
0.0257017
0.0231548
0.0202924
0.0171665
0.0263037
0.0260952
0.0255965
0.0247501
0.0235633
0.0220614
0.0202655
0.0181944
0.015866
0.0133117
0.0230833
0.0228968
0.0224516
0.0216965
0.0206377
0.0192972
0.0176938
0.0158437
0.0137637
0.0114765
0.485402
0.487155
0.493488
0.504634
0.520485
0.541345
0.567679
0.600012
0.638879
0.684527
0.483161
0.484888
0.491141
0.502131
0.517734
0.538216
0.563986
0.59548
0.6331
0.676934
0.47873
0.480412
0.486512
0.497199
0.512316
0.532058
0.556717
0.586558
0.621708
0.661958
0.47221
0.473837
0.479727
0.489983
0.504399
0.523065
0.546102
0.57352
0.605027
0.640004
0.46374
0.465317
0.470957
0.480677
0.494208
0.511504
0.532464
0.556754
0.58352
0.611659
0.453487
0.455036
0.46041
0.469511
0.482002
0.497675
0.516162
0.536708
0.55776
0.57766
0.441648
0.443237
0.448364
0.456803
0.468142
0.481988
0.497666
0.513923
0.528421
0.538872
0.428429
0.430244
0.435259
0.443109
0.453324
0.465293
0.477962
0.489442
0.496506
0.496091
0.4139
0.416191
0.421285
0.428671
0.437866
0.448039
0.45769
0.464101
0.46289
0.448811
0.397698
0.400133
0.4048
0.411057
0.418436
0.425987
0.431935
0.433059
0.424593
0.39689
0.397698
0.400134
0.404801
0.411057
0.418437
0.425988
0.431936
0.433059
0.424593
0.39689
0.4139
0.416192
0.421286
0.428672
0.437867
0.44804
0.45769
0.464101
0.46289
0.448811
0.428429
0.430245
0.43526
0.443109
0.453325
0.465293
0.477963
0.489443
0.496507
0.496091
0.441648
0.443237
0.448364
0.456803
0.468143
0.481989
0.497667
0.513923
0.528422
0.538873
0.453487
0.455036
0.46041
0.469511
0.482002
0.497675
0.516163
0.536708
0.55776
0.57766
0.46374
0.465317
0.470958
0.480677
0.494208
0.511504
0.532464
0.556754
0.583521
0.61166
0.47221
0.473837
0.479727
0.489983
0.504399
0.523065
0.546102
0.57352
0.605027
0.640004
0.47873
0.480412
0.486512
0.497199
0.512316
0.532058
0.556717
0.586558
0.621708
0.661958
0.483161
0.484888
0.491141
0.502131
0.517734
0.538216
0.563986
0.59548
0.6331
0.676934
0.485402
0.487155
0.493488
0.504634
0.520485
0.541345
0.567679
0.600012
0.638879
0.684527
0.0230838
0.0228973
0.022452
0.0216969
0.0206382
0.0192977
0.0176943
0.0158442
0.0137642
0.011477
0.0263042
0.0260957
0.0255969
0.0247505
0.0235638
0.0220619
0.020266
0.0181949
0.0158665
0.0133122
0.0331399
0.0328831
0.0322686
0.0312255
0.0297632
0.0279132
0.0257022
0.0231553
0.0202929
0.017167
0.0444254
0.0440869
0.0432767
0.0419015
0.0399727
0.0375307
0.0346093
0.031241
0.0274455
0.0233067
0.0615767
0.0611133
0.0600048
0.0581226
0.0554801
0.0521284
0.0481093
0.0434666
0.038218
0.0325098
0.0867558
0.0861113
0.0845724
0.0819593
0.0782793
0.0735849
0.0679102
0.0612933
0.0537146
0.0453828
0.12309
0.122204
0.120101
0.116539
0.111499
0.105008
0.0970585
0.0876602
0.0767354
0.0646191
0.174699
0.17357
0.170903
0.166379
0.159889
0.151325
0.140499
0.127195
0.111007
0.0920201
0.24553
0.244414
0.241778
0.237194
0.230323
0.220738
0.207866
0.191051
0.169543
0.142789
0.335428
0.334728
0.333179
0.330304
0.32532
0.316989
0.30354
0.282578
0.251471
0.206854
0.00955937
0.00813874
0.00667479
0.00518173
0.00365896
0.00210754
0.00053179
-0.00106312
-0.00267236
-0.00429144
0.0111555
0.00956054
0.0079166
0.00625287
0.00456457
0.00284859
0.00110879
-0.000648676
-0.00241805
-0.00419416
0.0144861
0.012491
0.0104457
0.00841261
0.00637512
0.00431963
0.00224851
0.000169284
-0.00191169
-0.00398949
0.0196665
0.016938
0.0141828
0.0115062
0.00886015
0.00621178
0.00356287
0.000924595
-0.00169519
-0.00429165
0.027369
0.0234801
0.0196348
0.0159971
0.0124545
0.00893917
0.00545242
0.00201102
-0.0013767
-0.00470873
0.0376306
0.0316792
0.025939
0.0206484
0.0155581
0.010537
0.00559198
0.000754325
-0.00396343
-0.00856086
0.0531673
0.0440943
0.0354653
0.0277548
0.0204885
0.0133959
0.00647932
-0.000202614
-0.00662859
-0.0128057
0.0734232
0.0577252
0.0427721
0.02986
0.0180087
0.00654204
-0.00461092
-0.0153622
-0.0256887
-0.0356171
0.117543
0.0916285
0.0648366
0.0419978
0.0218776
0.00320385
-0.0141065
-0.0298426
-0.0439777
-0.0566271
0.168013
0.127026
0.0816778
0.0386086
-0.00312983
-0.0440089
-0.0834122
-0.120757
-0.155776
-0.188382
-0.00591605
-0.00754204
-0.00916543
-0.0107825
-0.0123896
-0.0139835
-0.0155611
-0.0171195
-0.0186572
-0.0201724
-0.00597202
-0.00774672
-0.0095135
-0.0112679
-0.0130056
-0.0147227
-0.0164159
-0.0180817
-0.0197182
-0.0213266
-0.0060596
-0.00811753
-0.0101589
-0.0121797
-0.0141762
-0.0161449
-0.0180828
-0.0199868
-0.0218536
-0.0236906
-0.00686054
-0.00939746
-0.0118981
-0.0143583
-0.0167747
-0.0191441
-0.021464
-0.0237317
-0.0259415
-0.0281065
-0.00798409
-0.0112014
-0.0143593
-0.0174569
-0.0204936
-0.0234688
-0.026382
-0.0292319
-0.0320067
-0.03471
-0.0130384
-0.0173943
-0.0216257
-0.0257289
-0.0297003
-0.0335358
-0.037232
-0.0407857
-0.0441775
-0.0473759
-0.0187476
-0.0244676
-0.0299813
-0.0353076
-0.0404684
-0.045487
-0.0503865
-0.0551891
-0.0598947
-0.0643826
-0.0451707
-0.0543525
-0.0631487
-0.0715326
-0.0794667
-0.086906
-0.0938073
-0.100144
-0.105912
-0.111233
-0.0679416
-0.0780842
-0.0872489
-0.0956789
-0.103681
-0.111637
-0.120003
-0.129319
-0.140165
-0.154332
-0.218587
-0.246484
-0.272263
-0.296206
-0.318701
-0.34025
-0.361475
-0.383019
-0.405385
-0.429227
-0.0305343
-0.0410075
-0.0417181
-0.0358602
-0.0281533
-0.0212834
-0.0154577
-0.0104648
-0.00593272
-0.00197467
-0.0327648
-0.043009
-0.0427291
-0.0361572
-0.0281771
-0.0212186
-0.0153446
-0.0103428
-0.00583834
-0.0019444
-0.0375865
-0.0471098
-0.0447366
-0.0367602
-0.0282333
-0.0210721
-0.0150996
-0.0100834
-0.00564535
-0.0018798
-0.0458308
-0.0535691
-0.0476987
-0.0376132
-0.0282782
-0.0208024
-0.0146914
-0.00966639
-0.00534256
-0.00178098
-0.0588561
-0.0628302
-0.0515605
-0.0385834
-0.0281901
-0.0203209
-0.0140675
-0.00905805
-0.00491388
-0.00164431
-0.0789476
-0.0756774
-0.0565206
-0.039583
-0.0277788
-0.0194737
-0.0131405
-0.00820349
-0.0043354
-0.00145069
-0.108185
-0.0929499
-0.063321
-0.0408382
-0.0269546
-0.0181282
-0.0118279
-0.00704916
-0.00358774
-0.00115211
-0.147778
-0.113851
-0.0727408
-0.0428073
-0.025905
-0.0163328
-0.0101528
-0.00561367
-0.00269653
-0.00068104
-0.189194
-0.13171
-0.0821697
-0.044238
-0.0244794
-0.0141267
-0.00821734
-0.00402166
-0.00176162
-1.03939e-06
-0.247288
-0.140719
-0.0881719
-0.0427795
-0.0227462
-0.0117343
-0.0063683
-0.00253783
-0.000999809
0.000841019
-0.31382
-0.148817
-0.0917923
-0.0395245
-0.0222476
-0.0104026
-0.00565186
-0.00179822
-0.000834248
0.00149416
-0.321624
-0.146442
-0.0906813
-0.037823
-0.0217453
-0.00991067
-0.00540721
-0.00160737
-0.000774661
0.00164074
-0.316847
-0.140936
-0.0882324
-0.035925
-0.0210996
-0.00941297
-0.00515972
-0.00144248
-0.000703978
0.0017519
-0.311145
-0.136921
-0.086408
-0.0344745
-0.0206081
-0.00900708
-0.00495455
-0.00130221
-0.000641702
0.00185059
-0.306252
-0.134016
-0.0850298
-0.0333063
-0.02022
-0.00866594
-0.00478254
-0.00118118
-0.000589418
0.00193937
-0.301649
-0.13157
-0.0838351
-0.0323197
-0.0198921
-0.00837611
-0.00463765
-0.00107907
-0.00054559
0.00201547
-0.297463
-0.129514
-0.0828185
-0.0315194
-0.0196237
-0.00814033
-0.0045204
-0.000996833
-0.000510016
0.00207732
-0.294052
-0.127923
-0.0820294
-0.0309191
-0.0194207
-0.00796219
-0.00443202
-0.000935
-0.000483052
0.00212425
-0.291661
-0.126842
-0.0814939
-0.0305207
-0.0192851
-0.00784306
-0.00437301
-0.000893767
-0.000464981
0.00215583
-0.290431
-0.126294
-0.0812234
-0.030322
-0.0192171
-0.00778341
-0.00434353
-0.000873231
-0.000455961
0.00217174
)
;

boundaryField
{
    inlet
    {
        type            zeroGradient;
    }
    outlet
    {
        type            fixedValue;
        value           uniform 0;
    }
    cylinder
    {
        type            zeroGradient;
    }
    top
    {
        type            symmetryPlane;
    }
    bottom
    {
        type            symmetryPlane;
    }
    defaultFaces
    {
        type            empty;
    }
}


// ************************************************************************* //
