/*--------------------------------*- C++ -*----------------------------------*\
  =========                 |
  \\      /  F ield         | OpenFOAM: The Open Source CFD Toolbox
   \\    /   O peration     | Website:  https://openfoam.org
    \\  /    A nd           | Version:  6.0
     \\/     M anipulation  |
\*---------------------------------------------------------------------------*/
FoamFile
{
    version     2.0;
    format      ascii;
    class       volScalarField;
    location    "0.3";
    object      p;
}
// * * * * * * * * * * * * * * * * * * * * * * * * * * * * * * * * * * * * * //

dimensions      [0 2 -2 0 0 0 0];

internalField   nonuniform List<scalar> 
800
(
9.18254e-09
-0.000204333
-0.000600459
-0.00108804
-0.00159303
-0.00208338
-0.00255202
-0.00300362
-0.00344593
-0.00388486
-0.00432227
-0.00475511
-0.00517514
-0.00556858
-0.00591552
-0.00618893
-0.00635298
-0.00636086
-0.006152
-0.00564918
-0.00475579
-0.00335444
-0.00130801
0.00153481
0.00532752
0.0102053
0.0162553
0.0234779
0.0317452
0.0407648
0.050064
0.0590103
0.0668847
0.0730088
0.0769075
0.0784608
0.0779844
0.0761975
0.0740891
0.0726813
0.000199477
-1.75813e-05
-0.000353295
-0.000751034
-0.00117167
-0.00159403
-0.00201093
-0.00242236
-0.0028298
-0.00323323
-0.00362951
-0.00401176
-0.00436891
-0.00468534
-0.00494033
-0.00510729
-0.0051525
-0.0050335
-0.004697
-0.00407665
-0.00309085
-0.00164139
0.000386155
0.00311891
0.00668798
0.0112127
0.0167759
0.0233911
0.0309629
0.039251
0.0478486
0.0561959
0.0636417
0.0695609
0.073509
0.0753659
0.0754089
0.0742544
0.0726527
0.0713003
0.000617246
0.000295653
-5.72516e-05
-0.000422785
-0.000798533
-0.00117649
-0.00155442
-0.00193314
-0.0023124
-0.00268928
-0.00305769
-0.0034083
-0.00372847
-0.00400216
-0.00420959
-0.00432679
-0.00432477
-0.00416826
-0.00381398
-0.0032084
-0.00228498
-0.000961518
0.000861929
0.00330276
0.00649112
0.0105579
0.0156125
0.0217097
0.0288068
0.0367192
0.0450886
0.0533824
0.0609453
0.0671125
0.0713714
0.0735265
0.0737953
0.0727489
0.0710222
0.06918
0.00115671
0.000671456
0.000252161
-0.000118866
-0.000478228
-0.000831914
-0.00118503
-0.00154217
-0.00190383
-0.0022662
-0.00262182
-0.0029603
-0.00326894
-0.00353301
-0.00373591
-0.00385906
-0.00388147
-0.00377877
-0.00352132
-0.0030713
-0.00237841
-0.00137454
3.18882e-05
0.00195989
0.00455521
0.00798105
0.0123965
0.0179202
0.0245818
0.0322666
0.0406696
0.0492768
0.0574004
0.064282
0.0692625
0.0719817
0.0725316
0.0714332
0.0692909
0.0667082
0.00170562
0.00102832
0.000520973
0.000127593
-0.000230335
-0.000573176
-0.000913682
-0.00126075
-0.00161619
-0.00197598
-0.00233214
-0.00267438
-0.00299137
-0.00327164
-0.00350423
-0.00367903
-0.00378671
-0.00381779
-0.00376027
-0.00359538
-0.00329091
-0.00279245
-0.00201349
-0.000827076
0.000937227
0.0034863
0.00704201
0.0118027
0.0178892
0.0252803
0.0337513
0.0428334
0.05182
0.0598454
0.0660495
0.0698126
0.0709953
0.0700004
0.0674175
0.0639974
0.00215804
0.0012753
0.000669851
0.00024488
-0.000122106
-0.000465659
-0.00080548
-0.00115414
-0.00151449
-0.00188246
-0.00225018
-0.00260856
-0.0029492
-0.00326597
-0.00355614
-0.00382122
-0.00406703
-0.00430257
-0.00453677
-0.00477238
-0.00499644
-0.00516782
-0.00520315
-0.00496456
-0.00425342
-0.00281545
-0.000361234
0.00339521
0.00868024
0.0155908
0.0240193
0.0335876
0.0436151
0.0531512
0.061109
0.0665207
0.0688781
0.0683363
0.0654121
0.0610721
0.00240815
0.00131381
0.000606779
0.00014637
-0.000235851
-0.000588156
-0.00093593
-0.00129417
-0.001666
-0.00204713
-0.0024303
-0.00280864
-0.00317827
-0.00354044
-0.00390313
-0.00428221
-0.0047015
-0.00519113
-0.00578303
-0.00650268
-0.00735672
-0.00831696
-0.00930284
-0.010166
-0.0106817
-0.0105513
-0.00942152
-0.00691943
-0.00270699
0.00344868
0.0115918
0.0214892
0.032555
0.0438189
0.0539932
0.061708
0.0659392
0.0663951
0.0633599
0.0580269
0.00234641
0.00103682
0.000229336
-0.00026456
-0.000661808
-0.00102403
-0.00138076
-0.00174796
-0.00212801
-0.00251613
-0.0029061
-0.00329428
-0.00368279
-0.00408209
-0.00451294
-0.00500759
-0.00560967
-0.00637168
-0.00734907
-0.00858983
-0.0101196
-0.0119226
-0.0139219
-0.0159614
-0.0177958
-0.0190906
-0.019438
-0.018388
-0.0154965
-0.0103918
-0.00285856
0.00705951
0.0189468
0.0319144
0.0445674
0.0551573
0.0620357
0.064219
0.0614728
0.0551268
0.00185697
0.000327163
-0.00057559
-0.00109317
-0.00149532
-0.00185718
-0.00221115
-0.00257272
-0.0029427
-0.00331567
-0.00368695
-0.00405716
-0.0044358
-0.00484405
-0.00531683
-0.00590392
-0.00666918
-0.00768713
-0.00903548
-0.0107829
-0.0129717
-0.0155977
-0.0185876
-0.021781
-0.0249179
-0.027638
-0.0294924
-0.0299697
-0.0285378
-0.0247015
-0.0180809
-0.00851486
0.00380658
0.0181842
0.0332653
0.0470509
0.0572658
0.0620145
0.0601491
0.0528822
0.00081392
-0.000946007
-0.00193284
-0.00245122
-0.00283195
-0.00316531
-0.00348593
-0.00380792
-0.00413003
-0.00444635
-0.00475441
-0.00506014
-0.00538156
-0.00575164
-0.00622016
-0.00685435
-0.00773742
-0.00896386
-0.0106306
-0.0128234
-0.0155977
-0.0189577
-0.0228331
-0.0270604
-0.0313699
-0.0353835
-0.0386243
-0.040538
-0.0405284
-0.038007
-0.0324602
-0.0235431
-0.0112091
0.00410554
0.0212484
0.0381844
0.0521608
0.0602731
0.0600466
0.0521271
-0.000926773
-0.0029348
-0.00398225
-0.00445497
-0.00476141
-0.00501145
-0.00524236
-0.00546659
-0.00568073
-0.00587872
-0.006061
-0.00623965
-0.00644202
-0.00671324
-0.00711771
-0.00773899
-0.0086773
-0.0100437
-0.0119498
-0.0144932
-0.0177377
-0.0216913
-0.026284
-0.0313483
-0.0366069
-0.0416694
-0.0460401
-0.0491372
-0.0503239
-0.0489507
-0.0444133
-0.03623
-0.0241546
-0.00835212
0.010329
0.0300464
0.0478485
0.0599231
0.0621765
0.0541134
-0.00354464
-0.00582772
-0.00688499
-0.0072226
-0.00735909
-0.00743261
-0.00748425
-0.00752473
-0.00754827
-0.0075487
-0.00752957
-0.00750938
-0.00752474
-0.00763241
-0.00791006
-0.00845523
-0.00938172
-0.0108125
-0.0128687
-0.0156534
-0.0192329
-0.0236139
-0.0287224
-0.0343847
-0.0403153
-0.0461133
-0.0512692
-0.0551832
-0.0571927
-0.0566121
-0.0527825
-0.0451373
-0.033293
-0.0171971
0.00261701
0.0246536
0.0460748
0.0624484
0.0680178
0.0606307
-0.00729215
-0.0098779
-0.0108328
-0.0108678
-0.0106713
-0.0104219
-0.0101645
-0.0099063
-0.00963748
-0.00935036
-0.00905047
-0.00876151
-0.00852792
-0.00841614
-0.00851445
-0.00893086
-0.00978832
-0.0112165
-0.0133399
-0.0162614
-0.0200434
-0.0246862
-0.0301071
-0.036123
-0.0424381
-0.0486403
-0.0542077
-0.0585246
-0.0609083
-0.0606467
-0.0570451
-0.0494854
-0.0375033
-0.0209065
1.85769e-05
0.0241541
0.0490081
0.0699001
0.079642
0.0741659
-0.0125766
-0.0154539
-0.0160569
-0.0154824
-0.0146873
-0.0138989
-0.0131578
-0.0124603
-0.0117869
-0.0111233
-0.0104733
-0.00986219
-0.00933859
-0.00897486
-0.00886573
-0.00912498
-0.00987951
-0.0112601
-0.0133889
-0.0163627
-0.0202348
-0.0249942
-0.0305456
-0.0366931
-0.0431282
-0.0494261
-0.0550501
-0.0593667
-0.0616706
-0.0612202
-0.0572836
-0.049197
-0.0364394
-0.0187346
0.00378785
0.0303219
0.0588209
0.0847023
0.0997779
0.0980919
-0.0201436
-0.0231258
-0.0228189
-0.0210864
-0.0192818
-0.0176556
-0.0162139
-0.0149232
-0.0137389
-0.01263
-0.0115896
-0.0106374
-0.00982019
-0.00921039
-0.00890339
-0.00901306
-0.00966458
-0.0109843
-0.0130865
-0.0160575
-0.0199369
-0.0246988
-0.0302326
-0.0363271
-0.0426592
-0.0487891
-0.0541632
-0.0581265
-0.0599443
-0.0588353
-0.0540152
-0.0447565
-0.0304654
-0.0107854
0.014264
0.0441021
0.0771279
0.10915
0.131568
0.136705
-0.031487
-0.0337993
-0.0313412
-0.0275118
-0.0241067
-0.0212651
-0.0188853
-0.0168622
-0.0150984
-0.0135248
-0.012109
-0.0108538
-0.00979505
-0.0089975
-0.00855061
-0.00856228
-0.00915042
-0.0104319
-0.0125092
-0.0154541
-0.0192901
-0.0239745
-0.0293798
-0.035279
-0.0413338
-0.0470886
-0.0519718
-0.0553041
-0.0563166
-0.0541772
-0.0480305
-0.0370525
-0.0205286
0.00203835
0.030786
0.0653448
0.104533
0.144803
0.177949
0.194885
-0.0498371
-0.0489056
-0.0416836
-0.0342788
-0.0284887
-0.0240036
-0.0204763
-0.0176534
-0.0153315
-0.0133678
-0.0116808
-0.0102414
-0.00906376
-0.00819743
-0.00772003
-0.00772866
-0.00832994
-0.00962817
-0.0117113
-0.0146353
-0.0184072
-0.0229672
-0.0281721
-0.0337802
-0.0394397
-0.0446815
-0.0489178
-0.0514471
-0.051466
-0.048089
-0.0403769
-0.0273784
-0.0081916
0.017943
0.051505
0.0925305
0.140374
0.192406
0.241953
0.27908
-0.0834605
-0.0703733
-0.0532182
-0.0401813
-0.0310904
-0.0246087
-0.0199146
-0.0164446
-0.0137879
-0.0116764
-0.00995545
-0.00855224
-0.00745382
-0.00669218
-0.00633199
-0.00645926
-0.00716945
-0.00855478
-0.0106901
-0.0136175
-0.0173297
-0.0217536
-0.0267339
-0.0320188
-0.0372479
-0.0419442
-0.0455109
-0.0472323
-0.046281
-0.0417286
-0.0325604
-0.0176933
0.00400484
0.0336886
0.0724918
0.12143
0.181189
0.251211
0.329149
0.405187
-0.157084
-0.0979285
-0.0591735
-0.0390036
-0.0271343
-0.0194988
-0.0145927
-0.0113909
-0.00917604
-0.00754021
-0.00627856
-0.00529998
-0.0045847
-0.0041629
-0.0040991
-0.00447847
-0.00539417
-0.00693453
-0.00916925
-0.0121346
-0.0158179
-0.0201414
-0.0249468
-0.0299816
-0.0348867
-0.0391883
-0.0422927
-0.0434856
-0.0419353
-0.0366967
-0.0267157
-0.0108229
0.012295
0.0441728
0.0867481
0.142694
0.215964
0.312261
0.442496
0.605833
-0.317982
-0.120825
-0.0416068
-0.0193734
-0.0100545
-0.00471373
-0.00208317
-0.00100901
-0.000587113
-0.000393077
-0.000280899
-0.0002202
-0.000238491
-0.000401917
-0.000802092
-0.00154421
-0.00273608
-0.00447701
-0.00684553
-0.0098858
-0.013593
-0.0178983
-0.0226535
-0.0276182
-0.0324472
-0.0366821
-0.0397455
-0.0409393
-0.039446
-0.0343311
-0.0245425
-0.00889523
0.0139785
0.0457612
0.0887973
0.146971
0.228189
0.349893
0.548972
0.865229
)
;

boundaryField
{
    movingWall
    {
        type            zeroGradient;
    }
    fixedWalls
    {
        type            zeroGradient;
    }
    frontAndBack
    {
        type            empty;
    }
}


// ************************************************************************* //
