/*--------------------------------*- C++ -*----------------------------------*\
  =========                 |
  \\      /  F ield         | OpenFOAM: The Open Source CFD Toolbox
   \\    /   O peration     | Website:  https://openfoam.org
    \\  /    A nd           | Version:  6.0
     \\/     M anipulation  |
\*---------------------------------------------------------------------------*/
FoamFile
{
    version     2.0;
    format      ascii;
    class       volVectorField;
    location    "0.3";
    object      U;
}
// * * * * * * * * * * * * * * * * * * * * * * * * * * * * * * * * * * * * * //

dimensions      [0 1 -1 0 0 0 0];

internalField   nonuniform List<vector> 
800
(
(0.000170617 -0.000171432 0)
(0.000385238 -0.000124204 0)
(0.000268208 2.58339e-05 0)
(-0.000234528 0.000159924 0)
(-0.0010474 0.000252093 0)
(-0.0020672 0.000306287 0)
(-0.00321293 0.000335042 0)
(-0.00443569 0.000351333 0)
(-0.00571563 0.000365241 0)
(-0.00705484 0.000383546 0)
(-0.00847077 0.000410582 0)
(-0.00999128 0.00044922 0)
(-0.0116517 0.000501618 0)
(-0.013493 0.000569708 0)
(-0.0155612 0.000655419 0)
(-0.0179058 0.000760676 0)
(-0.0205786 0.000887197 0)
(-0.0236311 0.00103607 0)
(-0.02711 0.00120708 0)
(-0.0310507 0.00139767 0)
(-0.0354682 0.00160157 0)
(-0.0403439 0.00180707 0)
(-0.0456102 0.0019951 0)
(-0.0511322 0.00213768 0)
(-0.05669 0.00219733 0)
(-0.0619651 0.00212859 0)
(-0.0665375 0.00188285 0)
(-0.0699005 0.0014174 0)
(-0.0715013 0.000708984 0)
(-0.0708113 -0.000229867 0)
(-0.0674265 -0.00133533 0)
(-0.0611866 -0.00248407 0)
(-0.0522903 -0.00349973 0)
(-0.0413717 -0.00418018 0)
(-0.0294952 -0.00434648 0)
(-0.0180346 -0.0039035 0)
(-0.00843078 -0.00288953 0)
(-0.00186837 -0.00148898 0)
(0.0010739 -3.77635e-05 0)
(0.000807929 0.000758353 0)
(0.000130632 -0.000399363 0)
(-5.26545e-06 -6.77185e-06 0)
(-0.000993331 0.000707714 0)
(-0.00282865 0.0013588 0)
(-0.0053519 0.00184283 0)
(-0.00837447 0.00216437 0)
(-0.0117371 0.00236868 0)
(-0.015335 0.00250931 0)
(-0.0191201 0.00263259 0)
(-0.023092 0.00277338 0)
(-0.0272866 0.00295638 0)
(-0.0317668 0.00319917 0)
(-0.0366148 0.00351486 0)
(-0.0419274 0.00391377 0)
(-0.0478114 0.00440395 0)
(-0.0543784 0.00499051 0)
(-0.0617374 0.00567404 0)
(-0.0699851 0.00644793 0)
(-0.0791912 0.00729462 0)
(-0.0893799 0.00818078 0)
(-0.100505 0.00905177 0)
(-0.112423 0.00982595 0)
(-0.124859 0.0103906 0)
(-0.137383 0.0106012 0)
(-0.149391 0.010288 0)
(-0.160103 0.00927108 0)
(-0.168591 0.00738814 0)
(-0.173844 0.00453366 0)
(-0.174868 0.000706547 0)
(-0.170817 -0.00394119 0)
(-0.161158 -0.00906707 0)
(-0.145837 -0.0141286 0)
(-0.125425 -0.01842 0)
(-0.101209 -0.021172 0)
(-0.0751833 -0.0217193 0)
(-0.0498686 -0.019714 0)
(-0.0279373 -0.0153209 0)
(-0.0116507 -0.00930262 0)
(-0.00230712 -0.00302269 0)
(0.000269444 0.00115388 0)
(-4.83439e-05 -0.000270665 0)
(-0.000895247 0.0010249 0)
(-0.00316603 0.00278205 0)
(-0.00664058 0.0043574 0)
(-0.0110444 0.00555982 0)
(-0.0161301 0.00639741 0)
(-0.0216937 0.00696447 0)
(-0.0275996 0.00737836 0)
(-0.0337854 0.00774591 0)
(-0.0402502 0.00815179 0)
(-0.0470422 0.00865908 0)
(-0.0542465 0.00931399 0)
(-0.061975 0.0101507 0)
(-0.0703589 0.0111938 0)
(-0.0795396 0.0124587 0)
(-0.0896585 0.013949 0)
(-0.100844 0.0156515 0)
(-0.113194 0.0175289 0)
(-0.126753 0.0195116 0)
(-0.141482 0.0214866 0)
(-0.157233 0.0232882 0)
(-0.173708 0.0246906 0)
(-0.19044 0.0254079 0)
(-0.206765 0.0251046 0)
(-0.221833 0.023422 0)
(-0.234628 0.0200218 0)
(-0.244028 0.0146473 0)
(-0.248887 0.00719638 0)
(-0.248147 -0.00220013 0)
(-0.240966 -0.0131089 0)
(-0.226852 -0.0247466 0)
(-0.205815 -0.0359754 0)
(-0.178504 -0.0453698 0)
(-0.146332 -0.0513856 0)
(-0.111519 -0.0526574 0)
(-0.0770052 -0.048412 0)
(-0.0460929 -0.0389014 0)
(-0.021817 -0.0256625 0)
(-0.00635755 -0.0115061 0)
(-0.000522157 -0.000685513 0)
(-0.000271101 0.000402097 0)
(-0.00199435 0.00326007 0)
(-0.00579701 0.0064748 0)
(-0.0111302 0.00924454 0)
(-0.0175528 0.0113454 0)
(-0.0247498 0.0128228 0)
(-0.0324794 0.0138427 0)
(-0.0405859 0.0146025 0)
(-0.0489996 0.0152824 0)
(-0.0577217 0.0160274 0)
(-0.066808 0.0169476 0)
(-0.0763562 0.0181242 0)
(-0.0864936 0.0196162 0)
(-0.0973663 0.0214631 0)
(-0.109127 0.0236831 0)
(-0.121922 0.0262684 0)
(-0.135869 0.0291752 0)
(-0.151038 0.0323122 0)
(-0.167424 0.0355268 0)
(-0.184913 0.0385913 0)
(-0.203257 0.0411929 0)
(-0.222046 0.0429313 0)
(-0.240693 0.04333 0)
(-0.258434 0.0418656 0)
(-0.274352 0.0380175 0)
(-0.287413 0.0313375 0)
(-0.296532 0.0215336 0)
(-0.30064 0.00856117 0)
(-0.29876 -0.00728795 0)
(-0.29009 -0.0253058 0)
(-0.274097 -0.0443093 0)
(-0.250632 -0.0626207 0)
(-0.220084 -0.0781234 0)
(-0.18357 -0.0884491 0)
(-0.143113 -0.0913634 0)
(-0.101729 -0.0853851 0)
(-0.0632107 -0.0705424 0)
(-0.031502 -0.0489583 0)
(-0.0100656 -0.0249076 0)
(-0.00115778 -0.00456248 0)
(-0.000509981 0.00169786 0)
(-0.00319238 0.00686165 0)
(-0.00866708 0.0119457 0)
(-0.0159819 0.0161181 0)
(-0.0244855 0.0192088 0)
(-0.0337788 0.0213567 0)
(-0.0435782 0.0228319 0)
(-0.0537095 0.0239296 0)
(-0.0640979 0.0249125 0)
(-0.0747451 0.0259909 0)
(-0.08571 0.0273243 0)
(-0.0970932 0.0290304 0)
(-0.109024 0.0311922 0)
(-0.121648 0.03386 0)
(-0.135111 0.0370481 0)
(-0.149544 0.0407257 0)
(-0.165039 0.0448036 0)
(-0.18163 0.049119 0)
(-0.19926 0.0534188 0)
(-0.217761 0.0573475 0)
(-0.236832 0.0604412 0)
(-0.256025 0.0621358 0)
(-0.274745 0.0617931 0)
(-0.292266 0.0587473 0)
(-0.307761 0.0523723 0)
(-0.320336 0.0421627 0)
(-0.329074 0.0278226 0)
(-0.333063 0.00935575 0)
(-0.33143 -0.012846 0)
(-0.323359 -0.0379144 0)
(-0.308145 -0.0644197 0)
(-0.285286 -0.090302 0)
(-0.25465 -0.112862 0)
(-0.216741 -0.128895 0)
(-0.173049 -0.135094 0)
(-0.126375 -0.128842 0)
(-0.0808847 -0.109376 0)
(-0.0416305 -0.0789274 0)
(-0.013853 -0.0431095 0)
(-0.00175019 -0.0102624 0)
(-0.000756997 0.00364819 0)
(-0.00444074 0.0119133 0)
(-0.0116541 0.0192863 0)
(-0.0209919 0.0250356 0)
(-0.0315595 0.0291468 0)
(-0.0428585 0.0319214 0)
(-0.0545569 0.0337753 0)
(-0.0664599 0.0351226 0)
(-0.0784864 0.0363169 0)
(-0.0906357 0.0376366 0)
(-0.102964 0.0392905 0)
(-0.115566 0.0414306 0)
(-0.128564 0.0441603 0)
(-0.142089 0.047536 0)
(-0.15627 0.051561 0)
(-0.171214 0.0561733 0)
(-0.186987 0.0612305 0)
(-0.203589 0.066492 0)
(-0.220939 0.0716047 0)
(-0.238854 0.0760943 0)
(-0.257042 0.0793684 0)
(-0.275098 0.0807355 0)
(-0.29252 0.0794441 0)
(-0.308724 0.0747402 0)
(-0.323072 0.065939 0)
(-0.334891 0.0525032 0)
(-0.343482 0.0341227 0)
(-0.348113 0.0107921 0)
(-0.348005 -0.0171053 0)
(-0.342303 -0.0486978 0)
(-0.330089 -0.0825007 0)
(-0.310432 -0.116272 0)
(-0.282554 -0.146891 0)
(-0.246132 -0.170365 0)
(-0.20179 -0.182135 0)
(-0.151714 -0.177948 0)
(-0.100109 -0.155444 0)
(-0.0531254 -0.116134 0)
(-0.018284 -0.0666394 0)
(-0.0024663 -0.0179284 0)
(-0.00101058 0.00627016 0)
(-0.00571896 0.018452 0)
(-0.0146922 0.0285193 0)
(-0.0260327 0.0359744 0)
(-0.0385777 0.041071 0)
(-0.051718 0.0443523 0)
(-0.0650692 0.0464272 0)
(-0.0784146 0.0478518 0)
(-0.0916652 0.0490797 0)
(-0.104815 0.0504578 0)
(-0.117914 0.0522422 0)
(-0.131046 0.0546154 0)
(-0.144317 0.0576972 0)
(-0.15784 0.0615458 0)
(-0.171722 0.0661495 0)
(-0.186049 0.0714131 0)
(-0.200864 0.0771417 0)
(-0.21616 0.0830246 0)
(-0.231857 0.0886241 0)
(-0.247803 0.0933736 0)
(-0.26377 0.096589 0)
(-0.27946 0.0974978 0)
(-0.294524 0.0952848 0)
(-0.308575 0.0891515 0)
(-0.321203 0.0783831 0)
(-0.331977 0.0624138 0)
(-0.340426 0.0408895 0)
(-0.34601 0.0137286 0)
(-0.348065 -0.0188014 0)
(-0.345749 -0.0559751 0)
(-0.338 -0.096446 0)
(-0.323536 -0.138023 0)
(-0.300957 -0.17741 0)
(-0.26902 -0.210009 0)
(-0.227197 -0.229991 0)
(-0.176537 -0.231046 0)
(-0.120644 -0.208249 0)
(-0.0663416 -0.161086 0)
(-0.0237439 -0.0963396 0)
(-0.00343713 -0.0280044 0)
(-0.00127315 0.00957784 0)
(-0.00702672 0.0264924 0)
(-0.0177602 0.0396239 0)
(-0.0310416 0.048851 0)
(-0.0454191 0.0548208 0)
(-0.0601684 0.0584067 0)
(-0.0748542 0.0604615 0)
(-0.0892408 0.0617076 0)
(-0.103234 0.0627065 0)
(-0.116823 0.0638734 0)
(-0.130051 0.0655078 0)
(-0.142987 0.0678188 0)
(-0.155723 0.0709388 0)
(-0.168351 0.0749254 0)
(-0.18096 0.0797523 0)
(-0.19362 0.0852953 0)
(-0.206369 0.0913169 0)
(-0.219207 0.097453 0)
(-0.232091 0.103207 0)
(-0.244929 0.107953 0)
(-0.257591 0.110956 0)
(-0.269921 0.111405 0)
(-0.281741 0.10846 0)
(-0.292872 0.101311 0)
(-0.30313 0.0892263 0)
(-0.312314 0.0716098 0)
(-0.320181 0.04804 0)
(-0.326396 0.018315 0)
(-0.330468 -0.0174844 0)
(-0.331672 -0.058888 0)
(-0.328961 -0.104855 0)
(-0.320892 -0.15349 0)
(-0.305616 -0.201652 0)
(-0.281044 -0.244498 0)
(-0.245342 -0.275187 0)
(-0.197926 -0.285205 0)
(-0.140928 -0.266146 0)
(-0.0809081 -0.2137 0)
(-0.0303803 -0.13305 0)
(-0.00475631 -0.0410998 0)
(-0.00155218 0.0135918 0)
(-0.00838599 0.0360489 0)
(-0.0208825 0.0525591 0)
(-0.0360183 0.0635399 0)
(-0.0520338 0.0701777 0)
(-0.068094 0.0737749 0)
(-0.0837243 0.0754833 0)
(-0.0986815 0.0762157 0)
(-0.112875 0.0766473 0)
(-0.126297 0.0772602 0)
(-0.138986 0.0783923 0)
(-0.151006 0.0802746 0)
(-0.162431 0.0830493 0)
(-0.173341 0.0867731 0)
(-0.183811 0.0914089 0)
(-0.193904 0.0968125 0)
(-0.203667 0.102719 0)
(-0.213126 0.108732 0)
(-0.222286 0.114324 0)
(-0.231136 0.118845 0)
(-0.239658 0.121542 0)
(-0.247836 0.1216 0)
(-0.255663 0.118184 0)
(-0.263148 0.110487 0)
(-0.270306 0.0977763 0)
(-0.277147 0.0794259 0)
(-0.283642 0.0549448 0)
(-0.289679 0.0240028 0)
(-0.294997 -0.0135262 0)
(-0.299096 -0.0574771 0)
(-0.301121 -0.107226 0)
(-0.299713 -0.161391 0)
(-0.292868 -0.217345 0)
(-0.277909 -0.270521 0)
(-0.251788 -0.313627 0)
(-0.212 -0.336258 0)
(-0.158338 -0.326002 0)
(-0.095737 -0.272785 0)
(-0.0381119 -0.177257 0)
(-0.00649487 -0.0578708 0)
(-0.00186421 0.0183531 0)
(-0.00985148 0.0471592 0)
(-0.0241404 0.0672828 0)
(-0.0410314 0.0798832 0)
(-0.0584387 0.0868661 0)
(-0.0754365 0.0900774 0)
(-0.0915381 0.0910262 0)
(-0.106517 0.0908376 0)
(-0.120306 0.0903042 0)
(-0.132916 0.0899695 0)
(-0.144393 0.0902038 0)
(-0.154801 0.0912538 0)
(-0.164209 0.0932684 0)
(-0.17269 0.0963039 0)
(-0.180312 0.100318 0)
(-0.187141 0.105156 0)
(-0.193237 0.110544 0)
(-0.198659 0.116075 0)
(-0.203469 0.121217 0)
(-0.207737 0.125321 0)
(-0.211551 0.127648 0)
(-0.215023 0.1274 0)
(-0.218293 0.123766 0)
(-0.221529 0.115959 0)
(-0.22492 0.103251 0)
(-0.228656 0.0849988 0)
(-0.232904 0.0606587 0)
(-0.237771 0.0297941 0)
(-0.243252 -0.00790283 0)
(-0.249142 -0.0525603 0)
(-0.254911 -0.104004 0)
(-0.259509 -0.161496 0)
(-0.261112 -0.223234 0)
(-0.256879 -0.285488 0)
(-0.242926 -0.341335 0)
(-0.214908 -0.379327 0)
(-0.169707 -0.383248 0)
(-0.109143 -0.335669 0)
(-0.0466464 -0.228738 0)
(-0.0087165 -0.0789345 0)
(-0.00224294 0.023947 0)
(-0.0115308 0.0599165 0)
(-0.0276947 0.0837685 0)
(-0.0462279 0.0976889 0)
(-0.0647071 0.104539 0)
(-0.0821625 0.106845 0)
(-0.0981464 0.106533 0)
(-0.112492 0.104958 0)
(-0.125189 0.103025 0)
(-0.136289 0.10133 0)
(-0.145867 0.100266 0)
(-0.154003 0.100086 0)
(-0.160771 0.10094 0)
(-0.166244 0.102884 0)
(-0.17049 0.105873 0)
(-0.173581 0.109755 0)
(-0.175591 0.114257 0)
(-0.176612 0.118984 0)
(-0.176754 0.123421 0)
(-0.176157 0.126943 0)
(-0.174998 0.128844 0)
(-0.173496 0.128361 0)
(-0.171911 0.124721 0)
(-0.170543 0.117164 0)
(-0.169719 0.104982 0)
(-0.169781 0.0875297 0)
(-0.171068 0.0642318 0)
(-0.173883 0.0345833 0)
(-0.17846 -0.00185493 0)
(-0.184896 -0.0454446 0)
(-0.193038 -0.0964109 0)
(-0.20229 -0.154669 0)
(-0.211304 -0.219402 0)
(-0.217551 -0.288176 0)
(-0.216928 -0.355344 0)
(-0.203762 -0.409718 0)
(-0.171973 -0.432424 0)
(-0.119074 -0.398139 0)
(-0.0554974 -0.286254 0)
(-0.0114905 -0.10482 0)
(-0.00275507 0.0305446 0)
(-0.0136205 0.0745112 0)
(-0.0318187 0.102013 0)
(-0.0518406 0.116706 0)
(-0.0709386 0.122737 0)
(-0.0881938 0.123474 0)
(-0.103286 0.121314 0)
(-0.116176 0.117845 0)
(-0.126956 0.114074 0)
(-0.135757 0.110629 0)
(-0.142708 0.107907 0)
(-0.147921 0.106155 0)
(-0.151491 0.105515 0)
(-0.153497 0.106037 0)
(-0.154011 0.107675 0)
(-0.153108 0.110282 0)
(-0.150873 0.113603 0)
(-0.147416 0.117266 0)
(-0.142882 0.120789 0)
(-0.137461 0.123591 0)
(-0.131392 0.125012 0)
(-0.124973 0.124343 0)
(-0.118555 0.120854 0)
(-0.112538 0.113827 0)
(-0.107362 0.102582 0)
(-0.103491 0.0864837 0)
(-0.101401 0.0649518 0)
(-0.10156 0.0374465 0)
(-0.104401 0.00345159 0)
(-0.11028 -0.0375473 0)
(-0.119398 -0.086067 0)
(-0.131648 -0.142562 0)
(-0.146327 -0.207163 0)
(-0.161634 -0.278952 0)
(-0.17395 -0.35431 0)
(-0.177143 -0.423834 0)
(-0.162738 -0.46803 0)
(-0.123408 -0.454745 0)
(-0.0640013 -0.34732 0)
(-0.0149013 -0.135952 0)
(-0.00353227 0.0384803 0)
(-0.0164701 0.0912879 0)
(-0.0369434 0.122021 0)
(-0.0581738 0.136557 0)
(-0.0771723 0.140796 0)
(-0.0932543 0.139128 0)
(-0.10637 0.134456 0)
(-0.116703 0.12858 0)
(-0.124514 0.12257 0)
(-0.130057 0.117057 0)
(-0.133543 0.112415 0)
(-0.135137 0.108864 0)
(-0.134964 0.106521 0)
(-0.133117 0.105418 0)
(-0.12967 0.105504 0)
(-0.124695 0.106641 0)
(-0.118274 0.108592 0)
(-0.110519 0.111019 0)
(-0.101585 0.113488 0)
(-0.0916803 0.115471 0)
(-0.0810793 0.116371 0)
(-0.0701232 0.11554 0)
(-0.0592202 0.112308 0)
(-0.0488393 0.106008 0)
(-0.0395001 0.0959973 0)
(-0.031761 0.0816673 0)
(-0.0262055 0.0624472 0)
(-0.0234284 0.0377904 0)
(-0.0240193 0.0071482 0)
(-0.0285394 -0.0300704 0)
(-0.0374799 -0.074548 0)
(-0.0511723 -0.127091 0)
(-0.0695822 -0.188563 0)
(-0.091862 -0.259464 0)
(-0.115489 -0.338591 0)
(-0.134919 -0.419707 0)
(-0.140416 -0.485342 0)
(-0.120145 -0.499358 0)
(-0.0712857 -0.408058 0)
(-0.0190358 -0.172623 0)
(-0.00483528 0.0483978 0)
(-0.0206921 0.110811 0)
(-0.0436979 0.143722 0)
(-0.0655066 0.156572 0)
(-0.0831507 0.157662 0)
(-0.0965173 0.152568 0)
(-0.106044 0.144674 0)
(-0.112264 0.135919 0)
(-0.115686 0.127376 0)
(-0.116729 0.11962 0)
(-0.115712 0.112963 0)
(-0.112868 0.107564 0)
(-0.108354 0.103493 0)
(-0.102274 0.100749 0)
(-0.0946984 0.0992641 0)
(-0.0856823 0.0989004 0)
(-0.0752883 0.0994412 0)
(-0.0636057 0.100587 0)
(-0.0507695 0.101954 0)
(-0.036976 0.103082 0)
(-0.022494 0.103444 0)
(-0.00767052 0.102468 0)
(0.00706823 0.0995534 0)
(0.0212221 0.0940975 0)
(0.0342257 0.0855085 0)
(0.0454594 0.0732188 0)
(0.0542615 0.0566843 0)
(0.0599393 0.0353734 0)
(0.0617794 0.00873901 0)
(0.0590572 -0.023827 0)
(0.0510515 -0.0630638 0)
(0.0370776 -0.109935 0)
(0.0165884 -0.165726 0)
(-0.0105321 -0.23199 0)
(-0.0432055 -0.309821 0)
(-0.0774511 -0.397025 0)
(-0.103827 -0.480898 0)
(-0.107245 -0.525743 0)
(-0.0760625 -0.463135 0)
(-0.0238839 -0.214827 0)
(-0.00717369 0.0615274 0)
(-0.027324 0.133899 0)
(-0.0528508 0.166724 0)
(-0.0737118 0.175438 0)
(-0.0876614 0.17155 0)
(-0.0957525 0.161857 0)
(-0.0992121 0.150069 0)
(-0.0990705 0.138119 0)
(-0.0961525 0.126959 0)
(-0.0910708 0.11703 0)
(-0.0842548 0.108519 0)
(-0.0759902 0.101483 0)
(-0.0664531 0.0959149 0)
(-0.0557403 0.091757 0)
(-0.0438965 0.0889106 0)
(-0.0309404 0.0872286 0)
(-0.0168897 0.0865087 0)
(-0.00178498 0.0864868 0)
(0.0142888 0.0868345 0)
(0.0311835 0.0871608 0)
(0.0486736 0.0870199 0)
(0.066447 0.0859233 0)
(0.0841014 0.0833558 0)
(0.101146 0.0787914 0)
(0.11701 0.0717078 0)
(0.131047 0.0615952 0)
(0.142547 0.0479573 0)
(0.150747 0.0303011 0)
(0.154833 0.00811299 0)
(0.153941 -0.019185 0)
(0.147159 -0.0523068 0)
(0.133518 -0.0922191 0)
(0.112017 -0.140331 0)
(0.0817342 -0.198743 0)
(0.042295 -0.270267 0)
(-0.0045415 -0.356816 0)
(-0.051337 -0.452673 0)
(-0.0819616 -0.528056 0)
(-0.0760406 -0.505888 0)
(-0.0289671 -0.261982 0)
(-0.0114779 0.0802482 0)
(-0.037922 0.161495 0)
(-0.0647301 0.189691 0)
(-0.0809139 0.1905 0)
(-0.0866873 0.179347 0)
(-0.085224 0.163909 0)
(-0.0788662 0.147831 0)
(-0.0692367 0.132749 0)
(-0.0574741 0.119305 0)
(-0.0443347 0.107681 0)
(-0.0302917 0.0978618 0)
(-0.0156194 0.0897561 0)
(-0.000452404 0.0832447 0)
(0.0151704 0.078196 0)
(0.0312713 0.0744655 0)
(0.0479034 0.0718884 0)
(0.0651241 0.0702707 0)
(0.0829702 0.0693808 0)
(0.101435 0.068944 0)
(0.120448 0.0686411 0)
(0.139858 0.0681114 0)
(0.159424 0.0669599 0)
(0.178803 0.0647673 0)
(0.197553 0.0611012 0)
(0.215133 0.0555273 0)
(0.230907 0.0476159 0)
(0.244153 0.0369438 0)
(0.254065 0.0230867 0)
(0.259753 0.00559973 0)
(0.26024 -0.0160196 0)
(0.254449 -0.0423961 0)
(0.241178 -0.0743915 0)
(0.219078 -0.11332 0)
(0.186636 -0.161356 0)
(0.142304 -0.222161 0)
(0.085485 -0.300916 0)
(0.0201088 -0.399938 0)
(-0.0397838 -0.501105 0)
(-0.0668256 -0.528656 0)
(-0.0323253 -0.312939 0)
(-0.0191207 0.109386 0)
(-0.0538179 0.193638 0)
(-0.0763387 0.208288 0)
(-0.0789823 0.195908 0)
(-0.0683224 0.175296 0)
(-0.0506875 0.153699 0)
(-0.0295158 0.133852 0)
(-0.0068027 0.116603 0)
(0.0162581 0.102008 0)
(0.0390117 0.0898445 0)
(0.0611474 0.0798255 0)
(0.0825662 0.0716772 0)
(0.103299 0.0651586 0)
(0.123459 0.0600594 0)
(0.143202 0.0561905 0)
(0.1627 0.0533716 0)
(0.182121 0.0514182 0)
(0.201602 0.0501321 0)
(0.221233 0.0492933 0)
(0.241038 0.048656 0)
(0.260956 0.0479481 0)
(0.280833 0.0468739 0)
(0.300408 0.0451199 0)
(0.31931 0.0423614 0)
(0.337058 0.0382698 0)
(0.353058 0.0325185 0)
(0.366608 0.0247838 0)
(0.376898 0.0147414 0)
(0.383004 0.00205226 0)
(0.383883 -0.0136657 0)
(0.378342 -0.0328904 0)
(0.365013 -0.0562957 0)
(0.342292 -0.0849513 0)
(0.308256 -0.120747 0)
(0.260553 -0.167305 0)
(0.19661 -0.231447 0)
(0.115988 -0.322753 0)
(0.0267898 -0.439637 0)
(-0.0404703 -0.52152 0)
(-0.0284795 -0.364906 0)
(-0.0303095 0.158069 0)
(-0.070588 0.22443 0)
(-0.0691389 0.208343 0)
(-0.0395147 0.178045 0)
(-0.000170354 0.148884 0)
(0.040892 0.123713 0)
(0.0807558 0.103019 0)
(0.118144 0.0863929 0)
(0.152581 0.0731283 0)
(0.184057 0.0625571 0)
(0.212799 0.0541446 0)
(0.23913 0.0474784 0)
(0.263409 0.0422406 0)
(0.286004 0.0381825 0)
(0.307268 0.0351032 0)
(0.327527 0.0328314 0)
(0.347073 0.0312111 0)
(0.366147 0.0300896 0)
(0.384927 0.0293093 0)
(0.403521 0.0287029 0)
(0.421947 0.0280905 0)
(0.440127 0.0272803 0)
(0.457879 0.0260702 0)
(0.474906 0.0242521 0)
(0.490798 0.0216158 0)
(0.505025 0.0179528 0)
(0.516942 0.0130583 0)
(0.525784 0.00672931 0)
(0.530663 -0.00124274 0)
(0.530554 -0.01109 0)
(0.524269 -0.0231044 0)
(0.51041 -0.0377111 0)
(0.487283 -0.0556216 0)
(0.452748 -0.0781753 0)
(0.403951 -0.108174 0)
(0.336895 -0.151919 0)
(0.246714 -0.222898 0)
(0.131343 -0.337499 0)
(0.0177515 -0.466174 0)
(-0.00406429 -0.401925 0)
(-0.024993 0.225715 0)
(-0.0393673 0.226696 0)
(0.0347218 0.16509 0)
(0.119291 0.123008 0)
(0.1926 0.0940952 0)
(0.254677 0.0726958 0)
(0.307536 0.0568058 0)
(0.352547 0.0450909 0)
(0.39093 0.0364045 0)
(0.423859 0.0298919 0)
(0.452364 0.0249682 0)
(0.477305 0.0212335 0)
(0.499398 0.0184066 0)
(0.519244 0.0162848 0)
(0.537351 0.0147173 0)
(0.554143 0.0135863 0)
(0.569972 0.0127937 0)
(0.585121 0.012251 0)
(0.599797 0.0118734 0)
(0.614133 0.011575 0)
(0.628179 0.0112671 0)
(0.641894 0.0108572 0)
(0.655145 0.0102496 0)
(0.667698 0.00934713 0)
(0.679219 0.00805303 0)
(0.68927 0.00627307 0)
(0.697314 0.00391689 0)
(0.70271 0.000897935 0)
(0.704716 -0.00286948 0)
(0.702478 -0.00747837 0)
(0.695011 -0.0130471 0)
(0.681152 -0.0197575 0)
(0.659462 -0.0279379 0)
(0.628008 -0.0382515 0)
(0.583943 -0.0521861 0)
(0.522502 -0.0734285 0)
(0.435321 -0.112676 0)
(0.306775 -0.195726 0)
(0.146254 -0.332391 0)
(0.0784137 -0.364778 0)
(0.267686 0.134882 0)
(0.332723 0.11919 0)
(0.458997 0.0785028 0)
(0.561592 0.0521356 0)
(0.630449 0.0357886 0)
(0.678699 0.0249415 0)
(0.71475 0.0176104 0)
(0.742486 0.012675 0)
(0.7642 0.00933864 0)
(0.78154 0.00705576 0)
(0.795697 0.0054747 0)
(0.80751 0.00437097 0)
(0.817589 0.0035988 0)
(0.826386 0.00306161 0)
(0.834251 0.00269383 0)
(0.84145 0.0024492 0)
(0.848188 0.00229301 0)
(0.854619 0.00219714 0)
(0.860845 0.00213682 0)
(0.866922 0.00208875 0)
(0.872855 0.00202991 0)
(0.878602 0.00193716 0)
(0.884066 0.00178719 0)
(0.889097 0.00155689 0)
(0.893494 0.00122386 0)
(0.897002 0.000767056 0)
(0.899321 0.000167364 0)
(0.900103 -0.000592237 0)
(0.898959 -0.00152726 0)
(0.895459 -0.00265374 0)
(0.889121 -0.00399289 0)
(0.879389 -0.00558093 0)
(0.865575 -0.00749064 0)
(0.846703 -0.00987821 0)
(0.821168 -0.0131138 0)
(0.785628 -0.0181418 0)
(0.732789 -0.0278065 0)
(0.642693 -0.0515061 0)
(0.478624 -0.109597 0)
(0.348529 -0.152633 0)
)
;

boundaryField
{
    movingWall
    {
        type            fixedValue;
        value           uniform (1 0 0);
    }
    fixedWalls
    {
        type            noSlip;
    }
    frontAndBack
    {
        type            empty;
    }
}


// ************************************************************************* //
