1.45 	0 	0 	-0.29434
2.35 	0 	0 	-0.129344
