1.45 	0 	0 	-0.301944
2.35 	0 	0 	-0.134267
