1.45 	0 	0 	-0.305844
2.35 	0 	0 	-0.133107
