1.275 	2.15223e-18 	-2.76991e-20 	-0.0339335 	-0.000441833 	-1.99206e-22
1.825 	2.15223e-18 	-1.39322e-20 	-0.00850335 	-0.0027837 	1.79048e-21
2.375 	2.15223e-18 	-2.66896e-23 	0.118024 	-0.00330438 	-7.47305e-22
