/*--------------------------------*- C++ -*----------------------------------*\
  =========                 |
  \\      /  F ield         | OpenFOAM: The Open Source CFD Toolbox
   \\    /   O peration     | Website:  https://openfoam.org
    \\  /    A nd           | Version:  6.0
     \\/     M anipulation  |
\*---------------------------------------------------------------------------*/
FoamFile
{
    version     2.0;
    format      ascii;
    class       volScalarField;
    location    "16";
    object      p;
}
// * * * * * * * * * * * * * * * * * * * * * * * * * * * * * * * * * * * * * //

dimensions      [0 2 -2 0 0 0 0];

internalField   nonuniform List<scalar> 
62000
(
-0.0212986
-0.0220342
-0.0227703
-0.0234541
-0.0241031
-0.0246979
-0.0252496
-0.0257363
-0.0261692
-0.0265251
-0.0268156
-0.0270168
-0.0271393
-0.02716
-0.0270874
-0.0268996
-0.026602
-0.0261734
-0.0256162
-0.0249085
-0.0240503
-0.0230167
-0.0218058
-0.0203879
-0.0187582
-0.0168826
-0.014751
-0.0123242
-0.0095852
-0.00648356
-0.00300465
0.00088989
0.00522757
0.0100306
0.0153092
0.0210462
0.0271968
0.0336679
0.0403126
0.0469098
0.0531648
0.0586983
0.0630889
0.0658551
0.0665504
0.0649488
0.0614275
0.0571651
0.0541968
0.0547405
0.0594707
0.0668491
0.0734287
0.0759647
0.0747373
0.0690481
0.0624998
0.0543358
0.0462663
0.0652227
-0.0280618
-0.0288523
-0.0296293
-0.0303349
-0.0309774
-0.0315404
-0.0320298
-0.0324256
-0.0327372
-0.0329447
-0.0330585
-0.0330605
-0.0329615
-0.0327442
-0.0324182
-0.0319668
-0.0313967
-0.0306906
-0.0298513
-0.0288606
-0.0277162
-0.0263981
-0.0248989
-0.0231958
-0.0212754
-0.0191134
-0.0166917
-0.0139841
-0.0109657
-0.00760279
-0.0038647
0.000274512
0.00483573
0.0098386
0.0152845
0.0211561
0.0274027
0.0339338
0.0406034
0.0472023
0.0534483
0.0589866
0.0634199
0.0662852
0.0671282
0.0656891
0.062281
0.0580293
0.0549936
0.0556068
0.0609098
0.069609
0.0781866
0.0828972
0.0834754
0.0789204
0.0735949
0.0656513
0.0650409
0.0130728
-0.0288698
-0.0297443
-0.0306559
-0.0315436
-0.0324132
-0.03324
-0.034018
-0.0347177
-0.0353369
-0.0358439
-0.036241
-0.0364973
-0.0366201
-0.036581
-0.036391
-0.0360249
-0.0354946
-0.0347784
-0.0338861
-0.0327987
-0.0315214
-0.0300366
-0.0283425
-0.0264206
-0.02426
-0.0218417
-0.0191484
-0.0161629
-0.0128611
-0.00921516
-0.00519684
-0.000783713
0.00404316
0.00929531
0.0149705
0.021045
0.0274658
0.0341393
0.0409211
0.0476047
0.0539166
0.059511
0.0640022
0.0669198
0.0677749
0.0662258
0.062451
0.0574233
0.0530986
0.0520254
0.0556131
0.0630057
0.0708789
0.0753608
0.0755528
0.0706837
0.0658123
0.0592287
0.0637967
0.0389462
-0.0240939
-0.0248388
-0.0256737
-0.026525
-0.0274272
-0.0283553
-0.0293111
-0.0302634
-0.0312052
-0.0320975
-0.0329292
-0.0336584
-0.0342742
-0.0347363
-0.0350369
-0.0351407
-0.0350441
-0.0347178
-0.0341625
-0.0333552
-0.0322983
-0.030974
-0.0293832
-0.02751
-0.025349
-0.0228847
-0.0201071
-0.0170048
-0.0135638
-0.00976187
-0.00557944
-0.000998042
0.00399442
0.00940342
0.0152203
0.0214162
0.0279348
0.0346825
0.0415187
0.048245
0.0546013
0.060262
0.0648591
0.0679263
0.0689502
0.067514
0.0636481
0.0581421
0.052795
0.0502287
0.0522468
0.0585521
0.0663079
0.0717343
0.0733377
0.0700109
0.0667001
0.0618054
0.0697778
0.0535637
-0.016959
-0.0175428
-0.0181848
-0.01882
-0.0194986
-0.0202169
-0.0209943
-0.0218207
-0.0227053
-0.0236227
-0.0245707
-0.02551
-0.0264284
-0.0272772
-0.0280383
-0.0286599
-0.0291222
-0.0293767
-0.0294061
-0.0291701
-0.0286556
-0.0278325
-0.0266921
-0.0252126
-0.0233845
-0.0211924
-0.0186264
-0.0156816
-0.0123485
-0.0086166
-0.00447181
9.24634e-05
0.0050817
0.0104925
0.0163081
0.0224933
0.028988
0.0356998
0.0424948
0.0491872
0.0555386
0.061256
0.0660047
0.0693369
0.0707382
0.0697299
0.0661976
0.0607177
0.0548728
0.0512771
0.0520597
0.0575692
0.0656436
0.0728226
0.0772509
0.0769892
0.0760347
0.0722932
0.0816727
0.0699306
-0.0110722
-0.011502
-0.0119155
-0.0122473
-0.0125546
-0.0128411
-0.0131443
-0.0134723
-0.0138588
-0.0143042
-0.0148318
-0.015428
-0.0161001
-0.016817
-0.0175682
-0.0183069
-0.0190075
-0.0196138
-0.0200919
-0.0203843
-0.0204561
-0.0202565
-0.0197556
-0.0189121
-0.0177003
-0.0160898
-0.0140616
-0.0116024
-0.00870242
-0.00534866
-0.00153415
0.00274563
0.00748752
0.0126807
0.0183008
0.0243065
0.0306342
0.0371926
0.0438543
0.0504471
0.0567551
0.0625232
0.0674537
0.0711287
0.0730433
0.0726717
0.0697435
0.0645898
0.0584818
0.0538905
0.0531274
0.0571156
0.0645454
0.0725712
0.0793391
0.0822076
0.0839683
0.0818269
0.0925547
0.0856767
-0.00670595
-0.00715914
-0.00754041
-0.0077838
-0.00792323
-0.00795536
-0.00790826
-0.00779006
-0.00763968
-0.00747052
-0.007327
-0.00722085
-0.0071919
-0.00724089
-0.00739175
-0.00762597
-0.00794378
-0.0083055
-0.00868765
-0.00903363
-0.00930289
-0.00943242
-0.00937441
-0.00906771
-0.00846305
-0.00750819
-0.0061607
-0.00438946
-0.00216546
0.000534039
0.00373025
0.0074296
0.0116332
0.01633
0.0214946
0.0270856
0.0330402
0.0392721
0.0456634
0.0520561
0.0582588
0.0640544
0.069186
0.073273
0.0758427
0.0763373
0.0743442
0.0699184
0.0639533
0.0586303
0.0562412
0.0581489
0.0638709
0.0713642
0.0792277
0.0845597
0.0891635
0.0895576
0.102522
0.101627
-0.00381847
-0.00432803
-0.00475489
-0.00503046
-0.00517428
-0.00516763
-0.00502263
-0.00473014
-0.00431334
-0.00377468
-0.00315135
-0.00245819
-0.00174363
-0.00102924
-0.000364252
0.000235128
0.000733336
0.00113123
0.00141817
0.00162019
0.00175518
0.00187103
0.00200977
0.0022344
0.0026034
0.00318541
0.00404113
0.00522541
0.00678851
0.00877935
0.0112365
0.0141882
0.0176493
0.0216215
0.0260905
0.0310263
0.0363781
0.0420749
0.0480168
0.0540696
0.0600724
0.0658548
0.071207
0.0758079
0.07924
0.0809582
0.0804302
0.0774649
0.0725335
0.0674172
0.0641923
0.0644027
0.0682612
0.0745601
0.0825505
0.0895567
0.0966395
0.0996016
0.114695
0.118538
-0.0011807
-0.00176612
-0.00228336
-0.00267246
-0.00293979
-0.0030607
-0.00303297
-0.0028327
-0.00246412
-0.00190919
-0.00118526
-0.000287869
0.0007477
0.00190826
0.00314243
0.00442422
0.00569706
0.00693323
0.00808617
0.00914295
0.0100813
0.0109114
0.0116433
0.0123141
0.0129664
0.0136604
0.0144586
0.0154228
0.0166197
0.0181145
0.0199722
0.0222405
0.0249586
0.0281497
0.031822
0.0359687
0.0405638
0.0455645
0.0509028
0.0564814
0.0621852
0.0679025
0.073489
0.0787029
0.0832168
0.0865342
0.0880618
0.0873988
0.0846284
0.0810755
0.0784335
0.0781894
0.0809612
0.0861933
0.0938679
0.101723
0.1103
0.114623
0.130201
0.135947
0.00125757
0.000660011
0.000113189
-0.000332107
-0.000684005
-0.00091871
-0.00103275
-0.00099724
-0.000806399
-0.00042932
0.000136484
0.000915663
0.00189847
0.00309362
0.00447215
0.00602177
0.00769449
0.00945886
0.0112561
0.0130496
0.0147859
0.0164369
0.0179725
0.019389
0.020692
0.0219117
0.0230858
0.0242634
0.0255035
0.0268773
0.0284563
0.0303068
0.032486
0.0350401
0.0380035
0.041399
0.0452336
0.049503
0.0541822
0.0592245
0.0645744
0.0701947
0.0760214
0.0819136
0.0876496
0.0928221
0.0968212
0.0991112
0.0994454
0.0986864
0.0980622
0.0987763
0.101583
0.106335
0.113557
0.121494
0.13024
0.134136
0.148256
0.15336
0.00389849
0.00329982
0.00273974
0.00225687
0.00184571
0.00152425
0.00129445
0.00118226
0.00119318
0.00136084
0.00169317
0.00222675
0.00296652
0.0039427
0.00514882
0.00659843
0.00826629
0.0101409
0.0121752
0.0143361
0.0165628
0.0188091
0.021018
0.023151
0.0251755
0.0270815
0.0288703
0.0305574
0.0321779
0.0337833
0.0354408
0.0372129
0.0391658
0.0413587
0.0438472
0.0466805
0.0498994
0.0535395
0.0576242
0.0621627
0.0671694
0.0726871
0.0787451
0.085306
0.0922654
0.0993125
0.105874
0.111334
0.115214
0.117973
0.120348
0.123138
0.12698
0.131847
0.138662
0.146051
0.153785
0.155744
0.167036
0.170087
0.00648366
0.00591657
0.00538262
0.00491344
0.00450002
0.00415615
0.00387862
0.00368816
0.00358624
0.00360174
0.00374217
0.0040436
0.00451755
0.00520249
0.00610828
0.00726687
0.00867749
0.010353
0.0122715
0.0144203
0.0167535
0.0192306
0.0217905
0.0243805
0.0269441
0.0294413
0.0318368
0.034111
0.036262
0.0383142
0.0403065
0.0422888
0.0443172
0.0464509
0.0487547
0.0512943
0.0541365
0.0573511
0.061005
0.0651612
0.0699019
0.075349
0.0816217
0.0887834
0.0968322
0.105563
0.114457
0.122886
0.130232
0.136626
0.142363
0.14779
0.153282
0.158745
0.165246
0.17176
0.177776
0.177042
0.185225
0.186033
0.00925489
0.00870783
0.00819024
0.00772598
0.00730994
0.00695208
0.00664818
0.00641458
0.00624834
0.00617296
0.00618948
0.00632941
0.00659971
0.00703885
0.0076591
0.00850126
0.0095776
0.0109202
0.0125297
0.0144181
0.0165641
0.0189478
0.0215233
0.0242444
0.0270519
0.029893
0.0327125
0.035462
0.0381102
0.0406458
0.0430818
0.0454381
0.0477515
0.0500685
0.052448
0.0549608
0.0576852
0.0607151
0.0641475
0.0680903
0.0726816
0.0781102
0.0845731
0.0922165
0.101126
0.111182
0.121947
0.132814
0.143123
0.15278
0.161719
0.169864
0.177253
0.183568
0.189941
0.195545
0.199719
0.196348
0.201906
0.201043
0.0119554
0.0114444
0.0109623
0.0105292
0.010138
0.00979726
0.0095003
0.00926078
0.00907333
0.00895661
0.00890838
0.00895332
0.00909422
0.00936304
0.00976977
0.0103532
0.0111298
0.0121388
0.013395
0.0149283
0.0167396
0.0188327
0.0211849
0.0237697
0.0265414
0.0294535
0.032447
0.0354635
0.0384507
0.0413768
0.0442231
0.046986
0.0496749
0.0523152
0.0549513
0.0576453
0.0604761
0.063545
0.0669665
0.070876
0.0754516
0.0809294
0.0875627
0.0955608
0.105068
0.116043
0.128124
0.140764
0.153338
0.165606
0.177247
0.18783
0.197069
0.204389
0.210833
0.215787
0.218459
0.213083
0.217037
0.215441
0.0148006
0.0143123
0.0138508
0.0134306
0.0130495
0.0127139
0.0124186
0.0121756
0.0119785
0.0118437
0.0117648
0.0117627
0.0118335
0.0120039
0.0122765
0.0126851
0.0132417
0.0139857
0.0149352
0.016129
0.0175821
0.0193166
0.0213315
0.023623
0.0261669
0.0289334
0.0318762
0.0349393
0.0380695
0.0412198
0.044361
0.0474618
0.050513
0.053515
0.0564936
0.0594934
0.0625838
0.0658608
0.0694418
0.0734728
0.0781525
0.0837418
0.090527
0.0987547
0.108609
0.120101
0.132953
0.146689
0.160779
0.174921
0.188635
0.201229
0.212131
0.220484
0.227265
0.231969
0.233761
0.227297
0.2307
0.229281
0.0175456
0.0170919
0.0166656
0.016279
0.0159278
0.015618
0.0153428
0.0151137
0.0149239
0.0147882
0.0147001
0.0146773
0.0147142
0.0148319
0.0150289
0.0153317
0.0157472
0.0163087
0.0170322
0.0179563
0.0191015
0.0204997
0.0221649
0.0241118
0.0263368
0.028832
0.0315688
0.0345074
0.0376009
0.0408093
0.0440917
0.0474138
0.0507453
0.0540709
0.0573953
0.0607457
0.0641738
0.0677633
0.0716207
0.0758899
0.0807702
0.0865277
0.0934571
0.101822
0.111824
0.123516
0.136694
0.150963
0.165928
0.181275
0.196448
0.210587
0.222902
0.232314
0.239664
0.244602
0.246213
0.239592
0.243433
0.242971
0.0204019
0.0199702
0.0195645
0.0191921
0.0188536
0.0185533
0.0182863
0.0180632
0.0178776
0.0177438
0.0176541
0.0176253
0.0176492
0.0177446
0.0179053
0.0181533
0.0184892
0.0189403
0.0195169
0.0202533
0.0211691
0.0222982
0.0236619
0.0252863
0.0271841
0.0293649
0.0318212
0.0345302
0.0374639
0.0405897
0.0438795
0.0472926
0.0507961
0.0543623
0.0579808
0.0616624
0.0654404
0.0693807
0.0735727
0.0781461
0.0832877
0.0892499
0.0963184
0.104753
0.114761
0.12642
0.139601
0.15398
0.169321
0.18534
0.201473
0.216765
0.230273
0.240718
0.248883
0.25448
0.256552
0.250561
0.255534
0.256538
0.023127
0.0227283
0.0223569
0.0220185
0.0217117
0.02144
0.0211973
0.0209937
0.0208231
0.0206988
0.0206149
0.0205866
0.0206074
0.0206933
0.0208383
0.0210598
0.0213556
0.0217465
0.022238
0.0228575
0.0236207
0.0245585
0.0256932
0.0270556
0.0286672
0.0305514
0.0327159
0.0351571
0.0378633
0.0408219
0.0440134
0.0474094
0.0509778
0.0546872
0.0585202
0.0624746
0.0665692
0.0708506
0.075389
0.0802929
0.0857278
0.0919195
0.0991319
0.107606
0.117548
0.129052
0.142049
0.156289
0.171694
0.188031
0.204762
0.220906
0.235429
0.246916
0.256056
0.26268
0.265708
0.260908
0.267534
0.270312
0.0259402
0.0255634
0.0252127
0.0248892
0.0245964
0.024336
0.0241043
0.0239101
0.0237483
0.0236317
0.0235539
0.0235304
0.0235536
0.0236399
0.0237814
0.0239944
0.0242738
0.0246372
0.0250852
0.0256401
0.0263121
0.0271273
0.0281053
0.0292762
0.0306653
0.0323023
0.0342068
0.0363878
0.0388521
0.0416008
0.0446354
0.0479362
0.0514819
0.0552449
0.0592063
0.0633583
0.067708
0.0722867
0.0771452
0.0823697
0.0880989
0.0945265
0.101885
0.110391
0.120241
0.131539
0.144276
0.158255
0.173557
0.190005
0.207121
0.22393
0.23935
0.251856
0.262116
0.269999
0.274317
0.27105
0.27957
0.284207
0.0286201
0.0282709
0.0279497
0.0276567
0.0273934
0.0271608
0.0269541
0.0267814
0.0266379
0.0265353
0.0264691
0.0264532
0.0264827
0.0265721
0.0267158
0.0269278
0.0272037
0.0275573
0.0279878
0.028512
0.0291365
0.0298814
0.0307625
0.0318066
0.0330379
0.034489
0.036184
0.0381425
0.0403813
0.0429198
0.0457703
0.0489325
0.0523953
0.0561407
0.0601543
0.0644283
0.0689636
0.0737809
0.0789145
0.0844303
0.0904395
0.0971017
0.104616
0.11317
0.122949
0.134067
0.146559
0.16028
0.175444
0.191935
0.209334
0.226707
0.242952
0.256486
0.26792
0.277216
0.282999
0.281417
0.291973
0.298453
0.0313737
0.031039
0.0307329
0.030453
0.0302032
0.0299841
0.029791
0.0296321
0.0295018
0.0294121
0.0293571
0.0293516
0.0293893
0.0294859
0.0296349
0.029851
0.0301289
0.0304823
0.0309082
0.0314216
0.0320252
0.0327351
0.0335628
0.0345306
0.0356603
0.0369825
0.0385235
0.0403062
0.0423569
0.0447029
0.0473744
0.0503811
0.0537278
0.0574074
0.061414
0.065744
0.0703974
0.075389
0.0807417
0.0865043
0.0927634
0.099647
0.10732
0.115945
0.125694
0.136688
0.149002
0.162527
0.177595
0.194139
0.21181
0.229719
0.246761
0.261296
0.27395
0.284698
0.292006
0.29213
0.304683
0.312882
0.0340694
0.0337597
0.033478
0.0332194
0.0329897
0.032788
0.0326112
0.0324661
0.0323489
0.03227
0.0322254
0.0322283
0.0322743
0.0323775
0.032533
0.0327545
0.0330377
0.0333952
0.033824
0.034337
0.0349355
0.0356323
0.0364352
0.0373627
0.0384326
0.0396732
0.0411086
0.0427637
0.0446667
0.0468551
0.0493648
0.0522213
0.0554405
0.0590275
0.0629868
0.0673224
0.0720376
0.077146
0.0826643
0.088629
0.0951067
0.102198
0.110039
0.118768
0.128548
0.139507
0.151751
0.165198
0.18027
0.196946
0.214929
0.233388
0.25122
0.266762
0.280607
0.292808
0.301611
0.303377
0.317885
0.327678
0.0366367
0.0363587
0.0361084
0.0358793
0.0356782
0.0355032
0.0353519
0.0352301
0.0351344
0.0350748
0.0350476
0.0350656
0.0351249
0.0352395
0.035405
0.035635
0.0359258
0.03629
0.0367249
0.0372426
0.0378437
0.0385389
0.0393341
0.0402441
0.0412836
0.0424769
0.0438461
0.0454137
0.0472104
0.0492743
0.051652
0.0543748
0.0574706
0.0609553
0.0648442
0.0691502
0.0738832
0.0790593
0.0846933
0.090815
0.0974759
0.104756
0.112766
0.121627
0.131496
0.142506
0.154789
0.16828
0.183473
0.200375
0.218745
0.237794
0.256427
0.272946
0.287972
0.301561
0.311782
0.315082
0.331416
0.342641
0.0391462
0.0388989
0.0386799
0.038481
0.0383097
0.0381629
0.038039
0.0379427
0.0378715
0.037834
0.0378276
0.037864
0.03794
0.0380688
0.038247
0.0384876
0.0387881
0.0391606
0.0396033
0.0401279
0.0407352
0.0414349
0.0422314
0.0431375
0.0441649
0.045335
0.0466662
0.0481792
0.0499022
0.0518768
0.0541499
0.0567618
0.0597472
0.0631318
0.0669409
0.0711972
0.0759184
0.0811262
0.0868378
0.0930803
0.0998962
0.10735
0.115535
0.124561
0.13458
0.145733
0.158172
0.17184
0.187281
0.204526
0.223362
0.243054
0.262507
0.280003
0.296147
0.311065
0.322603
0.327314
0.345413
0.357943
0.0416284
0.0414073
0.0412154
0.041043
0.040898
0.0407773
0.0406787
0.0406072
0.0405598
0.0405452
0.0405603
0.0406168
0.0407114
0.0408572
0.0410507
0.0413048
0.0416173
0.0420002
0.0424525
0.0429857
0.0436012
0.0443082
0.0451109
0.0460204
0.0470469
0.0482088
0.0495218
0.0510031
0.0526798
0.0545908
0.0567873
0.059311
0.0622033
0.0654973
0.0692268
0.073424
0.0781148
0.0833285
0.0890871
0.0954192
0.102363
0.109973
0.118334
0.127546
0.137761
0.14913
0.16182
0.175774
0.191574
0.209258
0.228645
0.249031
0.269323
0.287769
0.305006
0.321162
0.333914
0.33992
0.359678
0.373371
0.0441359
0.0439328
0.0437606
0.0436081
0.0434839
0.043384
0.0433066
0.0432556
0.0432286
0.0432334
0.0432676
0.0433418
0.0434534
0.0436146
0.0438225
0.0440894
0.0444137
0.0448072
0.0452693
0.0458116
0.0464361
0.0471517
0.0479628
0.0488797
0.0499112
0.051074
0.0523809
0.053847
0.0554954
0.0573657
0.0595063
0.061963
0.0647801
0.0679962
0.0716528
0.07579
0.0804423
0.0856474
0.0914341
0.0978354
0.104889
0.112647
0.121187
0.130608
0.141064
0.152717
0.165747
0.18009
0.196352
0.214573
0.234584
0.255715
0.27687
0.296268
0.314535
0.331869
0.345741
0.352943
0.374336
0.389096
0.0466557
0.0464663
0.0463084
0.04617
0.0460607
0.045976
0.0459142
0.0458793
0.0458686
0.04589
0.0459404
0.0460309
0.0461581
0.0463344
0.0465566
0.0468368
0.0471734
0.0475781
0.0480506
0.0486025
0.0492363
0.049961
0.0507814
0.0517073
0.052747
0.0539154
0.0552238
0.0566841
0.0583182
0.0601617
0.0622645
0.0646715
0.0674299
0.0705821
0.0741753
0.0782566
0.0828684
0.0880567
0.0938585
0.100313
0.107462
0.115357
0.124074
0.133715
0.144441
0.156424
0.169855
0.184661
0.201462
0.220289
0.240988
0.262906
0.284939
0.305268
0.324549
0.342986
0.357901
0.36622
0.389174
0.404895
0.0491937
0.0490148
0.0488681
0.0487406
0.0486427
0.0485692
0.0485191
0.0484958
0.0484971
0.0485302
0.048593
0.0486955
0.0488352
0.0490235
0.0492578
0.0495494
0.0498973
0.0503125
0.0507952
0.0513567
0.0519999
0.0527339
0.0535638
0.0544992
0.055548
0.0567245
0.0580378
0.0594988
0.0611258
0.0629542
0.0650308
0.0674019
0.0701153
0.0732165
0.076757
0.0807899
0.0853645
0.0905353
0.0963477
0.102849
0.110085
0.118113
0.127011
0.136886
0.147908
0.160263
0.174151
0.189485
0.206893
0.226393
0.247832
0.270576
0.293511
0.314778
0.335025
0.354529
0.370427
0.379808
0.40432
0.420936
0.0517044
0.0515365
0.0514006
0.0512831
0.0511953
0.0511318
0.0510917
0.0510786
0.0510903
0.0511343
0.0512081
0.051322
0.0514734
0.0516736
0.0519199
0.0522232
0.0525826
0.0530088
0.053502
0.0540733
0.0547261
0.0554693
0.0563084
0.0572531
0.0583113
0.0594962
0.0608164
0.0622803
0.0639056
0.0657242
0.0677837
0.0701289
0.0728087
0.0758701
0.0793684
0.0833611
0.0879039
0.0930587
0.0988796
0.105422
0.11274
0.120895
0.129972
0.140086
0.151417
0.164165
0.178542
0.194442
0.2125
0.232716
0.254936
0.278534
0.302381
0.324577
0.345789
0.366311
0.38315
0.393551
0.419567
0.436983
0.0541846
0.0540277
0.0539034
0.0537969
0.0537204
0.0536675
0.0536382
0.0536351
0.053657
0.0537106
0.0537945
0.0539181
0.0540797
0.05429
0.0545467
0.0548605
0.0552305
0.055667
0.0561704
0.0567514
0.0574136
0.0581658
0.0590139
0.0599675
0.0610343
0.0622274
0.0635542
0.0650226
0.0666475
0.0684611
0.0705085
0.0728348
0.0754893
0.0785204
0.0819858
0.0859469
0.090465
0.0956091
0.101442
0.108027
0.115426
0.123709
0.132968
0.143328
0.154983
0.168146
0.183041
0.199543
0.218291
0.239265
0.2623
0.286782
0.311564
0.334702
0.356848
0.378377
0.396134
0.407531
0.435064
0.453216
0.0565931
0.0564501
0.0563396
0.0562462
0.0561825
0.0561422
0.0561251
0.0561341
0.056168
0.0562334
0.0563291
0.0564645
0.056638
0.0568603
0.057129
0.0574546
0.0578363
0.058284
0.0587981
0.0593891
0.0600607
0.0608218
0.0616783
0.0626401
0.063715
0.0649154
0.0662486
0.0677209
0.0693471
0.0711568
0.0731954
0.0755079
0.0781434
0.0811513
0.0845917
0.0885288
0.0930288
0.0981673
0.104014
0.110643
0.118123
0.126532
0.135972
0.146578
0.158559
0.172145
0.187569
0.204689
0.224146
0.245901
0.269777
0.29516
0.320888
0.344967
0.368062
0.390567
0.409232
0.421606
0.45062
0.469434
0.0589607
0.0588308
0.0587338
0.0586537
0.0586038
0.0585765
0.0585727
0.0585942
0.0586406
0.0587178
0.0588254
0.0589722
0.0591573
0.0593907
0.0596709
0.0600076
0.0604005
0.060859
0.0613836
0.0619844
0.0626655
0.0634352
0.0642999
0.0652696
0.0663518
0.067559
0.0688976
0.0703738
0.0720005
0.0738076
0.0758393
0.0781405
0.0807611
0.0837512
0.0871726
0.0910924
0.095581
0.10072
0.106587
0.113264
0.120827
0.129367
0.138991
0.149847
0.162163
0.176181
0.192149
0.209905
0.230094
0.252656
0.277398
0.303708
0.330404
0.355445
0.379471
0.402958
0.422533
0.435879
0.466404
0.485842
0.0612639
0.0611473
0.0610637
0.0609966
0.0609599
0.0609459
0.0609554
0.0609902
0.0610501
0.061141
0.0612622
0.0614227
0.0616215
0.0618686
0.0621623
0.0625121
0.0629177
0.0633883
0.0639244
0.0645357
0.0652265
0.066005
0.066878
0.0678552
0.0689445
0.0701577
0.0715014
0.0729803
0.0746076
0.0764115
0.0784366
0.0807283
0.0833365
0.0863124
0.0897194
0.093627
0.0981092
0.103254
0.109145
0.115871
0.12352
0.13219
0.141997
0.153103
0.16575
0.180201
0.196714
0.215109
0.236038
0.259419
0.285043
0.312292
0.339967
0.365975
0.390959
0.415407
0.435906
0.450214
0.482247
0.502224
0.0635362
0.0634315
0.0633606
0.0633062
0.0632829
0.0632819
0.0633048
0.0633525
0.0634255
0.0635288
0.0636629
0.0638357
0.0640471
0.0643063
0.0646124
0.0649742
0.065392
0.0658742
0.0664215
0.0670433
0.067744
0.0685316
0.0694129
0.0703977
0.0714936
0.0727126
0.0740602
0.0755416
0.0771679
0.0789682
0.0809868
0.0832689
0.0858658
0.0888295
0.092225
0.0961241
0.100604
0.105759
0.111679
0.118461
0.1262
0.135003
0.144997
0.156356
0.16934
0.184228
0.201294
0.220339
0.242021
0.26624
0.292768
0.320981
0.34966
0.376659
0.402593
0.428015
0.449459
0.46473
0.49832
0.51875
0.0657514
0.0656606
0.0656035
0.0655625
0.0655526
0.0655649
0.0656012
0.0656623
0.0657487
0.0658656
0.0660131
0.0661996
0.0664246
0.0666976
0.0670173
0.0673924
0.0678231
0.0683176
0.0688767
0.0695093
0.0702202
0.0710169
0.0719065
0.0728988
0.0740012
0.0752253
0.0765765
0.0780586
0.0796834
0.0814788
0.0834892
0.0857617
0.0883474
0.0912997
0.0946854
0.0985782
0.103059
0.108227
0.114178
0.121018
0.128847
0.137785
0.147966
0.159576
0.172894
0.188217
0.205833
0.225526
0.247964
0.273029
0.300474
0.329661
0.359353
0.387355
0.414273
0.440652
0.463064
0.479306
0.514399
0.535197
0.0679637
0.0678848
0.0678401
0.0678114
0.0678143
0.0678387
0.0678874
0.0679601
0.0680582
0.068186
0.0683449
0.0685421
0.0687782
0.0690618
0.0693926
0.0697786
0.0702206
0.0707261
0.0712959
0.0719389
0.0726595
0.073465
0.0743627
0.0753621
0.0764703
0.0776989
0.0790523
0.0805345
0.0821558
0.0839445
0.0859461
0.0882069
0.0907804
0.093721
0.097097
0.100984
0.105468
0.110652
0.116637
0.123537
0.131462
0.140537
0.150908
0.162773
0.176429
0.192191
0.210364
0.230713
0.25392
0.279848
0.30823
0.338416
0.36915
0.39818
0.426083
0.453433
0.476834
0.494076
0.530632
0.551772
0.0701573
0.0700903
0.0700572
0.0700394
0.0700533
0.0700886
0.070148
0.0702314
0.0703401
0.0704787
0.0706482
0.0708561
0.0711032
0.0713978
0.0717397
0.0721366
0.0725895
0.0731055
0.0736856
0.0743381
0.0750676
0.0758812
0.0767862
0.0777917
0.0789049
0.0801366
0.0814911
0.0829712
0.0845876
0.0863679
0.0883575
0.0906055
0.0931653
0.0960929
0.0994585
0.103341
0.107827
0.113027
0.119047
0.126009
0.134028
0.143242
0.153802
0.16592
0.179912
0.196111
0.214839
0.235843
0.259819
0.286617
0.315948
0.347144
0.378928
0.409002
0.437927
0.466236
0.490639
0.508903
0.546843
0.56828
0.0723711
0.0723141
0.0722911
0.0722833
0.0723073
0.072352
0.0724207
0.0725126
0.0726298
0.0727759
0.0729532
0.0731682
0.0734227
0.0737246
0.0740741
0.0744787
0.0749397
0.0754639
0.0760522
0.0767126
0.0774496
0.07827
0.0791809
0.0801913
0.0813079
0.0825413
0.0838949
0.0853715
0.0869805
0.0887498
0.0907265
0.0929585
0.0955023
0.0984148
0.101768
0.105644
0.110132
0.115348
0.121404
0.128428
0.136545
0.1459
0.156653
0.169027
0.18336
0.199999
0.21929
0.240957
0.265716
0.293401
0.323702
0.355936
0.3888
0.419943
0.449898
0.479183
0.504602
0.523913
0.563236
0.584932
0.0745647
0.0745193
0.074507
0.0745092
0.0745427
0.0745964
0.0746737
0.0747739
0.074899
0.0750529
0.0752378
0.0754605
0.0757227
0.0760323
0.0763897
0.076802
0.0772708
0.0778026
0.0783981
0.0790651
0.0798083
0.080634
0.0815493
0.082563
0.0836815
0.0849148
0.0862661
0.0877368
0.0893367
0.0910934
0.0930529
0.0952673
0.0977924
0.100687
0.104026
0.107893
0.112382
0.117611
0.123702
0.130788
0.139001
0.148496
0.15944
0.172071
0.186742
0.203822
0.223674
0.246006
0.271549
0.30013
0.331414
0.364695
0.39865
0.430877
0.461902
0.492156
0.518596
0.538966
0.579641
0.601524
0.0767647
0.0767292
0.0767268
0.0767383
0.0767813
0.0768435
0.0769292
0.0770367
0.077169
0.077329
0.07752
0.0777481
0.0780157
0.0783305
0.0786933
0.0791111
0.0795857
0.0801231
0.0807243
0.0813966
0.0821447
0.0829743
0.0838927
0.0849084
0.0860273
0.0872592
0.0886061
0.0900695
0.0916579
0.0933985
0.0953405
0.0975333
0.100037
0.102911
0.106232
0.110086
0.114573
0.119814
0.125938
0.133084
0.141394
0.15103
0.162169
0.17506
0.190074
0.2076
0.228024
0.251029
0.277373
0.306868
0.339158
0.373518
0.408594
0.441931
0.474035
0.50528
0.532754
0.554199
0.59625
0.618263
0.0788985
0.0788758
0.0788853
0.078908
0.0789616
0.079034
0.0791295
0.0792465
0.0793881
0.0795573
0.0797575
0.0799947
0.0802716
0.0805953
0.0809672
0.0813933
0.0818759
0.0824204
0.0830281
0.0837059
0.0844586
0.0852917
0.0862124
0.0872291
0.0883473
0.0895762
0.0909175
0.0923712
0.0939462
0.0956696
0.0975889
0.0997585
0.102237
0.105087
0.108387
0.112225
0.116705
0.121954
0.128107
0.135311
0.143715
0.153491
0.164823
0.177973
0.193331
0.211302
0.232298
0.255981
0.28313
0.313551
0.34686
0.382306
0.418514
0.452978
0.486201
0.518435
0.546949
0.569476
0.612878
0.634947
0.0809832
0.0809748
0.080999
0.0810359
0.0811041
0.0811901
0.0812991
0.0814283
0.0815819
0.0817622
0.0819733
0.0822205
0.0825072
0.0828398
0.0832203
0.0836543
0.0841446
0.0846963
0.0853104
0.0859938
0.0867512
0.0875876
0.0885103
0.0895275
0.090644
0.0918689
0.0932027
0.0946455
0.0962047
0.097907
0.0998034
0.101945
0.104395
0.107216
0.110489
0.114307
0.118775
0.124029
0.130207
0.137465
0.145962
0.155877
0.167405
0.180816
0.196524
0.214947
0.236528
0.260899
0.288872
0.320239
0.354593
0.391158
0.428531
0.464145
0.498498
0.531747
0.561317
0.584945
0.629723
0.651791
0.0830017
0.0830112
0.0830516
0.0831038
0.0831861
0.0832853
0.0834066
0.0835485
0.0837151
0.083909
0.0841343
0.0843959
0.0846972
0.0850439
0.0854381
0.0858848
0.086387
0.0869489
0.087572
0.0882627
0.0890257
0.089866
0.0907907
0.0918077
0.0929219
0.0941414
0.0954666
0.096896
0.0984372
0.100117
0.101984
0.104095
0.106512
0.1093
0.112542
0.116333
0.120785
0.126037
0.132235
0.139543
0.148127
0.158179
0.169901
0.183574
0.199631
0.218507
0.240673
0.26574
0.294545
0.326871
0.362285
0.399978
0.438525
0.475306
0.51083
0.545094
0.575727
0.600466
0.646604
0.668611
0.0851078
0.0851099
0.0851463
0.0851983
0.0852836
0.0853888
0.085518
0.0856696
0.0858473
0.0860532
0.0862912
0.0865656
0.08688
0.0872393
0.0876462
0.0881047
0.0886183
0.0891906
0.089823
0.0905212
0.0912902
0.0921343
0.0930607
0.094077
0.0951876
0.0964004
0.0977146
0.0991288
0.100649
0.102301
0.104138
0.106213
0.108591
0.11134
0.114544
0.118303
0.122731
0.127975
0.134188
0.14154
0.15021
0.160396
0.172313
0.18625
0.202663
0.221998
0.244762
0.270537
0.300197
0.333507
0.370007
0.408863
0.448619
0.48659
0.523294
0.558605
0.590314
0.616192
0.663719
0.685723
0.0872025
0.0872144
0.0872575
0.0873127
0.0874002
0.0875064
0.0876374
0.0877922
0.087975
0.0881887
0.0884368
0.0887238
0.0890519
0.0894264
0.089848
0.0903212
0.090848
0.0914323
0.0920746
0.0927809
0.0935555
0.0944028
0.0953298
0.096344
0.0974492
0.0986528
0.0999538
0.101349
0.102844
0.104467
0.106266
0.108301
0.110635
0.113339
0.116499
0.120218
0.124616
0.129845
0.136065
0.143455
0.152204
0.16252
0.174631
0.188831
0.205601
0.225396
0.248758
0.275251
0.305778
0.340088
0.377689
0.417716
0.458691
0.497868
0.535789
0.572153
0.604941
0.631974
0.680877
0.702977
0.0893576
0.0893729
0.0894198
0.0894801
0.0895733
0.0896853
0.0898222
0.0899824
0.0901707
0.0903898
0.0906436
0.0909366
0.0912715
0.0916534
0.0920834
0.0925652
0.0931009
0.0936935
0.0943432
0.0950553
0.0958338
0.0966825
0.097608
0.0986177
0.0997148
0.100907
0.102191
0.103564
0.105031
0.106617
0.108376
0.110363
0.112648
0.115299
0.118407
0.122078
0.126436
0.131641
0.13786
0.145283
0.154104
0.16455
0.176851
0.19132
0.208448
0.228715
0.252678
0.279913
0.311332
0.346668
0.385399
0.426635
0.468862
0.509268
0.548416
0.585866
0.619747
0.647968
0.698259
0.72054
0.0914607
0.0914983
0.0915637
0.0916385
0.091744
0.0918658
0.0920116
0.0921801
0.092377
0.0926049
0.0928683
0.0931714
0.0935169
0.0939093
0.0943494
0.0948408
0.095385
0.095985
0.0966402
0.0973559
0.0981357
0.098983
0.0999042
0.100906
0.101992
0.103169
0.104432
0.105779
0.107213
0.10876
0.11047
0.112405
0.114631
0.117222
0.120269
0.123883
0.128193
0.133366
0.139576
0.147022
0.15591
0.166478
0.178968
0.193704
0.211191
0.231932
0.256495
0.284486
0.316814
0.353194
0.393071
0.435522
0.479012
0.520665
0.561073
0.599619
0.634589
0.66402
0.715661
0.738132
0.0936119
0.0936623
0.0937419
0.0938325
0.0939542
0.094092
0.0942528
0.0944348
0.0946437
0.0948819
0.0951544
0.0954654
0.0958181
0.0962171
0.0966635
0.0971607
0.0977101
0.0983143
0.0989724
0.0996891
0.100468
0.101311
0.102225
0.103217
0.104288
0.105445
0.106685
0.108001
0.109397
0.110896
0.112555
0.114428
0.116589
0.11911
0.122086
0.125633
0.129884
0.135013
0.141205
0.148666
0.157613
0.168299
0.180975
0.19598
0.21383
0.235056
0.260221
0.288997
0.322265
0.359716
0.400769
0.444474
0.489262
0.532182
0.573858
0.61354
0.649609
0.680291
0.733258
0.755938
0.0956992
0.0957777
0.0958831
0.0959968
0.0961401
0.0962973
0.0964766
0.0966759
0.0969015
0.0971557
0.0974435
0.0977691
0.0981355
0.0985471
0.0990046
0.0995113
0.100068
0.100678
0.101339
0.102056
0.102832
0.103669
0.104574
0.105553
0.106607
0.107742
0.108953
0.110234
0.111587
0.113036
0.114632
0.116438
0.118524
0.120965
0.123861
0.127329
0.13151
0.136585
0.142748
0.150214
0.159213
0.170008
0.182866
0.198139
0.216353
0.238069
0.263837
0.293413
0.327641
0.366184
0.408429
0.453395
0.499489
0.543696
0.586669
0.627498
0.664663
0.696621
0.750839
0.773732
0.0978744
0.0979656
0.0980858
0.0982167
0.0983786
0.098555
0.0987533
0.0989707
0.0992131
0.0994825
0.099784
0.100122
0.100499
0.10092
0.101386
0.1019
0.102463
0.103077
0.10374
0.104457
0.105229
0.10606
0.106954
0.107917
0.108951
0.110061
0.111241
0.112483
0.113788
0.115178
0.116709
0.118437
0.120438
0.122789
0.125591
0.128969
0.133066
0.138075
0.144196
0.151657
0.160698
0.171597
0.184632
0.200174
0.218758
0.240975
0.267351
0.297762
0.332981
0.372643
0.416111
0.462377
0.509814
0.555329
0.599605
0.641622
0.679895
0.713169
0.768554
0.791736
0.100035
0.100149
0.10029
0.10044
0.100619
0.100812
0.101026
0.10126
0.101519
0.101805
0.102123
0.102478
0.102871
0.103308
0.103788
0.104313
0.104886
0.105507
0.106174
0.106891