/*--------------------------------*- C++ -*----------------------------------*\
  =========                 |
  \\      /  F ield         | OpenFOAM: The Open Source CFD Toolbox
   \\    /   O peration     | Website:  https://openfoam.org
    \\  /    A nd           | Version:  6.0
     \\/     M anipulation  |
\*---------------------------------------------------------------------------*/
FoamFile
{
    version     2.0;
    format      ascii;
    class       volScalarField;
    location    "58";
    object      p;
}
// * * * * * * * * * * * * * * * * * * * * * * * * * * * * * * * * * * * * * //

dimensions      [0 2 -2 0 0 0 0];

internalField   nonuniform List<scalar> 
34500
(
1.00624
1.0067
1.00696
1.00705
1.00694
1.00662
1.00611
1.00548
1.0048
1.00412
1.00343
1.00281
1.0021
1.00174
1.00153
1.00624
1.00673
1.00707
1.00726
1.00728
1.00711
1.00674
1.00621
1.00561
1.00496
1.00427
1.00361
1.0028
1.00247
1.00209
1.00624
1.00672
1.00701
1.00716
1.00713
1.0069
1.00649
1.00592
1.00529
1.00462
1.00393
1.0033
1.00254
1.00237
1.00201
1.00625
1.00671
1.00697
1.00706
1.00698
1.00672
1.00627
1.00568
1.00502
1.00435
1.00366
1.00307
1.00239
1.00235
1.00216
1.00625
1.00671
1.00697
1.00705
1.00697
1.00671
1.00627
1.00569
1.00505
1.00438
1.00371
1.00313
1.00248
1.0025
1.0024
1.00626
1.00672
1.00699
1.00707
1.00699
1.00674
1.00632
1.00577
1.00514
1.00448
1.00381
1.00323
1.0026
1.00265
1.00257
1.00627
1.00673
1.007
1.00708
1.00699
1.00674
1.00633
1.00578
1.00516
1.00451
1.00385
1.00328
1.00267
1.00274
1.00271
1.00627
1.00674
1.00702
1.00709
1.00699
1.00673
1.00632
1.00578
1.00517
1.00453
1.00387
1.00332
1.00273
1.00282
1.00283
1.00628
1.00676
1.00704
1.00712
1.00701
1.00674
1.00633
1.00579
1.00519
1.00455
1.00391
1.00337
1.0028
1.00289
1.00294
1.0063
1.00678
1.00707
1.00715
1.00706
1.00678
1.00636
1.00583
1.00523
1.0046
1.00397
1.00343
1.00288
1.00297
1.00303
1.00631
1.00679
1.0071
1.0072
1.00711
1.00683
1.00641
1.00588
1.00528
1.00466
1.00403
1.0035
1.00296
1.00303
1.0031
1.00632
1.00681
1.00713
1.00724
1.00716
1.00689
1.00647
1.00593
1.00534
1.00472
1.00408
1.00356
1.00303
1.00309
1.00316
1.00634
1.00683
1.00715
1.00728
1.00721
1.00695
1.00653
1.00599
1.00539
1.00477
1.00414
1.00361
1.00309
1.00313
1.0032
1.00635
1.00684
1.00717
1.00731
1.00725
1.007
1.00658
1.00604
1.00544
1.00482
1.00418
1.00366
1.00314
1.00317
1.00323
1.00637
1.00686
1.00718
1.00733
1.00728
1.00703
1.00662
1.00608
1.00548
1.00486
1.00422
1.00369
1.00318
1.00319
1.00325
1.00639
1.00687
1.00719
1.00734
1.0073
1.00706
1.00665
1.00611
1.00551
1.00488
1.00425
1.00372
1.00321
1.00321
1.00326
1.00641
1.00689
1.0072
1.00734
1.0073
1.00707
1.00666
1.00613
1.00553
1.0049
1.00427
1.00374
1.00324
1.00322
1.00327
1.00644
1.00691
1.00721
1.00734
1.0073
1.00706
1.00667
1.00614
1.00554
1.00491
1.00428
1.00376
1.00327
1.00323
1.00327
1.00646
1.00693
1.00722
1.00734
1.00729
1.00706
1.00667
1.00614
1.00555
1.00492
1.00429
1.00377
1.00329
1.00324
1.00328
1.00649
1.00695
1.00723
1.00734
1.00729
1.00706
1.00667
1.00615
1.00555
1.00493
1.00431
1.00379
1.00332
1.00326
1.00328
1.00652
1.00698
1.00726
1.00736
1.00729
1.00706
1.00667
1.00616
1.00557
1.00495
1.00433
1.00382
1.00335
1.00327
1.00328
1.00655
1.00702
1.00729
1.00738
1.00731
1.00707
1.00669
1.00618
1.00559
1.00498
1.00436
1.00385
1.00339
1.00329
1.00328
1.00658
1.00706
1.00733
1.00741
1.00733
1.00709
1.00671
1.00621
1.00563
1.00502
1.0044
1.00389
1.00343
1.00331
1.00328
1.00662
1.0071
1.00738
1.00746
1.00737
1.00712
1.00674
1.00624
1.00566
1.00506
1.00445
1.00393
1.00346
1.00332
1.00327
1.00665
1.00714
1.00743
1.00751
1.00742
1.00716
1.00678
1.00628
1.00571
1.0051
1.00449
1.00397
1.0035
1.00334
1.00327
1.00669
1.00719
1.00749
1.00757
1.00748
1.00722
1.00683
1.00633
1.00575
1.00515
1.00453
1.00401
1.00354
1.00335
1.00326
1.00673
1.00724
1.00755
1.00764
1.00755
1.00729
1.00689
1.00639
1.00581
1.0052
1.00458
1.00405
1.00357
1.00337
1.00325
1.00676
1.00728
1.00761
1.00771
1.00763
1.00737
1.00697
1.00646
1.00587
1.00526
1.00464
1.00409
1.00361
1.00338
1.00323
1.0068
1.00733
1.00767
1.00779
1.00772
1.00746
1.00706
1.00654
1.00595
1.00532
1.00469
1.00413
1.00364
1.00338
1.00321
1.00684
1.00737
1.00773
1.00786
1.0078
1.00755
1.00715
1.00663
1.00602
1.00539
1.00474
1.00417
1.00366
1.00338
1.00319
1.00687
1.00741
1.00778
1.00792
1.00788
1.00763
1.00723
1.00671
1.00609
1.00544
1.00478
1.0042
1.00367
1.00337
1.00316
1.00691
1.00745
1.00782
1.00797
1.00793
1.0077
1.0073
1.00677
1.00614
1.00548
1.00481
1.00421
1.00367
1.00336
1.00312
1.00694
1.00748
1.00785
1.00801
1.00797
1.00774
1.00734
1.0068
1.00617
1.0055
1.00482
1.00421
1.00367
1.00334
1.00309
1.00698
1.00752
1.00788
1.00803
1.00799
1.00776
1.00736
1.00682
1.00618
1.00551
1.00482
1.00421
1.00366
1.00332
1.00305
1.00702
1.00755
1.00791
1.00806
1.00801
1.00777
1.00736
1.00682
1.00618
1.00551
1.00482
1.0042
1.00365
1.0033
1.00302
1.00706
1.00758
1.00794
1.00808
1.00803
1.00779
1.00737
1.00683
1.00619
1.00551
1.00482
1.0042
1.00365
1.00328
1.00299
1.00711
1.00762
1.00797
1.00811
1.00806
1.00781
1.00739
1.00684
1.0062
1.00552
1.00483
1.0042
1.00364
1.00326
1.00295
1.00715
1.00766
1.00801
1.00815
1.0081
1.00785
1.00743
1.00687
1.00622
1.00553
1.00484
1.0042
1.00364
1.00324
1.00292
1.0072
1.0077
1.00805
1.0082
1.00815
1.0079
1.00748
1.00691
1.00626
1.00556
1.00485
1.00421
1.00363
1.00322
1.00288
1.00725
1.00775
1.0081
1.00824
1.0082
1.00795
1.00752
1.00696
1.00629
1.00558
1.00487
1.00421
1.00362
1.00319
1.00284
1.00731
1.00781
1.00815
1.00828
1.00824
1.00799
1.00756
1.00699
1.00632
1.0056
1.00488
1.00421
1.00361
1.00317
1.0028
1.00737
1.00786
1.00819
1.00832
1.00827
1.00802
1.00759
1.00702
1.00634
1.00562
1.00488
1.0042
1.0036
1.00314
1.00276
1.00743
1.00793
1.00824
1.00835
1.00829
1.00803
1.0076
1.00703
1.00635
1.00562
1.00488
1.0042
1.00358
1.00312
1.00273
1.0075
1.00799
1.0083
1.00839
1.00831
1.00804
1.00761
1.00703
1.00635
1.00562
1.00488
1.00419
1.00357
1.0031
1.0027
1.00757
1.00807
1.00837
1.00844
1.00834
1.00805
1.00761
1.00703
1.00635
1.00563
1.00489
1.0042
1.00357
1.00308
1.00267
1.00765
1.00815
1.00845
1.0085
1.00838
1.00808
1.00763
1.00705
1.00637
1.00565
1.00491
1.00421
1.00358
1.00308
1.00265
1.00773
1.00824
1.00854
1.00859
1.00845
1.00814
1.00768
1.0071
1.00642
1.00569
1.00495
1.00425
1.0036
1.00307
1.00262
1.0078
1.00834
1.00865
1.0087
1.00856
1.00824
1.00777
1.00718
1.00649
1.00576
1.00501
1.00429
1.00362
1.00307
1.0026
1.00788
1.00844
1.00878
1.00883
1.0087
1.00837
1.00789
1.00729
1.00659
1.00585
1.00508
1.00434
1.00365
1.00307
1.00257
1.00796
1.00855
1.00891
1.00899
1.00886
1.00853
1.00804
1.00743
1.00672
1.00595
1.00516
1.00439
1.00368
1.00307
1.00253
1.00804
1.00865
1.00904
1.00915
1.00904
1.00871
1.00821
1.00758
1.00685
1.00606
1.00524
1.00444
1.00369
1.00305
1.00249
1.00812
1.00875
1.00917
1.00931
1.00921
1.00889
1.00839
1.00774
1.00698
1.00616
1.00531
1.00448
1.0037
1.00303
1.00244
1.00819
1.00884
1.00929
1.00945
1.00938
1.00907
1.00855
1.00789
1.0071
1.00625
1.00536
1.0045
1.00369
1.00299
1.00238
1.00827
1.00892
1.00939
1.00958
1.00952
1.00921
1.00869
1.00801
1.00719
1.00631
1.00539
1.0045
1.00366
1.00295
1.00232
1.00834
1.009
1.00948
1.00968
1.00964
1.00933
1.0088
1.0081
1.00726
1.00635
1.0054
1.00449
1.00363
1.00289
1.00225
1.00841
1.00907
1.00955
1.00976
1.00972
1.00941
1.00887
1.00816
1.0073
1.00636
1.00539
1.00446
1.00358
1.00284
1.00218
1.00848
1.00913
1.00961
1.00981
1.00977
1.00946
1.00891
1.00818
1.0073
1.00635
1.00537
1.00442
1.00353
1.00277
1.00211
1.00856
1.0092
1.00966
1.00985
1.0098
1.00948
1.00892
1.00818
1.00729
1.00633
1.00533
1.00437
1.00348
1.00271
1.00204
1.00864
1.00926
1.00971
1.00988
1.00981
1.00948
1.00892
1.00817
1.00727
1.0063
1.00529
1.00433
1.00343
1.00265
1.00197
1.00872
1.00933
1.00975
1.0099
1.00982
1.00947
1.0089
1.00815
1.00724
1.00627
1.00526
1.00429
1.00338
1.0026
1.00191
1.00881
1.00941
1.00981
1.00993
1.00983
1.00947
1.00889
1.00813
1.00722
1.00624
1.00523
1.00425
1.00334
1.00255
1.00185
1.0089
1.00949
1.00988
1.00998
1.00986
1.00949
1.0089
1.00813
1.00722
1.00623
1.00521
1.00423
1.0033
1.0025
1.00179
1.00899
1.00958
1.00995
1.01004
1.0099
1.00952
1.00892
1.00814
1.00723
1.00623
1.00521
1.00421
1.00328
1.00246
1.00173
1.00909
1.00968
1.01005
1.01012
1.00997
1.00957
1.00896
1.00818
1.00725
1.00625
1.00522
1.00421
1.00325
1.00242
1.00167
1.0092
1.00979
1.01015
1.01022
1.01006
1.00965
1.00903
1.00824
1.0073
1.00629
1.00524
1.00421
1.00324
1.00238
1.00161
1.0093
1.0099
1.01027
1.01034
1.01017
1.00975
1.00912
1.00831
1.00737
1.00634
1.00527
1.00422
1.00322
1.00234
1.00155
1.00941
1.01003
1.0104
1.01047
1.01029
1.00987
1.00923
1.00841
1.00744
1.00639
1.0053
1.00423
1.0032
1.00229
1.00148
1.00952
1.01015
1.01054
1.01061
1.01043
1.01
1.00935
1.00851
1.00753
1.00645
1.00534
1.00424
1.00319
1.00225
1.00141
1.00964
1.01028
1.01068
1.01075
1.01058
1.01014
1.00948
1.00862
1.00762
1.00652
1.00537
1.00424
1.00317
1.0022
1.00134
1.00975
1.01041
1.01082
1.01091
1.01073
1.01029
1.00961
1.00874
1.00771
1.00658
1.00541
1.00425
1.00314
1.00215
1.00127
1.00987
1.01054
1.01096
1.01106
1.01089
1.01043
1.00974
1.00885
1.00779
1.00664
1.00544
1.00425
1.00311
1.0021
1.00119
1.00999
1.01067
1.01111
1.01121
1.01104
1.01058
1.00987
1.00896
1.00788
1.0067
1.00547
1.00425
1.00308
1.00204
1.00111
1.01011
1.0108
1.01125
1.01135
1.01118
1.01072
1.01
1.00906
1.00796
1.00675
1.00549
1.00424
1.00304
1.00198
1.00103
1.01023
1.01093
1.01139
1.0115
1.01133
1.01085
1.01011
1.00916
1.00803
1.00679
1.0055
1.00422
1.003
1.00191
1.00095
1.01036
1.01107
1.01153
1.01164
1.01146
1.01098
1.01023
1.00925
1.0081
1.00683
1.00551
1.00421
1.00296
1.00185
1.00086
1.01048
1.0112
1.01166
1.01178
1.0116
1.0111
1.01033
1.00934
1.00816
1.00687
1.00552
1.00419
1.00291
1.00178
1.00077
1.01061
1.01133
1.0118
1.01191
1.01173
1.01122
1.01044
1.00942
1.00822
1.0069
1.00552
1.00416
1.00287
1.00171
1.00067
1.01074
1.01147
1.01194
1.01205
1.01185
1.01134
1.01054
1.0095
1.00827
1.00693
1.00553
1.00414
1.00282
1.00163
1.00058
1.01087
1.01161
1.01208
1.01218
1.01198
1.01145
1.01064
1.00958
1.00833
1.00696
1.00553
1.00411
1.00276
1.00156
1.00048
1.01101
1.01175
1.01222
1.01232
1.01211
1.01157
1.01074
1.00966
1.00838
1.00699
1.00553
1.00409
1.00271
1.00148
1.00038
1.01115
1.01189
1.01236
1.01246
1.01224
1.01169
1.01084
1.00974
1.00844
1.00701
1.00553
1.00406
1.00266
1.0014
1.00028
1.01129
1.01204
1.01251
1.0126
1.01238
1.01181
1.01094
1.00982
1.00849
1.00704
1.00553
1.00403
1.0026
1.00132
1.00018
1.01144
1.01219
1.01266
1.01275
1.01251
1.01193
1.01105
1.0099
1.00855
1.00708
1.00553
1.00401
1.00255
1.00124
1.00007
1.01158
1.01234
1.01282
1.0129
1.01266
1.01206
1.01116
1.00999
1.00862
1.00711
1.00554
1.00398
1.00249
1.00116
0.999967
1.01173
1.0125
1.01298
1.01306
1.0128
1.0122
1.01127
1.01008
1.00868
1.00714
1.00554
1.00395
1.00244
1.00107
0.999858
1.01189
1.01266
1.01314
1.01322
1.01296
1.01233
1.01139
1.01018
1.00875
1.00718
1.00555
1.00393
1.00238
1.00099
0.999746
1.01205
1.01283
1.01331
1.01338
1.01311
1.01248
1.01151
1.01027
1.00881
1.00722
1.00555
1.0039
1.00232
1.0009
0.999631
1.01221
1.013
1.01348
1.01355
1.01327
1.01262
1.01164
1.01038
1.00889
1.00726
1.00555
1.00387
1.00226
1.00081
0.999514
1.01237
1.01317
1.01366
1.01372
1.01344
1.01277
1.01177
1.01048
1.00896
1.00729
1.00556
1.00384
1.00219
1.00071
0.999394
1.01254
1.01335
1.01384
1.0139
1.01361
1.01293
1.0119
1.01058
1.00903
1.00733
1.00556
1.00381
1.00213
1.00062
0.999271
1.01271
1.01352
1.01402
1.01408
1.01378
1.01308
1.01204
1.01069
1.00911
1.00737
1.00557
1.00378
1.00206
1.00052
0.999146
1.01288
1.01371
1.01421
1.01427
1.01396
1.01325
1.01218
1.0108
1.00918
1.00742
1.00557
1.00374
1.002
1.00042
0.999018
1.01306
1.0139
1.0144
1.01446
1.01414
1.01341
1.01232
1.01091
1.00926
1.00746
1.00557
1.00371
1.00193
1.00032
0.998887
1.01324
1.01409
1.01459
1.01465
1.01432
1.01358
1.01246
1.01103
1.00934
1.0075
1.00558
1.00367
1.00186
1.00021
0.998753
1.01343
1.01428
1.01479
1.01485
1.01451
1.01375
1.01261
1.01114
1.00942
1.00754
1.00558
1.00364
1.00178
1.00011
0.998616
1.01361
1.01448
1.01499
1.01505
1.0147
1.01392
1.01275
1.01126
1.0095
1.00758
1.00558
1.0036
1.00171
0.999997
0.998477
1.01381
1.01468
1.0152
1.01525
1.01489
1.01409
1.0129
1.01138
1.00958
1.00762
1.00558
1.00356
1.00163
0.999884
0.998334
1.014
1.01489
1.01541
1.01546
1.01509
1.01427
1.01306
1.0115
1.00966
1.00766
1.00558
1.00352
1.00155
0.999769
0.998188
1.0142
1.0151
1.01562
1.01567
1.01529
1.01446
1.01321
1.01162
1.00975
1.0077
1.00558
1.00347
1.00146
0.999651
0.998039
1.0144
1.01531
1.01584
1.01589
1.0155
1.01464
1.01337
1.01174
1.00983
1.00774
1.00557
1.00343
1.00138
0.99953
0.997887
1.01461
1.01553
1.01606
1.01611
1.01571
1.01483
1.01353
1.01187
1.00991
1.00778
1.00557
1.00338
1.00129
0.999407
0.997732
1.01482
1.01575
1.01629
1.01633
1.01592
1.01502
1.01369
1.01199
1.01
1.00782
1.00556
1.00333
1.0012
0.99928
0.997573
1.01504
1.01598
1.01652
1.01656
1.01613
1.01522
1.01386
1.01212
1.01009
1.00786
1.00556
1.00328
1.00111
0.999151
0.997412
1.01525
1.01621
1.01676
1.01679
1.01635
1.01542
1.01403
1.01225
1.01017
1.00791
1.00555
1.00323
1.00102
0.999018
0.997247
1.01548
1.01645
1.017
1.01703
1.01658
1.01562
1.0142
1.01238
1.01026
1.00795
1.00554
1.00317
1.00092
0.998882
0.997078
1.01571
1.01669
1.01724
1.01727
1.01681
1.01583
1.01437
1.01252
1.01035
1.00799
1.00554
1.00312
1.00082
0.998744
0.996906
1.01594
1.01694
1.01749
1.01752
1.01704
1.01604
1.01455
1.01266
1.01044
1.00803
1.00553
1.00306
1.00072
0.998602
0.996731
1.01618
1.01719
1.01775
1.01777
1.01728
1.01625
1.01473
1.0128
1.01053
1.00807
1.00551
1.003
1.00061
0.998456
0.996552
1.01642
1.01744
1.01801
1.01803
1.01752
1.01647
1.01492
1.01294
1.01062
1.00811
1.0055
1.00294
1.0005
0.998307
0.996369
1.01666
1.0177
1.01827
1.01829
1.01777
1.01669
1.0151
1.01308
1.01072
1.00815
1.00549
1.00287
1.00039
0.998155
0.996182
1.01692
1.01797
1.01854
1.01855
1.01802
1.01692
1.01529
1.01323
1.01081
1.00818
1.00547
1.0028
1.00028
0.997999
0.995992
1.01717
1.01824
1.01882
1.01883
1.01828
1.01715
1.01549
1.01337
1.01091
1.00822
1.00546
1.00273
1.00016
0.99784
0.995798
1.01743
1.01851
1.0191
1.0191
1.01854
1.01738
1.01569
1.01352
1.011
1.00826
1.00544
1.00266
1.00004
0.997676
0.995599
1.0177
1.0188
1.01939
1.01939
1.01881
1.01762
1.01589
1.01367
1.0111
1.0083
1.00542
1.00259
0.999916
0.997509
0.995397
1.01797
1.01908
1.01968
1.01967
1.01908
1.01787
1.01609
1.01383
1.01119
1.00834
1.0054
1.00251
0.999788
0.997338
0.99519
1.01825
1.01938
1.01998
1.01997
1.01936
1.01812
1.0163
1.01398
1.01129
1.00837
1.00537
1.00243
0.999657
0.997163
0.994979
1.01853
1.01967
1.02028
1.02027
1.01964
1.01837
1.01651
1.01414
1.01139
1.00841
1.00535
1.00235
0.999522
0.996984
0.994764
1.01882
1.01998
1.02059
1.02058
1.01993
1.01863
1.01672
1.0143
1.01149
1.00845
1.00532
1.00226
0.999384
0.9968
0.994544
1.01911
1.02029
1.02091
1.02089
1.02023
1.01889
1.01694
1.01446
1.01159
1.00848
1.00529
1.00217
0.999242
0.996612
0.99432
1.01941
1.02061
1.02123
1.02121
1.02053
1.01916
1.01716
1.01463
1.01169
1.00851
1.00526
1.00208
0.999095
0.99642
0.99409
1.01972
1.02093
1.02156
1.02153
1.02083
1.01943
1.01739
1.0148
1.01179
1.00855
1.00522
1.00198
0.998945
0.996223
0.993856
1.02003
1.02126
1.0219
1.02186
1.02115
1.01971
1.01762
1.01497
1.01189
1.00858
1.00519
1.00188
0.99879
0.996021
0.993618
1.02035
1.02159
1.02224
1.0222
1.02146
1.01999
1.01785
1.01514
1.01199
1.00861
1.00515
1.00178
0.998631
0.995815
0.993374
1.02067
1.02194
1.02259
1.02255
1.02179
1.02028
1.01809
1.01531
1.0121
1.00864
1.00511
1.00167
0.998468
0.995604
0.993125
1.021
1.02229
1.02294
1.0229
1.02212
1.02058
1.01833
1.01548
1.0122
1.00866
1.00506
1.00156
0.9983
0.995387
0.992871
1.02134
1.02264
1.02331
1.02326
1.02246
1.02087
1.01857
1.01566
1.0123
1.00869
1.00501
1.00145
0.998127
0.995166
0.992611
1.02168
1.02301
1.02368
1.02362
1.0228
1.02118
1.01882
1.01584
1.0124
1.00871
1.00496
1.00133
0.99795
0.994939
0.992346
1.02204
1.02338
1.02406
1.024
1.02315
1.02149
1.01907
1.01602
1.01251
1.00874
1.00491
1.0012
0.997767
0.994708
0.992076
1.02239
1.02376
1.02445
1.02438
1.02351
1.0218
1.01933
1.01621
1.01261
1.00876
1.00485
1.00108
0.99758
0.99447
0.9918
1.02276
1.02414
1.02484
1.02477
1.02387
1.02213
1.01959
1.01639
1.01271
1.00878
1.00479
1.00095
0.997387
0.994227
0.991518
1.02313
1.02454
1.02524
1.02516
1.02425
1.02245
1.01985
1.01658
1.01282
1.00879
1.00473
1.00081
0.997189
0.993979
0.99123
1.02351
1.02494
1.02565
1.02557
1.02463
1.02279
1.02012
1.01677
1.01292
1.00881
1.00466
1.00067
0.996985
0.993724
0.990936
1.0239
1.02535
1.02607
1.02598
1.02501
1.02313
1.0204
1.01696
1.01302
1.00882
1.00459
1.00052
0.996776
0.993464
0.990637
1.02429
1.02577
1.0265
1.0264
1.02541
1.02347
1.02067
1.01715
1.01312
1.00883
1.00451
1.00037
0.996561
0.993197
0.990331
1.0247
1.0262
1.02694
1.02684
1.02581
1.02383
1.02096
1.01735
1.01322
1.00884
1.00443
1.00021
0.996339
0.992924
0.990018
1.02511
1.02663
1.02739
1.02727
1.02622
1.02419
1.02124
1.01755
1.01332
1.00884
1.00435
1.00005
0.996112
0.992645
0.9897
1.02553
1.02708
1.02784
1.02772
1.02664
1.02455
1.02153
1.01774
1.01342
1.00884
1.00426
0.99988
0.995878
0.992359
0.989374
1.02595
1.02753
1.02831
1.02818
1.02707
1.02492
1.02183
1.01794
1.01352
1.00884
1.00416
0.999706
0.995638
0.992066
0.989042
1.02639
1.028
1.02878
1.02865
1.0275
1.0253
1.02212
1.01815
1.01362
1.00883
1.00406
0.999525
0.995391
0.991767
0.988703
1.02684
1.02847
1.02927
1.02913
1.02795
1.02569
1.02243
1.01835
1.01371
1.00883
1.00396
0.999338
0.995137
0.991461
0.988357
1.02729
1.02895
1.02976
1.02961
1.0284
1.02608
1.02273
1.01855
1.01381
1.00881
1.00385
0.999143
0.994876
0.991147
0.988005
1.02776
1.02945
1.03027
1.03011
1.02887
1.02648
1.02305
1.01876
1.0139
1.00879
1.00373
0.998943
0.994608
0.990826
0.987645
1.02823
1.02995
1.03078
1.03062
1.02934
1.02689
1.02336
1.01897
1.01399
1.00877
1.00361
0.998735
0.994332
0.990498
0.987277
1.02872
1.03047
1.03131
1.03114
1.02982
1.0273
1.02368
1.01917
1.01408
1.00875
1.00348
0.99852
0.994048
0.990162
0.986903
1.02921
1.03099
1.03185
1.03167
1.03031
1.02773
1.02401
1.01938
1.01417
1.00871
1.00334
0.998296
0.993756
0.989817
0.98652
1.02972
1.03153
1.0324
1.03221
1.03082
1.02816
1.02434
1.01959
1.01425
1.00868
1.0032
0.998066
0.993457
0.989466
0.98613
1.03023
1.03208
1.03296
1.03276
1.03133
1.02859
1.02467
1.0198
1.01433
1.00863
1.00305
0.997826
0.993148
0.989105
0.985732
1.03076
1.03264
1.03354
1.03333
1.03185
1.02904
1.02501
1.02001
1.01441
1.00859
1.00289
0.997579
0.992831
0.988737
0.985327
1.03129
1.03321
1.03412
1.03391
1.03238
1.02949
1.02535
1.02022
1.01448
1.00853
1.00272
0.997322
0.992505
0.988359
0.984913
1.03184
1.0338
1.03473
1.0345
1.03293
1.02995
1.02569
1.02043
1.01455
1.00847
1.00255
0.997056
0.99217
0.987973
0.984491
1.0324
1.0344
1.03534
1.0351
1.03348
1.03042
1.02604
1.02064
1.01462
1.0084
1.00237
0.996781
0.991825
0.987578
0.984061
1.03298
1.03501
1.03597
1.03572
1.03405
1.0309
1.0264
1.02085
1.01468
1.00833
1.00217
0.996496
0.991471
0.987174
0.983622
1.03356
1.03563
1.03661
1.03635
1.03463
1.03138
1.02675
1.02106
1.01473
1.00824
1.00197
0.9962
0.991106
0.98676
0.983174
1.03416
1.03627
1.03726
1.03699
1.03522
1.03188
1.02711
1.02126
1.01478
1.00815
1.00176
0.995895
0.990732
0.986336
0.982718
1.03477
1.03692
1.03793
1.03765
1.03582
1.03238
1.02748
1.02147
1.01483
1.00805
1.00154
0.995577
0.990346
0.985903
0.982252
1.03539
1.03759
1.03862
1.03832
1.03644
1.03289
1.02784
1.02167
1.01486
1.00794
1.0013
0.995249
0.989949
0.98546
0.981778
1.03603
1.03827
1.03932
1.03901
1.03706
1.03341
1.02821
1.02187
1.01489
1.00782
1.00106
0.994909
0.989541
0.985006
0.981294
1.03668
1.03897
1.04004
1.03971
1.03771
1.03394
1.02859
1.02207
1.01492
1.00769
1.0008
0.994557
0.989122
0.984542
0.980802
1.03735
1.03969
1.04077
1.04043
1.03836
1.03447
1.02896
1.02226
1.01493
1.00754
1.00053
0.994192
0.98869
0.984066
0.980299
1.03803
1.04042
1.04152
1.04117
1.03903
1.03501
1.02934
1.02245
1.01494
1.00739
1.00025
0.993814
0.988247
0.98358
0.979787
1.03872
1.04116
1.04229
1.04192
1.03971
1.03557
1.02972
1.02263
1.01494
1.00722
0.999951
0.993422
0.98779
0.983083
0.979265
1.03944
1.04193
1.04308
1.04269
1.0404
1.03613
1.0301
1.02281
1.01492
1.00704
0.999641
0.993017
0.987321
0.982574
0.978733
1.04016
1.04271
1.04389
1.04348
1.04111
1.0367
1.03048
1.02299
1.0149
1.00685
0.999315
0.992596
0.986838
0.982052
0.978191
1.04091
1.04351
1.04471
1.04428
1.04184
1.03727
1.03086
1.02316
1.01487
1.00664
0.998975
0.992161
0.986342
0.98152
0.977638
1.04167
1.04433
1.04555
1.04511
1.04257
1.03786
1.03124
1.02332
1.01482
1.00642
0.998617
0.99171
0.985831
0.980974
0.977075
1.04245
1.04517
1.04642
1.04595
1.04333
1.03845
1.03162
1.02347
1.01476
1.00618
0.998244
0.991244
0.985306
0.980416
0.976501
1.04325
1.04603
1.0473
1.04681
1.0441
1.03905
1.032
1.02361
1.01468
1.00592
0.997852
0.99076
0.984766
0.979844
0.975917
1.04406
1.04691
1.04821
1.0477
1.04488
1.03966
1.03238
1.02375
1.01459
1.00565
0.997443
0.99026
0.98421
0.97926
0.975321
1.0449
1.04781
1.04914
1.0486
1.04568
1.04028
1.03276
1.02387
1.01449
1.00536
0.997015
0.989741
0.983638
0.978662
0.974714
1.04575
1.04873
1.05009
1.04953
1.0465
1.0409
1.03313
1.02398
1.01436
1.00505
0.996567
0.989205
0.983051
0.97805
0.974096
1.04663
1.04968
1.05107
1.05048
1.04733
1.04153
1.0335
1.02408
1.01422
1.00471
0.996098
0.988649
0.982446
0.977424
0.973466
1.04752
1.05065
1.05207
1.05145
1.04818
1.04216
1.03387
1.02417
1.01406
1.00436
0.995609
0.988074
0.981825
0.976784
0.972824
1.04844
1.05164
1.0531
1.05244
1.04904
1.04281
1.03423
1.02424
1.01388
1.00398
0.995096
0.987478
0.981186
0.976128
0.972171
1.04938
1.05266
1.05415
1.05346
1.04992
1.04345
1.03458
1.02429
1.01367
1.00358
0.994561
0.986863
0.980529
0.975459
0.971505
1.05034
1.0537
1.05523
1.0545
1.05082
1.0441
1.03492
1.02433
1.01345
1.00316
0.994002
0.986224
0.979853
0.974773
0.970827
1.05133
1.05477
1.05634
1.05557
1.05173
1.04476
1.03526
1.02435
1.01319
1.0027
0.993418
0.985565
0.979158
0.974072
0.970137
1.05234
1.05587
1.05747
1.05666
1.05267
1.04541
1.03558
1.02434
1.01292
1.00222
0.992808
0.984882
0.978444
0.973355
0.969434
1.05338
1.057
1.05864
1.05779
1.05361
1.04607
1.03589
1.02431
1.01261
1.00172
0.992172
0.984176
0.97771
0.972622
0.968719
1.05444
1.05815
1.05984
1.05893
1.05458
1.04673
1.03619
1.02426
1.01227
1.00118
0.991508
0.983445
0.976956
0.971873
0.967991
1.05553
1.05934
1.06107
1.06011
1.05556
1.0474
1.03647
1.02418
1.01191
1.00061
0.990815
0.98269
0.976181
0.971107
0.967251
1.05665
1.06056
1.06233
1.06131
1.05656
1.04805
1.03673
1.02408
1.01151
1.00001
0.990092
0.981909
0.975385
0.970324
0.966496
1.05779
1.06181
1.06363
1.06255
1.05757
1.04871
1.03697
1.02394
1.01107
0.999371
0.989339
0.981102
0.974568
0.969525
0.96573
1.05897
1.06309
1.06496
1.06381
1.0586
1.04936
1.03719
1.02377
1.0106
0.998699
0.988554
0.980268
0.973728
0.968708
0.964949
1.06017
1.06441
1.06633
1.06511
1.05964
1.05001
1.03739
1.02356
1.01009
0.997991
0.987736
0.979407
0.972867
0.967875
0.964156
1.06141
1.06577
1.06774
1.06644
1.0607
1.05064
1.03756
1.02331
1.00954
0.997243
0.986884
0.978517
0.971983
0.967023
0.96335
1.06269
1.06716
1.06918
1.0678
1.06177
1.05127
1.0377
1.02303
1.00894
0.996456
0.985999
0.977599
0.971076
0.966154
0.96253
1.06399
1.0686
1.07067
1.06919
1.06286
1.05188
1.0378
1.0227
1.0083
0.995627
0.985076
0.976652
0.970146
0.965267
0.961697
1.06533
1.07007
1.07221
1.07062
1.06395
1.05248
1.03787
1.02232
1.00762
0.994755
0.984118
0.975675
0.969192
0.964362
0.960851
1.06671
1.07159
1.07378
1.07208
1.06506
1.05306
1.0379
1.0219
1.00688
0.993838
0.983121
0.974666
0.968215
0.963439
0.959992
1.06813
1.07315
1.07541
1.07357
1.06617
1.05362
1.03789
1.02142
1.00609
0.992875
0.982086
0.973628
0.967214
0.962499
0.95912
1.06958
1.07476
1.07708
1.0751
1.06729
1.05415
1.03782
1.02089
1.00525
0.991863
0.981011
0.972558
0.966188
0.961539
0.958234
1.07108
1.07642
1.0788
1.07667
1.06841
1.05466
1.03771
1.02029
1.00435
0.990803
0.979896
0.971457
0.965138
0.960562
0.957336
1.07262
1.07813
1.08057
1.07827
1.06954
1.05513
1.03754
1.01964
1.00338
0.989691
0.97874
0.970322
0.964063
0.959566
0.956425
1.07421
1.07989
1.0824
1.07991
1.07066
1.05556
1.03731
1.01891
1.00236
0.988527
0.977542
0.969156
0.962965
0.958553
0.955501
1.07584
1.0817
1.08429
1.08158
1.07178
1.05595
1.03701
1.01812
1.00128
0.987309
0.9763
0.967956
0.961841
0.95752
0.954563
1.07752
1.08357
1.08623
1.08328
1.0729
1.05629
1.03664
1.01725
1.00012
0.986037
0.975016
0.966724
0.960692
0.956471
0.953614
1.07925
1.08551
1.08823
1.08502
1.074
1.05657
1.03619
1.0163
0.998899
0.984706
0.973688
0.965458
0.959519
0.955402
0.952651
1.08103
1.0875
1.0903
1.0868
1.07508
1.05679
1.03567
1.01527
0.997605
0.98332
0.972315
0.96416
0.958321
0.954316
0.951677
1.08286
1.08957
1.09243
1.0886
1.07614
1.05694
1.03505
1.01415
0.996235
0.981873
0.970897
0.962826
0.957097
0.953211
0.950689
1.08476
1.0917
1.09463
1.09043
1.07717
1.05702
1.03433
1.01294
0.99479
0.980367
0.969434
0.96146
0.95585
0.952089
0.94969
1.08671
1.09391
1.09689
1.09229
1.07816
1.05701
1.03351
1.01163
0.993265
0.978799
0.967925
0.96006
0.954577
0.950948
0.948678
1.08872
1.09619
1.09923
1.09418
1.07911
1.05691
1.03259
1.01023
0.991661
0.97717
0.96637
0.958626
0.953281
0.949791
0.947655
1.0908
1.09856
1.10164
1.09608
1.08001
1.0567
1.03154
1.00872
0.989973
0.975478
0.964769
0.957159
0.951959
0.948616
0.946619
1.09295
1.10101
1.10413
1.09801
1.08084
1.05638
1.03038
1.00711
0.988201
0.973724
0.963122
0.955659
0.950615
0.947425
0.945573
1.09517
1.10355
1.1067
1.09994
1.0816
1.05593
1.02908
1.00538
0.986343
0.971905
0.961429
0.954125
0.949245
0.946216
0.944515
1.09746
1.10619
1.10934
1.10187
1.08228
1.05535
1.02764
1.00354
0.984398
0.970023
0.959691
0.952559
0.947854
0.944991
0.943447
1.09983
1.10893
1.11207
1.1038
1.08286
1.05462
1.02606
1.00157
0.982363
0.968076
0.957907
0.950961
0.946438
0.943749
0.942367
1.10228
1.11178
1.11487
1.10572
1.08333
1.05373
1.02433
0.999493
0.98024
0.966066
0.956079
0.949331
0.945001
0.942493
0.941278
1.10482
1.11474
1.11776
1.10762
1.08367
1.05267
1.02243
0.997286
0.978025
0.963992
0.954206
0.94767
0.943542
0.94122
0.940178
1.10746
1.11782
1.12072
1.10948
1.08386
1.05142
1.02037
0.994953
0.975721
0.961856
0.95229
0.945979
0.942061
0.939934
0.939069
1.11019
1.12103
1.12376
1.11129
1.08389
1.04997
1.01813
0.99249
0.973326
0.959657
0.950331
0.944258
0.940559
0.938632
0.93795
1.11302
1.12437
1.12688
1.11304
1.08374
1.04831
1.01571
0.989898
0.970842
0.957397
0.948331
0.942509
0.939038
0.937317
0.936823
1.11596
1.12786
1.13007
1.1147
1.08338
1.04641
1.01311
0.987173
0.968267
0.955077
0.94629
0.940732
0.937497
0.935989
0.935686
1.11902
1.13149
1.13332
1.11626
1.0828
1.04427
1.01032
0.984319
0.965606
0.952699
0.944211
0.938928
0.935938
0.934649
0.934543
1.12221
1.13528
1.13662
1.11769
1.08196
1.04187
1.00733
0.981332
0.962857
0.950264
0.942094
0.937098
0.93436
0.933296
0.93339
1.12552
1.13923
1.13998
1.11897
1.08084
1.03921
1.00414
0.978216
0.960024
0.947774
0.939941
0.935245
0.932767
0.931933
0.932231
1.12898
1.14336
1.14336
1.12006
1.07942
1.03625
1.00075
0.974971
0.957109
0.945232
0.937754
0.933367
0.931157
0.93056
0.931064
1.1326
1.14767
1.14676
1.12093
1.07767
1.03301
0.997162
0.971601
0.954115
0.942641
0.935536
0.931469
0.929534
0.929178
0.929892
1.13637
1.15217
1.15016
1.12155
1.07555
1.02945
0.993371
0.968109
0.951044
0.940001
0.933286
0.92955
0.927897
0.927786
0.928712
1.14033
1.15686
1.15352
1.12188
1.07304
1.02558
0.989384
0.964499
0.947903
0.937319
0.93101
0.927613
0.926249
0.926388
0.927527
1.14448
1.16174
1.15683
1.12187
1.07012
1.02138
0.985201
0.960776
0.944693
0.934595
0.928707
0.925659
0.924589
0.924982
0.926334
1.14884
1.16683
1.16005
1.12148
1.06674
1.01686
0.98083
0.956948
0.941421
0.931835
0.926382
0.92369
0.922922
0.923572
0.925137
1.15343
1.17211
1.16314
1.12065
1.06289
1.012
0.976277
0.953018
0.93809
0.929041
0.924036
0.921707
0.921246
0.922156
0.923932
1.15826
1.1776
1.16605
1.11934
1.05853
1.00682
0.971554
0.948998
0.934707
0.926218
0.921672
0.919714
0.919566
0.920737
0.922722
1.16337
1.18327
1.16872
1.11748
1.05365
1.00131
0.966669
0.944892
0.931277
0.923368
0.919292
0.917712
0.917881
0.919314
0.921504
1.16877
1.18912
1.1711
1.11501
1.04822
0.995494
0.961637
0.940713
0.927808
0.920498
0.916901
0.915704
0.916195
0.917889
0.920279
1.17449
1.19513
1.17312
1.11188
1.04223
0.989371
0.956473
0.936467
0.924303
0.91761
0.914499
0.913691
0.914508
0.916461
0.919046
1.18057
1.20128
1.17469
1.10802
1.03566
0.982966
0.951195
0.932167
0.920772
0.91471
0.912091
0.911679
0.912825
0.915033
0.917804
1.18704
1.20753
1.17573
1.10336
1.02852
0.9763
0.945817
0.92782
0.917219
0.911801
0.90968
0.909668
0.911145
0.913601
0.916551
1.19393
1.21383
1.17614
1.09786
1.0208
0.969401
0.940362
0.923439
0.913652
0.908889
0.907271
0.907663
0.909471
0.912168
0.915289
1.20128
1.22013
1.17582
1.09144
1.01252
0.962303
0.934848
0.919033
0.910078
0.905976
0.904865
0.905667
0.907804
0.910731
0.914015
1.20914
1.22635
1.17464
1.08407
1.0037
0.955043
0.929296
0.914613
0.906503
0.90307
0.902469
0.903684
0.906146
0.90929
0.912729
1.21753
1.23241
1.17248
1.07569
0.994382
0.94766
0.923725
0.910189
0.902935
0.900173
0.900086
0.901717
0.904497
0.907842
0.911433
1.22652
1.2382
1.16921
1.06626
0.984611
0.940202
0.918156
0.905772
0.89938
0.897292
0.897722
0.89977
0.902857
0.906387
0.910128
1.23612
1.24359
1.16469
1.05578
0.974448
0.932713
0.912605
0.901369
0.895844
0.894432
0.895382
0.897846
0.901224
0.904922
0.908817
1.2464
1.24842
1.15877
1.04424
0.963969
0.925241
0.907092
0.896992
0.892335
0.8916
0.893073
0.895947
0.899598
0.903447
0.907506
1.25737
1.2525
1.15131
1.03167
0.953263
0.917832
0.90163
0.892649
0.88886
0.888801
0.890799
0.894073
0.897974
0.901961
0.9062
1.26905
1.25563
1.14217
1.0181
0.94243
0.91053
0.896233
0.888348
0.885427
0.886045
0.888566
0.892224
0.896351
0.900468
0.904911
1.28147
1.25756
1.1312
1.00362
0.931581
0.903375
0.890912
0.8841
0.882044
0.883338
0.886376
0.890397
0.894723
0.89897
0.903645
1.29459
1.25798
1.11828
0.988359
0.920832
0.896399
0.885676
0.879914
0.878724
0.880691
0.884234
0.888588
0.89309
0.897475
0.902414
1.30838
1.25656
1.10331
0.972464
0.910297
0.889625
0.880533
0.875801
0.875474
0.878107
0.882135