/*--------------------------------*- C++ -*----------------------------------*\
  =========                 |
  \\      /  F ield         | OpenFOAM: The Open Source CFD Toolbox
   \\    /   O peration     | Website:  https://openfoam.org
    \\  /    A nd           | Version:  6.0
     \\/     M anipulation  |
\*---------------------------------------------------------------------------*/
FoamFile
{
    version     2.0;
    format      ascii;
    class       volVectorField;
    location    "58";
    object      U;
}
// * * * * * * * * * * * * * * * * * * * * * * * * * * * * * * * * * * * * * //

dimensions      [0 1 -1 0 0 0 0];

internalField   nonuniform List<vector> 
34500
(
(0.999995 2.38308e-05 -4.63515e-17)
(0.999964 1.01791e-05 -8.1421e-18)
(0.9999 -1.90812e-05 1.42386e-16)
(0.999807 -7.49022e-05 -1.07824e-16)
(0.99969 -0.000169196 3.36366e-17)
(0.999564 -0.000308193 -1.0172e-16)
(0.999447 -0.000489251 -1.01226e-16)
(0.999352 -0.000705279 8.69295e-17)
(0.999285 -0.000956203 1.07514e-16)
(0.999253 -0.00124368 -6.85082e-16)
(0.999262 -0.00156804 -1.04417e-15)
(0.999306 -0.00198674 1.27556e-16)
(0.999392 -0.00242403 4.37085e-16)
(1.00005 -0.00345738 -2.09845e-16)
(0.99019 -0.0089325 8.12352e-17)
(0.999989 7.37317e-05 3.24611e-17)
(0.999929 4.11652e-05 9.77135e-17)
(0.999812 -1.83873e-05 7.18381e-17)
(0.999641 -0.000129493 -3.02668e-16)
(0.999429 -0.000315108 -5.06863e-16)
(0.999204 -0.000580558 -5.51764e-17)
(0.999 -0.000915713 2.56187e-16)
(0.998837 -0.00130853 -6.79175e-16)
(0.998727 -0.00175849 -1.79199e-16)
(0.998683 -0.00227086 6.83817e-16)
(0.998711 -0.00283613 1.26716e-15)
(0.998818 -0.0035543 -6.32339e-16)
(0.998897 -0.00426371 -9.91063e-16)
(1.00051 -0.00571517 -4.00025e-16)
(0.990005 -0.0114003 5.50595e-16)
(0.999984 0.000123438 1.04723e-17)
(0.999928 7.68641e-05 -1.23013e-16)
(0.999825 8.21713e-06 -1.2531e-16)
(0.999675 -0.000109848 4.56354e-16)
(0.99949 -0.000300937 -2.86473e-17)
(0.999293 -0.000564091 -1.64362e-16)
(0.99912 -0.000882589 9.80434e-17)
(0.998987 -0.00124473 3.85655e-16)
(0.998904 -0.00164977 2.65736e-19)
(0.998881 -0.00210863 -3.94303e-16)
(0.998919 -0.0026047 -7.30861e-16)
(0.99905 -0.00323471 4.15752e-16)
(0.998988 -0.00385271 2.26413e-16)
(1.00079 -0.00497586 1.6653e-16)
(0.993757 -0.00818432 -2.56413e-16)
(0.999979 0.000172349 -1.73626e-17)
(0.999928 0.000110676 -9.0304e-18)
(0.999844 3.23608e-05 4.83747e-17)
(0.999723 -9.08739e-05 -3.0583e-16)
(0.999574 -0.000281835 3.72909e-16)
(0.999413 -0.000534089 3.30647e-16)
(0.999276 -0.000827057 -4.00431e-16)
(0.999174 -0.00115012 -4.2099e-16)
(0.999116 -0.00150308 4.36201e-16)
(0.99911 -0.00190248 -4.71984e-16)
(0.999149 -0.00233113 -2.45306e-16)
(0.99929 -0.00288214 -3.87178e-16)
(0.999098 -0.00346863 5.46122e-16)
(1.00067 -0.00438622 -4.86447e-17)
(0.995742 -0.00698123 2.249e-17)
(0.999971 0.000220896 -1.70509e-17)
(0.999919 0.000142227 1.53436e-16)
(0.999838 4.79736e-05 6.96315e-17)
(0.999728 -9.17219e-05 1.70001e-16)
(0.999591 -0.000299553 4.6828e-17)
(0.99944 -0.000565653 -1.58571e-16)
(0.999311 -0.000868158 1.02765e-16)
(0.999218 -0.00119704 2.66988e-16)
(0.999169 -0.00155137 -4.18853e-16)
(0.999172 -0.00195059 -2.31714e-16)
(0.999214 -0.00237736 1.01027e-15)
(0.999372 -0.0029234 6.37303e-16)
(0.999119 -0.00355052 -2.91779e-16)
(1.00036 -0.00439481 5.99961e-16)
(0.996586 -0.00678348 -6.11903e-16)
(0.999961 0.000269399 1.83602e-17)
(0.999906 0.000173071 -9.48853e-17)
(0.999823 6.01945e-05 -1.86549e-16)
(0.999717 -9.95264e-05 -5.30128e-17)
(0.999585 -0.000327795 1.09624e-16)
(0.999438 -0.000612612 -1.09062e-16)
(0.999312 -0.000932873 1.48523e-16)
(0.999222 -0.0012794 1.31531e-16)
(0.999178 -0.0016493 2.91849e-16)
(0.99919 -0.00206248 -1.00591e-16)
(0.999237 -0.0025 2.90872e-18)
(0.999415 -0.00304778 -3.91209e-16)
(0.999152 -0.00370168 1.84528e-17)
(1.00007 -0.00447177 -4.75151e-16)
(0.997089 -0.00643961 7.70212e-17)
(0.99995 0.000317856 3.25692e-18)
(0.999891 0.000203673 -3.5616e-17)
(0.999808 7.16215e-05 -2.90526e-17)
(0.99971 -0.000106884 1.75998e-16)
(0.999588 -0.000350825 -2.20852e-16)
(0.999452 -0.000646827 2.76042e-16)
(0.999334 -0.000976184 -6.20724e-16)
(0.99925 -0.00133173 -3.70827e-16)
(0.999214 -0.00170845 -1.52044e-16)
(0.999236 -0.00212592 6.73602e-16)
(0.999287 -0.00256367 -7.71372e-16)
(0.99948 -0.0030983 2.99631e-16)
(0.999231 -0.00375634 4.59851e-16)
(0.999877 -0.00444564 -9.72087e-17)
(0.997434 -0.00604251 -1.25227e-16)
(0.999938 0.000366208 1.51229e-17)
(0.999875 0.000233777 3.23118e-17)
(0.999793 8.16545e-05 2.50563e-17)
(0.999702 -0.000115459 -1.51089e-16)
(0.999593 -0.000372372 3.29461e-16)
(0.999472 -0.00067493 -1.39886e-16)
(0.999366 -0.00100791 2.02034e-16)
(0.999292 -0.00136718 -1.46662e-16)
(0.999265 -0.00174611 3.98773e-16)
(0.999295 -0.00216378 1.78374e-16)
(0.999349 -0.00259916 2.45784e-16)
(0.999549 -0.00311846 -5.68158e-17)
(0.999326 -0.0037772 -5.08787e-16)
(0.999764 -0.00440547 1.15449e-15)
(0.997688 -0.00575475 1.93078e-16)
(0.999925 0.00041443 -1.12207e-17)
(0.999856 0.000263294 9.90324e-17)
(0.999772 8.97878e-05 1.50971e-16)
(0.999687 -0.00012734 1.12085e-16)
(0.999589 -0.000397889 -4.89561e-16)
(0.999482 -0.000707308 1.41268e-16)
(0.999388 -0.00104422 3.21498e-16)
(0.999325 -0.00140799 7.74611e-16)
(0.999307 -0.00179091 -3.866e-16)
(0.999346 -0.00221131 9.03762e-17)
(0.999402 -0.00264828 4.51044e-16)
(0.999606 -0.0031571 -3.25581e-16)
(0.999416 -0.00381685 -1.55369e-16)
(0.999707 -0.00440195 -3.86287e-16)
(0.997912 -0.00555141 8.68631e-17)
(0.999909 0.000462516 4.07025e-17)
(0.999835 0.0002924 -8.98068e-17)
(0.999748 9.66151e-05 8.86389e-18)
(0.999664 -0.000141927 -1.10346e-16)
(0.999573 -0.000427642 4.11402e-16)
(0.999478 -0.000745822 7.97852e-17)
(0.999397 -0.00108856 2.70923e-16)
(0.999345 -0.00145867 -5.74696e-16)
(0.999336 -0.00184777 4.17214e-17)
(0.999384 -0.00227319 -7.89689e-17)
(0.999445 -0.00271444 -1.40276e-16)
(0.999649 -0.00321549 4.43842e-17)
(0.999497 -0.00387183 5.97529e-16)
(0.99969 -0.00442002 -8.16129e-16)
(0.998134 -0.00538545 -2.78184e-16)
(0.999892 0.000510429 -2.62329e-17)
(0.999813 0.000321339 3.52772e-17)
(0.999721 0.000103117 -1.47702e-16)
(0.999635 -0.00015742 2.50344e-16)
(0.99955 -0.000459422 -3.62269e-16)
(0.999465 -0.0007881 -3.03771e-16)
(0.999396 -0.0011382 -3.39727e-16)
(0.999356 -0.00151557 3.92213e-17)
(0.999358 -0.00191131 -8.16837e-17)
(0.999416 -0.00234175 -4.26147e-16)
(0.999483 -0.00278709 -7.24512e-16)
(0.999688 -0.00327997 2.87571e-16)
(0.999572 -0.00392629 -3.3134e-16)
(0.999702 -0.00443879 9.20499e-16)
(0.998355 -0.00523863 5.54002e-17)
(0.999874 0.000558113 -2.45637e-17)
(0.999789 0.00035028 -1.04315e-16)
(0.999692 0.000110136 1.50919e-16)
(0.999604 -0.000172196 -2.34536e-16)
(0.999521 -0.000491137 7.70209e-17)
(0.999445 -0.000831884 4.5526e-16)
(0.999388 -0.00119077 5.55453e-17)
(0.999361 -0.00157593 -6.7563e-17)
(0.999374 -0.00197801 1.82174e-16)
(0.999444 -0.00241236 -1.57556e-16)
(0.999519 -0.00286016 -9.55552e-17)
(0.999724 -0.00334343 -6.71945e-17)
(0.999643 -0.00397391 -2.89812e-16)
(0.999733 -0.00445176 -6.30672e-16)
(0.998571 -0.00510657 1.27826e-17)
(0.999854 0.000605497 -2.17742e-18)
(0.999764 0.000379336 1.40608e-16)
(0.999664 0.000118278 -2.21791e-16)
(0.999573 -0.000184994 8.35468e-17)
(0.999491 -0.000521111 -9.37617e-17)
(0.999422 -0.000875283 -1.55134e-16)
(0.999376 -0.00124444 -3.90011e-17)
(0.999362 -0.00163798 3.66195e-16)
(0.999388 -0.00204607 -6.32517e-16)
(0.999471 -0.002483 4.22019e-16)
(0.999555 -0.00293129 2.21616e-16)
(0.999761 -0.00340335 1.8528e-16)
(0.99971 -0.00401342 7.56602e-16)
(0.999777 -0.00445766 7.4104e-16)
(0.998781 -0.00498504 5.64995e-16)
(0.999833 0.000652516 8.3063e-18)
(0.999739 0.000408553 5.29186e-17)
(0.999636 0.000127946 1.76283e-16)
(0.999542 -0.000194882 5.5865e-17)
(0.999461 -0.000547881 1.71002e-16)
(0.999398 -0.000916411 1.68479e-16)
(0.999363 -0.00129706 -1.18807e-17)
(0.999362 -0.00169955 4.94582e-17)
(0.999402 -0.00211336 9.41162e-16)
(0.999497 -0.00255167 -1.14399e-16)
(0.999593 -0.00299851 5.44992e-16)
(0.999799 -0.00345794 -7.43963e-16)
(0.999777 -0.00404419 1.38323e-16)
(0.999828 -0.00445593 -1.36508e-15)
(0.998981 -0.00487212 -6.34453e-16)
(0.99981 0.000699112 9.94348e-18)
(0.999713 0.000437923 -1.17776e-16)
(0.999609 0.000139294 1.54983e-16)
(0.999515 -0.000201339 -2.24486e-16)
(0.999434 -0.000570398 1.57174e-16)
(0.999377 -0.000953583 2.0773e-17)
(0.999351 -0.00134643 1.95585e-16)
(0.999363 -0.00175813 -2.60859e-16)
(0.999416 -0.00217732 -8.42169e-16)
(0.999526 -0.00261595 2.50353e-16)
(0.999633 -0.00305967 -5.6315e-16)
(0.999841 -0.00350544 1.13575e-16)
(0.999842 -0.00406579 -4.94997e-16)
(0.999886 -0.0044465 2.69688e-16)
(0.99917 -0.00476752 -1.11612e-16)
(0.999785 0.000745247 3.32507e-17)
(0.999686 0.000467366 7.19437e-17)
(0.999584 0.000152219 -3.59403e-16)
(0.99949 -0.000204366 2.88872e-16)
(0.999412 -0.000588296 -2.80557e-16)
(0.99936 -0.000985897 -3.7392e-16)
(0.999344 -0.00139105 -3.8405e-16)
(0.999368 -0.00181189 3.38712e-16)
(0.999435 -0.00223603 7.21572e-16)
(0.999557 -0.00267417 1.63739e-16)
(0.999677 -0.00311356 9.52102e-17)
(0.999886 -0.00354532 7.056e-17)
(0.999909 -0.00407908 -7.40117e-16)
(0.999948 -0.00443112 6.53583e-17)
(0.999345 -0.00467315 6.50344e-16)
(0.999759 0.000790906 -8.96926e-17)
(0.999659 0.000496774 -9.24704e-17)
(0.999558 0.000166378 3.43293e-17)
(0.999467 -0.000204472 -2.64786e-16)
(0.999393 -0.000601997 -1.80004e-17)
(0.999347 -0.00101341 4.82868e-16)
(0.999341 -0.00143058 5.52334e-17)
(0.999377 -0.00186018 3.05083e-16)
(0.999457 -0.00228877 -6.05132e-16)
(0.999592 -0.00272581 -3.11028e-16)
(0.999723 -0.00316022 4.46978e-16)
(0.999935 -0.00357837 -1.50095e-16)
(0.999975 -0.00408625 4.88431e-16)
(1.00001 -0.00441278 7.60824e-16)
(0.999504 -0.00459141 -6.14677e-17)
(0.999731 0.000836107 2.80987e-17)
(0.99963 0.000526014 1.14847e-17)
(0.999533 0.000181293 1.15762e-16)
(0.999446 -0.000202521 2.26468e-18)
(0.999378 -0.000612526 9.90735e-17)
(0.999339 -0.00103708 -2.90363e-16)
(0.999342 -0.0014658 5.99961e-16)
(0.999391 -0.0019037 -1.53994e-16)
(0.999483 -0.00233625 6.54931e-16)
(0.999629 -0.00277188 -3.42833e-16)
(0.999772 -0.00320122 -5.46386e-16)
(0.999986 -0.00360688 5.28126e-16)
(1.00004 -0.00409072 -8.92984e-16)
(1.00008 -0.00439562 -1.32198e-15)
(0.999647 -0.00452532 -3.38395e-16)
(0.999701 0.000880896 3.12853e-18)
(0.9996 0.000554968 1.9514e-17)
(0.999506 0.000196407 -3.12526e-17)
(0.999425 -0.000199598 1.58926e-16)
(0.999363 -0.000621342 1.09048e-16)
(0.999333 -0.00105851 -4.27773e-17)
(0.999346 -0.00149847 -3.61642e-16)
(0.999406 -0.00194438 -3.48747e-16)
(0.99951 -0.0023807 -2.35837e-16)
(0.999668 -0.00281497 4.34858e-16)
(0.999822 -0.00323964 3.37262e-16)
(1.00004 -0.00363449 -4.96606e-16)
(1.00011 -0.00409683 1.10621e-15)
(1.00015 -0.00438405 1.3929e-15)
(0.999775 -0.00447689 4.75823e-17)
(0.99967 0.000925343 3.57742e-17)
(0.999567 0.000583544 -4.76357e-17)
(0.999476 0.000211209 2.29713e-16)
(0.999402 -0.000196777 -4.57701e-17)
(0.999349 -0.000629967 -1.74753e-16)
(0.999326 -0.00107952 7.41153e-17)
(0.999349 -0.00153075 -1.30078e-16)
(0.999421 -0.00198486 2.94448e-16)
(0.999537 -0.00242527 7.7438e-17)
(0.999706 -0.00285873 5.41692e-17)
(0.99987 -0.00327959 -2.58666e-16)
(1.00009 -0.00366554 3.43862e-16)
(1.00017 -0.00410893 1.75764e-16)
(1.00022 -0.00438165 1.57815e-16)
(0.999892 -0.00444625 4.04076e-16)
(0.999637 0.000969534 -1.8391e-17)
(0.999531 0.000611701 2.7269e-17)
(0.999443 0.000225273 -3.72366e-16)
(0.999376 -0.000194991 -2.38327e-16)
(0.999331 -0.000639736 3.29982e-16)
(0.999317 -0.00110169 -8.93686e-17)
(0.99935 -0.0015645 5.22239e-16)
(0.999433 -0.00202745 -1.41846e-16)
(0.99956 -0.00247286 -7.53685e-18)
(0.999739 -0.00290657 -1.50628e-16)
(0.999915 -0.00332473 3.87143e-16)
(1.00014 -0.00370346 -2.44383e-16)
(1.00023 -0.00412979 -8.05524e-16)
(1.00028 -0.00438965 -1.92619e-16)
(1 -0.00443067 -4.61424e-16)
(0.999602 0.00101356 2.47575e-17)
(0.999493 0.000639435 1.12664e-16)
(0.999407 0.000238345 3.35622e-16)
(0.999346 -0.000194845 2.60577e-16)
(0.99931 -0.000651472 -3.21337e-17)
(0.999305 -0.00112585 -1.30583e-16)
(0.999348 -0.00160054 -5.78148e-16)
(0.999441 -0.00207309 -6.72446e-17)
(0.999579 -0.00252468 -3.43707e-16)
(0.999769 -0.00295997 1.11393e-16)
(0.999955 -0.00337653 -7.09644e-16)
(1.00018 -0.00374923 3.42821e-16)
(1.00029 -0.00415947 1.16052e-15)
(1.00035 -0.00440659 -8.98883e-16)
(1.00011 -0.00442618 5.37803e-16)
(0.999566 0.0010575 -1.99631e-17)
(0.999452 0.000666786 -1.58524e-16)
(0.999366 0.000250302 -1.92087e-16)
(0.999312 -0.000196674 -9.58406e-17)
(0.999284 -0.000665585 -6.14035e-17)
(0.99929 -0.00115223 8.43316e-17)
(0.999342 -0.00163866 -3.2307e-17)
(0.999445 -0.00212118 -4.43927e-16)
(0.999594 -0.0025799 -1.3073e-16)
(0.999794 -0.00301794 -3.29317e-17)
(0.999991 -0.00343377 6.45951e-16)
(1.00022 -0.00380114 1.08201e-16)
(1.00035 -0.00419563 -9.64893e-16)
(1.00042 -0.00442945 5.14359e-16)
(1.00021 -0.00442871 -1.04066e-16)
(0.999529 0.00110143 1.80335e-17)
(0.999409 0.000693805 9.32088e-17)
(0.999322 0.000261139 9.24546e-17)
(0.999273 -0.000200603 1.79871e-16)
(0.999255 -0.000682247 -9.80372e-17)
(0.999271 -0.00118079 -2.75875e-17)
(0.999333 -0.00167828 1.99395e-16)
(0.999447 -0.00217043 2.98075e-16)
(0.999606 -0.00263658 -2.14993e-17)
(0.999816 -0.00307809 -3.60281e-16)
(1.00003 -0.00349381 -2.77197e-16)
(1.00027 -0.00385634 -4.8798e-16)
(1.00041 -0.00423549 2.05101e-17)
(1.00049 -0.00445586 2.66343e-16)
(1.00031 -0.00443671 -1.62671e-16)
(0.99949 0.00114539 -9.64234e-18)
(0.999364 0.000720552 -5.51598e-17)
(0.999275 0.000270885 1.40416e-16)
(0.999229 -0.000206738 1.4736e-17)
(0.99922 -0.00070179 -1.24805e-16)
(0.999248 -0.00121195 1.00679e-16)
(0.999322 -0.00171958 -4.81113e-17)
(0.999447 -0.00222044 2.74849e-16)
(0.999617 -0.00269362 5.08078e-16)
(0.999837 -0.0031388 7.89472e-17)
(1.00006 -0.00355478 2.39233e-16)
(1.00031 -0.00391306 2.43838e-16)
(1.00046 -0.00427776 6.03307e-17)
(1.00057 -0.00448537 -5.48089e-16)
(1.00041 -0.0044493 1.34094e-16)
(0.99945 0.00118941 1.29162e-17)
(0.999317 0.000747082 1.16175e-17)
(0.999224 0.00027961 -2.86868e-16)
(0.999181 -0.000215175 -1.25368e-16)
(0.999181 -0.000724751 1.76328e-16)
(0.99922 -0.00124683 -2.75346e-17)
(0.999307 -0.00176402 1.84235e-16)
(0.999444 -0.00227265 -2.44794e-16)
(0.999625 -0.00275217 1.39626e-16)
(0.999855 -0.00320084 1.16191e-16)
(1.00009 -0.0036173 1.22777e-16)
(1.00034 -0.00397197 1.56434e-16)
(1.00052 -0.00432335 2.17982e-16)
(1.00064 -0.00451926 3.08048e-17)
(1.00051 -0.00446718 7.88735e-17)
(0.999409 0.0012335 -3.97401e-17)
(0.999267 0.000773471 1.05208e-16)
(0.999171 0.000287449 1.6472e-16)
(0.999129 -0.000225893 -1.05481e-16)
(0.999134 -0.000751618 -6.85998e-17)
(0.999185 -0.00128679 3.90608e-17)
(0.999284 -0.00181387 -2.00706e-16)
(0.999435 -0.00232992 -1.31391e-16)
(0.999628 -0.00281521 -1.72655e-16)
(0.99987 -0.00326704 2.74612e-16)
(1.00011 -0.00368383 -3.81306e-16)
(1.00038 -0.00403517 2.98255e-16)
(1.00057 -0.00437384 1.46422e-16)
(1.00071 -0.00455822 5.50274e-16)
(1.00061 -0.00448832 -5.07943e-16)
(0.999366 0.00127766 1.67688e-17)
(0.999217 0.000799805 -7.91884e-17)
(0.999114 0.000294663 5.80075e-17)
(0.999071 -0.000238541 1.28344e-16)
(0.999081 -0.000782302 -8.90173e-17)
(0.99914 -0.00133248 -1.50497e-16)
(0.999253 -0.00187083 -7.12801e-17)
(0.999417 -0.00239484 9.82688e-17)
(0.999624 -0.00288577 -4.49753e-16)
(0.999879 -0.00334031 6.6417e-17)
(1.00014 -0.00375681 2.53381e-16)
(1.00042 -0.00410417 -7.09127e-16)
(1.00062 -0.00442951 1.43527e-16)
(1.00079 -0.00460097 2.20851e-17)
(1.00071 -0.00450906 3.74523e-16)
(0.999322 0.00132185 -6.37504e-18)
(0.999165 0.000826196 9.70555e-17)
(0.999056 0.000301667 -9.38093e-17)
(0.999009 -0.000252285 -5.82494e-17)
(0.999021 -0.000815694 -9.29479e-17)
(0.999089 -0.00138293 -4.91767e-17)
(0.999212 -0.00193445 -1.06062e-16)
(0.99939 -0.0024676 7.57525e-17)
(0.999613 -0.00296439 2.9131e-17)
(0.999882 -0.00342105 -3.11651e-16)
(1.00016 -0.00383596 -3.72129e-16)
(1.00045 -0.00417764 4.13362e-16)
(1.00068 -0.00448772 -3.61645e-16)
(1.00086 -0.00464345 -1.15606e-16)
(1.00083 -0.00452516 -1.14671e-17)
(0.999278 0.00136605 -1.92903e-17)
(0.999113 0.000852732 -4.48351e-17)
(0.998997 0.000308956 3.16824e-17)
(0.998947 -0.000265917 2.25856e-16)
(0.998959 -0.000849735 3.77329e-16)
(0.999032 -0.00143541 3.08163e-16)
(0.999166 -0.00200173 3.36825e-16)
(0.999359 -0.0025452 -2.14976e-16)
(0.999596 -0.0030481 5.34479e-20)
(0.999882 -0.00350613 2.33425e-16)
(1.00017 -0.00391773 4.59973e-17)
(1.00048 -0.00425138 2.54026e-16)
(1.00073 -0.00454377 2.04584e-16)
(1.00094 -0.00468093 -5.38156e-16)
(1.00094 -0.00453358 -3.56125e-16)
(0.999232 0.00141018 9.9251e-18)
(0.99906 0.000879464 -8.10363e-17)
(0.998939 0.000316973 -1.62173e-16)
(0.998886 -0.000278167 -1.59256e-16)
(0.998899 -0.000881948 1.46478e-17)
(0.998977 -0.00148614 -1.73986e-16)
(0.999121 -0.0020678 -3.78976e-16)
(0.999326 -0.00262213 2.8938e-16)
(0.99958 -0.00313108 2.35464e-16)
(0.999883 -0.00358964 -5.19538e-16)
(1.00019 -0.00399625 4.26557e-16)
(1.00052 -0.00431977 -3.11362e-16)
(1.00078 -0.00459278 -1.43844e-16)
(1.00101 -0.00471 -1.26277e-16)
(1.00106 -0.00453435 1.51707e-16)
(0.999185 0.00145416 3.77808e-17)
(0.999008 0.000906347 1.73882e-17)
(0.998883 0.000325947 8.77139e-17)
(0.99883 -0.000288159 4.07631e-17)
(0.998844 -0.000910361 4.7981e-17)
(0.998928 -0.00153175 3.00925e-16)
(0.999081 -0.00212793 -1.36029e-16)
(0.9993 -0.00269264 1.48703e-16)
(0.999569 -0.00320718 8.54187e-17)
(0.999888 -0.00366555 5.95595e-17)
(1.00022 -0.00406616 1.98627e-16)
(1.00056 -0.00437864 -4.24019e-17)
(1.00084 -0.00463234 9.44449e-18)
(1.00109 -0.00473065 8.80756e-16)
(1.00118 -0.00453092 2.82217e-18)
(0.999138 0.00149788 -3.66717e-17)
(0.998956 0.000933262 -1.26718e-17)
(0.99883 0.000335795 5.7347e-17)
(0.998777 -0.000295748 -1.74927e-16)
(0.998797 -0.000934275 -2.8031e-16)
(0.998888 -0.00157061 -2.68689e-16)
(0.99905 -0.00217943 2.27752e-16)
(0.999281 -0.00275324 -8.33325e-17)
(0.999566 -0.00327262 9.72241e-18)
(0.999901 -0.00373048 -5.04177e-18)
(1.00025 -0.00412516 -2.74356e-16)
(1.0006 -0.0044273 -2.48286e-16)
(1.00091 -0.0046637 -1.60459e-16)
(1.00117 -0.00474625 2.44509e-17)
(1.00129 -0.00452822 -5.55665e-17)
(0.999089 0.00154124 -1.83076e-17)
(0.998904 0.000960025 4.84789e-17)
(0.998778 0.000346159 4.77188e-17)
(0.998729 -0.000301568 7.7693e-17)
(0.998755 -0.000954535 1.06313e-16)
(0.998855 -0.00160352 1.68096e-18)
(0.999028 -0.00222283 2.27651e-16)
(0.999272 -0.00280417 -5.07837e-16)
(0.99957 -0.00332767 2.59092e-16)
(0.99992 -0.00378525 2.64409e-16)
(1.00028 -0.00417508 -3.78603e-16)
(1.00065 -0.0044689 7.08005e-16)
(1.00097 -0.00469124 3.73515e-16)
(1.00125 -0.00476204 -6.9868e-16)
(1.0014 -0.00453089 -2.09521e-16)
(0.999039 0.00158417 3.78589e-17)
(0.998852 0.000986453 2.94119e-17)
(0.998727 0.000356521 4.59278e-18)
(0.998682 -0.000306796 -3.48283e-17)
(0.998715 -0.000973205 2.02106e-17)
(0.998825 -0.00163339 2.85299e-16)
(0.999011 -0.0022616 -4.60095e-17)
(0.999267 -0.00284929 3.25899e-16)
(0.999579 -0.00337654 -4.8252e-17)
(0.999941 -0.00383449 -2.9247e-16)
(1.00032 -0.00422109 6.05713e-16)
(1.0007 -0.00450904 -3.63983e-16)
(1.00103 -0.0047205 -4.93836e-16)
(1.00133 -0.00478274 2.09548e-16)
(1.0015 -0.00454105 3.53102e-16)
(0.998987 0.00162663 -3.14827e-17)
(0.9988 0.00101241 -1.32797e-17)
(0.998675 0.00036642 -1.73246e-16)
(0.998633 -0.000312653 -8.4705e-17)
(0.998674 -0.000992688 5.21874e-17)
(0.998795 -0.00166397 -2.88021e-16)
(0.998992 -0.00230067 -8.47039e-17)
(0.999262 -0.00289433 2.84034e-16)
(0.999587 -0.00342541 -2.40339e-16)
(0.999962 -0.00388451 7.05262e-17)
(1.00035 -0.0042693 -3.37293e-16)
(1.00074 -0.00455321 1.0626e-17)
(1.00109 -0.00475567 2.67302e-16)
(1.00141 -0.00481058 1.41188e-16)
(1.0016 -0.00455791 -5.54511e-17)
(0.998934 0.00166859 3.00337e-17)
(0.998745 0.00103783 -9.74958e-17)
(0.99862 0.000375586 8.18811e-17)
(0.998581 -0.000319963 5.36172e-17)
(0.998627 -0.00101481 -4.04454e-17)
(0.998758 -0.00169839 -1.73007e-16)
(0.998968 -0.00234442 5.24793e-17)
(0.999251 -0.00294458 -1.30223e-16)
(0.99959 -0.00347991 -2.19677e-16)
(0.999979 -0.00394072 -2.74749e-17)
(1.00038 -0.0043243 -4.87461e-16)
(1.00079 -0.00460462 4.99537e-16)
(1.00115 -0.00479807 3.89106e-17)
(1.00149 -0.00484461 -8.06017e-17)
(1.00171 -0.00457831 -7.90368e-18)
(0.99888 0.00171005 -3.68374e-17)
(0.998688 0.00106274 1.00365e-16)
(0.998562 0.000384051 -2.30667e-17)
(0.998524 -0.000328813 -2.10224e-16)
(0.998574 -0.00104008 -1.00212e-16)
(0.998713 -0.00173788 1.16466e-16)
(0.998935 -0.00239494 -1.70968e-16)
(0.999232 -0.0030027 -1.91594e-16)
(0.999587 -0.0035428 3.2623e-16)
(0.99999 -0.00400536 1.13588e-16)
(1.00041 -0.00438727 5.11504e-16)
(1.00083 -0.00466295 -3.85233e-16)
(1.00121 -0.00484578 1.38737e-16)
(1.00156 -0.00488142 -1.56801e-16)
(1.00181 -0.00459873 5.26874e-18)
(0.998824 0.00175104 2.28003e-17)
(0.99863 0.00108717 -5.80794e-17)
(0.998502 0.000392059 7.21796e-17)
(0.998463 -0.000338601 3.13235e-16)
(0.998515 -0.00106757 1.32988e-16)
(0.998662 -0.00178144 8.25428e-17)
(0.998895 -0.00245133 3.3959e-16)
(0.999207 -0.00306792 1.61457e-16)
(0.999577 -0.00361317 -2.66067e-16)
(0.999996 -0.004077 4.53652e-16)
(1.00043 -0.00445592 2.52518e-16)
(1.00087 -0.00472495 -2.14e-16)
(1.00127 -0.00489487 -4.10233e-16)
(1.00164 -0.00491691 -1.60024e-16)
(1.00192 -0.00461691 6.22625e-17)
(0.998765 0.00179156 4.68148e-18)
(0.99857 0.00111116 -1.23739e-16)
(0.99844 0.000399951 -9.18744e-17)
(0.9984 -0.000348286 -2.1568e-16)
(0.998455 -0.00109531 3.46603e-17)
(0.998607 -0.00182624 -3.35214e-16)
(0.998851 -0.00251018 -3.60536e-16)
(0.999177 -0.00313646 -1.45091e-16)
(0.999564 -0.00368693 3.09264e-16)
(1 -0.00415126 -3.28722e-16)
(1.00045 -0.00452563 1.16353e-16)
(1.00091 -0.00478597 2.16578e-16)
(1.00133 -0.00494121 3.29506e-16)
(1.00172 -0.00494817 2.01848e-16)
(1.00203 -0.00463309 1.72738e-17)
(0.998705 0.0018316 3.29073e-17)
(0.998507 0.00113466 2.02241e-16)
(0.998378 0.000407927 9.4172e-17)
(0.998339 -0.000356906 1.81063e-16)
(0.998397 -0.00112115 1.08535e-16)
(0.998555 -0.00186885 4.57803e-17)
(0.998809 -0.00256703 5.28303e-17)
(0.999149 -0.00320324 -1.21437e-16)
(0.999553 -0.00375876 -1.23208e-16)
(1.00001 -0.00422291 1.44481e-17)
(1.00048 -0.00459169 -7.95027e-16)
(1.00095 -0.00484223 -3.10923e-16)
(1.00139 -0.00498258 3.27665e-16)
(1.0018 -0.004975 -7.33555e-17)
(1.00213 -0.00465018 -2.04744e-16)
(0.998643 0.00187115 -4.42291e-17)
(0.998443 0.00115756 -1.29601e-16)
(0.998316 0.000415947 -1.86218e-16)
(0.998281 -0.000363953 6.12038e-17)
(0.998344 -0.00114355 -2.0592e-16)
(0.998509 -0.00190648 3.83816e-17)
(0.998774 -0.00261801 -4.75209e-17)
(0.999128 -0.00326375 -8.67707e-18)
(0.999548 -0.00382413 -1.47231e-16)
(1.00002 -0.00428795 -7.72513e-17)
(1.00051 -0.00465114 2.73802e-17)
(1.001 -0.00489238 2.70035e-16)
(1.00145 -0.00501955 -1.36396e-16)
(1.00187 -0.00500013 2.70314e-16)
(1.00223 -0.00467302 9.62856e-17)
(0.998578 0.00191021 2.36392e-17)
(0.998377 0.00117965 1.24159e-16)
(0.998254 0.00042362 2.36586e-16)
(0.998227 -0.000369735 -6.83926e-17)
(0.998297 -0.0011623 -1.66023e-17)
(0.998472 -0.00193815 2.51474e-16)
(0.998747 -0.00266141 2.1393e-16)
(0.999113 -0.00331594 -1.46649e-16)
(0.999549 -0.00388117 3.93111e-16)
(1.00004 -0.00434532 3.56886e-16)
(1.00054 -0.00470428 3.79851e-16)
(1.00105 -0.00493834 -1.7562e-17)
(1.00152 -0.00505573 -3.02402e-16)
(1.00195 -0.00502857 -3.1883e-16)
(1.00231 -0.0047068 -3.09683e-17)
(0.998511 0.00194879 -2.02563e-17)
(0.998309 0.00120071 -6.55655e-17)
(0.998191 0.000430314 -1.96094e-16)
(0.998174 -0.000375297 1.26253e-16)
(0.998255 -0.00117865 1.21198e-16)
(0.998441 -0.00196501 -1.68371e-16)
(0.998727 -0.00269822 -8.5044e-17)
(0.999106 -0.00336083 8.41944e-18)
(0.999555 -0.00393131 -1.74713e-16)
(1.00006 -0.00439726 -3.05792e-16)
(1.00058 -0.00475446 -5.6476e-16)
(1.0011 -0.00498467 6.10815e-17)
(1.00158 -0.00509652 3.69241e-16)
(1.00203 -0.005066 3.3562e-16)
(1.00239 -0.00475537 -7.11636e-17)
(0.998441 0.00198694 -1.61198e-17)
(0.998237 0.00122057 -1.31888e-17)
(0.998125 0.000435251 1.71604e-16)
(0.99812 -0.000382296 -1.61983e-16)
(0.998214 -0.00119515 -3.20239e-16)
(0.998412 -0.0019903 1.55487e-16)
(0.998711 -0.00273215 8.82722e-17)
(0.999101 -0.0034025 4.08969e-16)
(0.999562 -0.00397911 5.85067e-17)
(1.00008 -0.00444888 2.84737e-16)
(1.00061 -0.00480737 8.46326e-16)
(1.00115 -0.00503741 -2.32504e-16)
(1.00164 -0.00514766 -9.88901e-17)
(1.0021 -0.00511714 -1.17121e-17)
(1.00245 -0.00481983 -2.83501e-17)
(0.998368 0.00202475 4.50825e-17)
(0.998161 0.00123916 4.92767e-17)
(0.998054 0.000437754 -1.47591e-16)
(0.99806 -0.000392511 1.37163e-16)
(0.998169 -0.00121489 -9.23626e-17)
(0.998381 -0.00201834 -2.97495e-16)
(0.998692 -0.00276841 1.30799e-17)
(0.999094 -0.00344678 -3.51772e-17)
(0.999567 -0.00403078 -2.16994e-16)
(1.00009 -0.00450658 1.83059e-16)
(1.00064 -0.00486929 -7.90036e-16)
(1.00119 -0.00510225 -1.44006e-17)
(1.0017 -0.0052136 -1.76668e-16)
(1.00217 -0.00518455 3.31359e-17)
(1.00251 -0.00489871 -8.39892e-17)
(0.998293 0.00206234 -1.15041e-17)
(0.99808 0.00125655 -1.17403e-17)
(0.997976 0.0004374 2.0422e-17)
(0.997992 -0.000407453 -1.52535e-16)
(0.998114 -0.00124086 -2.74063e-17)
(0.99834 -0.00205355 3.63262e-16)
(0.998664 -0.00281257 -2.64876e-16)
(0.999078 -0.0034999 -3.28253e-16)
(0.999563 -0.00409268 3.51696e-16)
(1.0001 -0.00457638 -3.18422e-16)
(1.00066 -0.00494537 4.0341e-16)
(1.00122 -0.005183 3.82208e-16)
(1.00175 -0.00529615 2.75896e-16)
(1.00224 -0.00526766 -1.84271e-16)
(1.00257 -0.00498735 -6.33201e-17)
(0.998216 0.00209988 -1.24072e-17)
(0.997995 0.00127301 -7.20485e-17)
(0.99789 0.000434176 -9.7067e-17)
(0.997912 -0.000427943 7.12678e-17)
(0.998045 -0.00127511 1.80692e-16)
(0.998284 -0.00209931 6.34172e-17)
(0.998621 -0.002869 2.46179e-16)
(0.999049 -0.00356667 5.38231e-17)
(0.999546 -0.0041695 -4.62425e-16)
(1.0001 -0.00466224 1.61959e-16)
(1.00067 -0.00503832 -2.29151e-16)
(1.00125 -0.0052806 -1.90576e-16)
(1.0018 -0.0053942 -2.57272e-16)
(1.00231 -0.00536322 4.08177e-17)
(1.00264 -0.00507986 1.52919e-16)
(0.998137 0.00213749 -1.90445e-17)
(0.997907 0.00128888 3.43174e-17)
(0.997797 0.000428502 4.14468e-17)
(0.99782 -0.000453909 -1.42859e-16)
(0.997961 -0.00131831 6.97411e-17)
(0.998212 -0.00215715 -2.11716e-16)
(0.998562 -0.00293988 -2.59408e-17)
(0.999004 -0.00364946 3.18761e-16)
(0.999517 -0.0042632 -2.03472e-16)
(1.00008 -0.00476511 -2.69134e-16)
(1.00068 -0.00514758 2.31406e-16)
(1.00127 -0.00539274 -6.87818e-17)
(1.00184 -0.00550363 -7.29138e-16)
(1.00238 -0.0054656 7.4688e-17)
(1.00272 -0.00516907 1.1002e-16)
(0.998057 0.00217531 -9.80291e-18)
(0.997815 0.00130462 3.34761e-17)
(0.997696 0.000421158 1.26131e-17)
(0.997718 -0.000484421 1.90363e-17)
(0.997863 -0.00136965 1.20377e-16)
(0.998123 -0.00222654 6.69155e-17)
(0.998487 -0.00302488 -2.20526e-16)
(0.998944 -0.0037478 -2.01334e-17)
(0.999475 -0.00437271 6.09448e-16)
(1.00006 -0.00488294 -1.95638e-16)
(1.00068 -0.00526982 -5.7542e-18)
(1.00129 -0.00551477 2.90125e-17)
(1.00189 -0.00561874 2.80305e-17)
(1.00245 -0.00556854 -5.17089e-17)
(1.00281 -0.00524949 1.73678e-17)
(0.997976 0.00221342 2.58323e-17)
(0.997722 0.00132067 -6.82869e-17)
(0.997592 0.000413168 -7.80509e-17)
(0.997607 -0.00051782 1.41976e-19)
(0.997753 -0.00142697 -1.81785e-16)
(0.998022 -0.00230497 -2.90475e-17)
(0.998399 -0.00312114 4.28082e-17)
(0.998874 -0.00385839 -4.85096e-17)
(0.999424 -0.00449409 -4.12667e-16)
(1.00003 -0.00501094 5.49918e-16)
(1.00067 -0.00539936 -3.14133e-17)
(1.00131 -0.0056403 -5.7604e-17)
(1.00193 -0.00573291 3.40312e-16)
(1.00253 -0.00566583 -3.83178e-16)
(1.00291 -0.0053166 8.15611e-18)
(0.997895 0.00225182 2.74091e-18)
(0.997628 0.00133737 8.19233e-17)
(0.997485 0.000405574 2.20297e-16)
(0.997493 -0.000552126 -5.55945e-17)
(0.997637 -0.00148732 1.1815e-16)
(0.997913 -0.00238866 -1.83711e-16)
(0.998304 -0.00322422 -2.20136e-16)
(0.998797 -0.0039762 5.29827e-18)
(0.999369 -0.00462174 2.40308e-16)
(1 -0.00514305 -4.80012e-16)
(1.00067 -0.00552986 1.197e-16)
(1.00134 -0.00576301 -2.08314e-17)
(1.00198 -0.00584044 2.62938e-16)
(1.00261 -0.00575297 8.15652e-17)
(1.00302 -0.0053691 -1.28084e-16)
(0.997813 0.00229046 1.05325e-18)
(0.997534 0.00135495 -8.89161e-17)
(0.99738 0.000399311 -1.25739e-16)
(0.997378 -0.000585299 2.08133e-17)
(0.997521 -0.00154739 -2.19523e-17)
(0.997802 -0.00247312 1.6675e-16)
(0.998207 -0.00332871 3.61418e-16)
(0.99872 -0.00409517 -3.208e-16)
(0.999316 -0.00474925 3.65171e-16)
(0.999975 -0.00527275 3.22971e-17)
(1.00067 -0.00565503 7.1776e-17)
(1.00136 -0.00587734 -1.38809e-16)
(1.00204 -0.00593698 2.68598e-16)
(1.00269 -0.00582729 1.52815e-16)
(1.00314 -0.00540738 2.01221e-16)
(0.997731 0.00232921 -8.61443e-18)
(0.997442 0.00137344 8.48181e-17)
(0.997277 0.000394996 1.5488e-16)
(0.997268 -0.000615698 5.35386e-17)
(0.997408 -0.0016043 1.56703e-16)
(0.997696 -0.00255429 1.20413e-16)
(0.998115 -0.00342962 -3.24624e-16)
(0.998647 -0.00420977 6.50757e-16)
(0.999268 -0.00487097 -2.04814e-16)
(0.999954 -0.0053947 -6.82036e-17)
(1.00067 -0.00577027 -2.47098e-16)
(1.0014 -0.00597979 -1.08681e-16)
(1.00209 -0.00602058 -2.98937e-16)
(1.00277 -0.00588866 -1.10577e-16)
(1.00327 -0.0054346 4.83995e-17)
(0.997648 0.00236791 -3.0592e-17)
(0.997351 0.00139273 -9.07062e-17)
(0.997179 0.000392899 -1.08618e-17)
(0.997164 -0.000642225 1.06518e-16)
(0.997304 -0.00165584 -1.42612e-16)
(0.997599 -0.00262888 -1.04783e-16)
(0.998032 -0.00352289 4.0624e-16)
(0.998584 -0.0043156 -1.21394e-16)
(0.999229 -0.0049826 -5.19038e-16)
(0.999942 -0.00550519 7.14897e-17)
(1.00069 -0.00587287 -1.25473e-16)
(1.00144 -0.006069 2.32477e-16)
(1.00216 -0.00609143 3.73222e-16)
(1.00286 -0.00593889 3.33776e-16)
(1.0034 -0.00545488 -2.82069e-16)
(0.997564 0.00240636 1.83499e-18)
(0.997263 0.00141251 -1.74955e-17)
(0.997086 0.000392873 -7.24752e-17)
(0.997069 -0.000664546 4.52034e-17)
(0.997211 -0.00170097 -7.90793e-17)
(0.997514 -0.00269513 1.34954e-16)
(0.997961 -0.00360623 -1.16739e-16)
(0.998533 -0.00441025 4.00891e-17)
(0.999201 -0.00508208 -1.08798e-16)
(0.999939 -0.00560291 2.77023e-16)
(1.00071 -0.0059626 3.39308e-16)
(1.00148 -0.006146 1.96389e-18)