1.45 	0 	0 	-0.00791077 	-0.00257993 	3.80474e-21
2.35 	0 	0 	0.0617784 	-0.00664592 	2.31678e-21
