1.45 	0 	0 	-0.306593
2.35 	0 	0 	-0.105648
