1.45 	0 	0 	-0.00241162 	-0.0030363 	3.9704e-21
2.35 	0 	0 	0.0817036 	-0.00732484 	2.34751e-21
