/*--------------------------------*- C++ -*----------------------------------*\
  =========                 |
  \\      /  F ield         | OpenFOAM: The Open Source CFD Toolbox
   \\    /   O peration     | Website:  https://openfoam.org
    \\  /    A nd           | Version:  6.0
     \\/     M anipulation  |
\*---------------------------------------------------------------------------*/
FoamFile
{
    version     2.0;
    format      ascii;
    class       volVectorField;
    location    "10";
    object      U;
}
// * * * * * * * * * * * * * * * * * * * * * * * * * * * * * * * * * * * * * //

dimensions      [0 1 -1 0 0 0 0];

internalField   nonuniform List<vector> 
47000
(
(1.00001 7.96443e-05 1.33447e-20)
(1 0.000215065 3.03405e-20)
(0.999976 0.000316251 -2.76226e-19)
(0.999932 0.000362069 -6.12337e-19)
(0.999871 0.000337958 5.39286e-19)
(0.999797 0.000248009 -3.97993e-19)
(0.999719 0.000111027 1.77963e-18)
(0.999643 -4.63519e-05 4.60819e-20)
(0.999572 -0.00019768 3.26893e-19)
(0.999505 -0.000328142 -2.81252e-18)
(0.999436 -0.000436044 1.9224e-18)
(0.999359 -0.000532752 7.01962e-19)
(0.999269 -0.000636776 1.13035e-18)
(0.999165 -0.000766683 1.49118e-18)
(0.999051 -0.000937336 -1.51926e-18)
(0.998934 -0.001155 -8.37987e-19)
(0.998823 -0.00142029 -9.66407e-20)
(0.998726 -0.00172723 -1.17604e-18)
(0.998651 -0.00206905 -2.29402e-19)
(0.998602 -0.00243767 -3.38143e-19)
(0.99858 -0.00282939 -2.67201e-18)
(0.998586 -0.00324377 -1.0845e-18)
(0.998618 -0.00368819 -1.18334e-18)
(0.998671 -0.00417777 -1.62931e-19)
(0.998745 -0.00474258 8.25681e-19)
(0.998828 -0.00542887 -3.07942e-19)
(0.998951 -0.00634952 8.25388e-19)
(0.99892 -0.00762075 -5.56869e-19)
(0.999599 -0.00951591 1.26338e-19)
(0.992655 -0.0157624 -1.19589e-19)
(1.00006 0.000272234 -3.0022e-20)
(1.00001 0.000418756 -1.04779e-19)
(0.999924 0.000462013 -1.78778e-21)
(0.999803 0.000381785 7.71892e-19)
(0.999668 0.000183256 -4.51224e-19)
(0.999534 -8.9181e-05 1.36981e-18)
(0.999417 -0.00037381 -1.16317e-18)
(0.999322 -0.000616268 3.23283e-19)
(0.999239 -0.000782364 -2.08325e-18)
(0.999156 -0.000875868 -1.15398e-19)
(0.999054 -0.000926307 -4.04312e-19)
(0.998924 -0.000981333 6.69572e-19)
(0.998758 -0.00108822 -1.5586e-18)
(0.998568 -0.00128187 7.83989e-20)
(0.998366 -0.00157987 6.36125e-19)
(0.998173 -0.00197932 -1.98583e-19)
(0.998005 -0.0024651 1.26855e-18)
(0.997878 -0.00301252 -7.45125e-19)
(0.997803 -0.00359764 -2.10478e-18)
(0.997784 -0.00419734 2.7504e-18)
(0.99782 -0.00479675 1.15572e-18)
(0.997909 -0.00538701 3.14316e-19)
(0.998045 -0.00596905 8.63134e-19)
(0.99822 -0.00655036 7.72963e-19)
(0.998431 -0.00714871 -4.22319e-19)
(0.998656 -0.00778493 -3.75973e-20)
(0.998959 -0.00851386 -3.51077e-19)
(0.999107 -0.00933569 -5.55864e-19)
(0.999106 -0.0102212 5.29305e-19)
(0.998922 -0.0122653 1.94517e-19)
(1.0001 0.000334154 3.41346e-20)
(1.00003 0.000339661 1.04187e-20)
(0.999925 0.000229832 -1.79577e-20)
(0.999799 6.18091e-06 -1.31053e-18)
(0.999675 -0.000300711 1.5009e-19)
(0.999571 -0.000622883 -1.16621e-18)
(0.9995 -0.000885923 1.12502e-18)
(0.999463 -0.0010383 -9.90712e-19)
(0.999444 -0.00106138 1.97598e-18)
(0.999425 -0.000984077 1.26679e-18)
(0.999384 -0.000860655 -5.23306e-19)
(0.999309 -0.000759385 -4.28592e-19)
(0.999196 -0.000739118 2.32049e-18)
(0.999054 -0.000838678 -7.28083e-19)
(0.998898 -0.00107244 5.33875e-19)
(0.998747 -0.00143094 3.45819e-19)
(0.998618 -0.0018903 -1.27617e-18)
(0.998527 -0.00241804 1.89435e-18)
(0.998481 -0.0029833 1.1709e-18)
(0.998486 -0.00355799 -2.76392e-19)
(0.998539 -0.00412322 2.01193e-18)
(0.998638 -0.00466748 1.85012e-18)
(0.998777 -0.00518933 1.41041e-18)
(0.998948 -0.00569421 3.08649e-19)
(0.999146 -0.00619656 -5.16113e-19)
(0.999343 -0.00671862 1.17801e-19)
(0.999585 -0.00730154 -7.56988e-19)
(0.999726 -0.00796411 7.43362e-19)
(0.999541 -0.00862096 -1.86888e-19)
(0.998487 -0.0109222 -2.51676e-19)
(1.00009 0.000322745 -4.58866e-20)
(1.00001 0.000180631 2.30457e-20)
(0.999895 -6.1599e-05 2.57276e-19)
(0.999764 -0.000383073 9.67806e-19)
(0.99964 -0.000739426 1.09687e-19)
(0.999539 -0.00105766 1.60369e-19)
(0.999479 -0.00126869 -1.24709e-18)
(0.999457 -0.00133397 -4.8254e-20)
(0.999461 -0.00125129 -1.01662e-18)
(0.999475 -0.00106568 -3.83503e-19)
(0.999478 -0.000842822 5.60513e-19)
(0.999457 -0.000657779 -3.2908e-19)
(0.999406 -0.00057099 -9.3341e-19)
(0.999331 -0.000620442 5.73111e-19)
(0.999239 -0.00081777 3.0915e-20)
(0.999148 -0.00115128 1.43e-18)
(0.999069 -0.00159488 -4.05312e-19)
(0.999015 -0.00211549 -7.54007e-19)
(0.998992 -0.00268215 -1.03612e-18)
(0.999005 -0.00326805 -2.9147e-18)
(0.999054 -0.00385586 -6.37368e-19)
(0.999136 -0.00443677 -1.68998e-18)
(0.999245 -0.00501277 -1.46311e-18)
(0.999377 -0.00559435 -1.12021e-18)
(0.999525 -0.00620166 1.44848e-18)
(0.999664 -0.00686903 -8.11466e-19)
(0.999817 -0.00764501 4.31153e-19)
(0.999884 -0.00854554 4.97171e-19)
(0.999775 -0.00941769 -4.63593e-19)
(0.998648 -0.0122671 1.39439e-19)
(1.00004 0.000293562 9.57846e-21)
(0.999943 5.07461e-05 -2.62982e-20)
(0.999804 -0.000272948 -3.03563e-20)
(0.999637 -0.000646488 -1.79189e-20)
(0.99947 -0.00102309 -5.9845e-19)
(0.999319 -0.0013351 1.71705e-19)
(0.999205 -0.00152511 -4.19795e-19)
(0.999131 -0.00156777 -6.66657e-19)
(0.999094 -0.00147183 1.43057e-18)
(0.99908 -0.00128889 -3.96516e-19)
(0.999074 -0.00108541 1.53286e-18)
(0.999066 -0.000933559 1.46962e-18)
(0.999047 -0.00088859 -1.24752e-18)
(0.999017 -0.000983676 -1.20533e-18)
(0.99898 -0.00122679 -1.87e-18)
(0.998947 -0.00160466 -1.43505e-18)
(0.998925 -0.0020911 2.84775e-19)
(0.998921 -0.00265444 -5.97573e-19)
(0.998942 -0.00326574 2.80081e-18)
(0.998989 -0.0039006 5.42582e-19)
(0.999063 -0.00454382 -2.0975e-18)
(0.999163 -0.00518834 -6.92539e-19)
(0.999283 -0.00583711 3.70113e-19)
(0.999422 -0.00650048 5.24158e-19)
(0.999573 -0.00719528 -9.84414e-19)
(0.999715 -0.0079492 7.18475e-19)
(0.999866 -0.00879535 2.00911e-19)
(0.999929 -0.00970011 -9.58244e-19)
(0.999893 -0.0104219 2.16661e-19)
(0.999572 -0.0127456 3.69088e-20)
(0.999976 0.000268376 -7.3512e-21)
(0.999854 -2.67675e-05 3.8913e-20)
(0.999681 -0.000385401 -3.95835e-19)
(0.999467 -0.000774628 -2.0408e-19)
(0.999239 -0.00115227 3.8772e-19)
(0.999016 -0.00146087 1.27152e-18)
(0.998823 -0.00165622 1.46612e-18)
(0.99867 -0.00172388 1.05071e-19)
(0.99856 -0.00167853 2.79985e-19)
(0.998489 -0.00157132 1.38177e-18)
(0.998448 -0.00146262 -1.07194e-18)
(0.99843 -0.00141552 -1.81445e-18)
(0.998424 -0.00147565 4.63458e-19)
(0.998429 -0.00166848 2.13374e-18)
(0.998444 -0.00199709 4.22266e-18)
(0.998474 -0.00244624 -2.50959e-20)
(0.998519 -0.00298996 6.7322e-19)
(0.998584 -0.00359828 2.38023e-18)
(0.998671 -0.00424451 -2.40642e-18)
(0.998782 -0.00490626 1.61519e-18)
(0.998914 -0.00556948 2.02607e-18)
(0.999068 -0.006227 1.17479e-18)
(0.999239 -0.0068799 8.73401e-19)
(0.999425 -0.00753433 -7.39398e-20)
(0.999621 -0.00819921 -2.73978e-19)
(0.99981 -0.00888935 8.48553e-19)
(1 -0.00962164 3.53185e-19)
(1.00011 -0.0103329 4.82844e-19)
(1.00009 -0.0107468 1.87829e-19)
(1.00045 -0.0125265 -1.50427e-19)
(0.999896 0.000253345 1.36762e-20)
(0.999762 -5.79717e-05 6.19559e-20)
(0.999564 -0.000416843 2.03636e-19)
(0.999314 -0.000794604 2.29845e-19)
(0.999038 -0.0011574 9.02746e-19)
(0.998756 -0.00145967 -7.58853e-19)
(0.998495 -0.00166997 -1.09113e-18)
(0.998272 -0.00178225 7.40168e-19)
(0.998097 -0.00181339 -1.45407e-18)
(0.997974 -0.00180988 -5.41268e-19)
(0.9979 -0.00182226 -2.91364e-18)
(0.997871 -0.0019015 1.95151e-18)
(0.997878 -0.00208173 9.46399e-19)
(0.997916 -0.00237964 1.85302e-19)
(0.997982 -0.00279297 -2.52696e-18)
(0.998075 -0.00330461 4.23642e-19)
(0.99819 -0.00388897 -8.13267e-19)
(0.998329 -0.00451808 -3.05827e-18)
(0.99849 -0.00516757 -5.58675e-20)
(0.998672 -0.00581718 -2.62552e-18)
(0.998873 -0.00645395 -2.418e-18)
(0.99909 -0.00707069 -9.92279e-19)
(0.99932 -0.00766696 -7.4722e-19)
(0.999561 -0.00824597 -7.42052e-19)
(0.999806 -0.00881201 -3.35224e-19)
(1.00004 -0.00937339 -1.91327e-18)
(1.00027 -0.00994336 2.53127e-20)
(1.0004 -0.0104575 4.70978e-19)
(1.00036 -0.010647 1.60044e-20)
(1.00111 -0.0121318 1.32981e-19)
(0.999816 0.000248871 4.08513e-20)
(0.999678 -5.38303e-05 -1.1882e-19)
(0.999471 -0.00039007 -2.05743e-19)
(0.999206 -0.000739116 -1.76208e-19)
(0.998908 -0.00107665 -2.90673e-19)
(0.998595 -0.00136879 -3.74681e-19)
(0.998297 -0.00159518 7.76459e-19)
(0.998032 -0.00175573 -1.8665e-18)
(0.997818 -0.00186697 -8.24162e-19)
(0.997663 -0.00196849 1.60619e-18)
(0.997571 -0.00209965 2.43396e-18)
(0.99754 -0.00229873 -1.07028e-18)
(0.997564 -0.00258838 -2.80925e-18)
(0.997636 -0.0029769 -1.14541e-18)
(0.997748 -0.00345728 5.9986e-20)
(0.997897 -0.00401103 1.00991e-19)
(0.998075 -0.00461347 3.88668e-19)
(0.998279 -0.00523904 -4.41762e-19)
(0.998504 -0.00586614 2.17109e-18)
(0.998747 -0.00647713 1.7882e-18)
(0.999005 -0.00706095 1.55407e-18)
(0.999275 -0.00761157 4.03833e-19)
(0.999551 -0.00812889 -7.52378e-19)
(0.99983 -0.00861605 -2.98453e-19)
(1.0001 -0.00907724 8.04161e-19)
(1.00036 -0.00952059 1.15966e-18)
(1.0006 -0.00996314 -8.97682e-19)
(1.00074 -0.0103476 -6.97787e-19)
(1.00065 -0.0104223 2.21014e-20)
(1.00156 -0.0117805 -5.28401e-20)
(0.999744 0.000254201 -2.16746e-21)
(0.999608 -2.61429e-05 4.41756e-20)
(0.999408 -0.000328708 2.4288e-19)
(0.999149 -0.000642036 -8.85345e-21)
(0.998854 -0.000951294 -3.84165e-19)
(0.998539 -0.00123283 -3.61926e-20)
(0.998233 -0.00147518 -5.8154e-19)
(0.997957 -0.00168191 9.8608e-19)
(0.99773 -0.0018676 1.22335e-19)
(0.997567 -0.00206403 -1.65241e-18)
(0.997474 -0.00229967 -2.56666e-18)
(0.997452 -0.00260093 -1.30705e-18)
(0.997496 -0.00298027 2.37392e-18)
(0.997598 -0.00343884 1.77053e-18)
(0.997749 -0.00396595 -1.23898e-18)
(0.997943 -0.00454253 -2.73726e-18)
(0.998169 -0.00514544 4.02162e-19)
(0.998422 -0.00575193 2.28995e-18)
(0.998693 -0.00634363 -2.19684e-18)
(0.99898 -0.00690602 1.22604e-18)
(0.999276 -0.00743064 -1.01954e-18)
(0.999577 -0.00791364 -1.70684e-19)
(0.999878 -0.00835669 5.91661e-19)
(1.00017 -0.00876469 8.26582e-19)
(1.00046 -0.0091439 -9.00138e-20)
(1.00071 -0.00950443 -5.77452e-19)
(1.00094 -0.00986767 2.39944e-20)
(1.00107 -0.0101809 6.29606e-20)
(1.00094 -0.0102063 -8.95923e-20)
(1.00189 -0.0115204 -8.94832e-21)
(0.999686 0.00026687 -1.07107e-20)
(0.999554 1.29031e-05 2.15784e-20)
(0.99937 -0.000255165 -6.79856e-20)
(0.999132 -0.000534648 -3.43588e-20)
(0.998859 -0.000819371 -3.2991e-19)
(0.998563 -0.00109397 -8.46633e-20)
(0.998274 -0.00135354 8.07564e-20)
(0.99801 -0.00160342 -5.54584e-19)
(0.997793 -0.00185526 -3.57414e-19)
(0.99764 -0.00213314 2.49821e-19)
(0.99756 -0.0024557 6.64169e-19)
(0.997554 -0.00283913 1.30885e-18)
(0.997618 -0.00328749 6.10345e-20)
(0.997747 -0.00379637 -3.31695e-18)
(0.997928 -0.00435264 -4.90814e-19)
(0.998154 -0.00493749 5.69443e-19)
(0.998413 -0.00552977 1.39274e-18)
(0.998697 -0.00610987 -4.58506e-19)
(0.998997 -0.00666276 1.02376e-18)
(0.999307 -0.00717728 1.09278e-18)
(0.999622 -0.00764784 7.68791e-19)
(0.999935 -0.00807315 -2.80018e-19)
(1.00024 -0.00845709 -6.21573e-19)
(1.00053 -0.00880667 4.66692e-19)
(1.00081 -0.00913037 -2.98163e-19)
(1.00104 -0.00943978 8.2022e-19)
(1.00125 -0.00975863 7.05128e-20)
(1.00136 -0.010035 8.25567e-20)
(1.0012 -0.0100412 -1.47136e-19)
(1.00212 -0.0113475 1.77621e-20)
(0.999638 0.000284067 -2.79324e-20)
(0.999512 5.36146e-05 -1.34404e-20)
(0.99935 -0.000186622 -6.9712e-22)
(0.999142 -0.000440299 1.4459e-19)
(0.998901 -0.000708876 4.70101e-19)
(0.998639 -0.000983257 6.83906e-19)
(0.99838 -0.00126297 6.64671e-19)
(0.998144 -0.00155362 1.16238e-19)
(0.997952 -0.00186353 1.0375e-18)
(0.997821 -0.00220966 -2.83738e-19)
(0.997761 -0.0026023 6.24565e-20)
(0.997776 -0.00304931 1.56104e-18)
(0.997861 -0.00354829 1.7347e-18)
(0.998011 -0.00409087 6.45684e-19)
(0.998214 -0.00466263 1.36422e-18)
(0.99846 -0.00524567 3.79032e-19)
(0.998738 -0.00582115 -8.60422e-19)
(0.999038 -0.00637261 1.14375e-18)
(0.999351 -0.00688835 2.24037e-19)
(0.99967 -0.00736037 -2.3869e-18)
(0.999988 -0.0077858 3.46946e-19)
(1.0003 -0.00816572 4.99672e-19)
(1.0006 -0.00850599 1.69941e-19)
(1.00088 -0.0088153 -6.28581e-19)
(1.00113 -0.00910349 3.2172e-19)
(1.00134 -0.00938251 -5.80503e-19)
(1.00152 -0.00967655 3.25255e-19)
(1.00161 -0.00993226 -1.51244e-20)
(1.00142 -0.00992963 -8.89415e-21)
(1.0023 -0.0112406 3.09269e-21)
(0.999599 0.000302077 1.48274e-20)
(0.999479 8.85424e-05 -1.96419e-20)
(0.999341 -0.000134809 7.18692e-20)
(0.999164 -0.000374162 -9.24168e-20)
(0.99896 -0.000637341 -3.86495e-19)
(0.998736 -0.000919677 -2.73453e-19)
(0.998516 -0.00122333 -1.19215e-18)
(0.998316 -0.00155311 7.53293e-19)
(0.998156 -0.00191394 -2.18174e-19)
(0.998054 -0.00231658 1.18084e-19)
(0.998019 -0.00276455 3.12676e-19)
(0.998055 -0.00325926 -2.01577e-18)
(0.99816 -0.00379361 -1.57274e-18)
(0.998326 -0.00435668 1.64199e-18)
(0.998544 -0.00493372 2.75549e-19)
(0.998802 -0.00550821 6.80394e-19)
(0.999089 -0.00606375 -1.11991e-18)
(0.999394 -0.00658689 -8.20839e-19)
(0.999708 -0.00706893 3.38882e-19)
(1.00003 -0.00750469 7.03773e-19)
(1.00034 -0.00789362 -6.86451e-19)
(1.00064 -0.00823869 -3.03906e-19)
(1.00092 -0.0085472 4.86357e-19)
(1.00118 -0.00882881 2.31615e-19)
(1.00141 -0.00909385 2.15989e-19)
(1.00159 -0.0093537 1.03846e-19)
(1.00175 -0.00963199 8.36243e-20)
(1.00182 -0.0098732 6.46056e-20)
(1.00161 -0.00986347 4.56866e-20)
(1.00243 -0.0111813 1.90252e-20)
(0.999564 0.000318616 -5.04529e-21)
(0.99945 0.000113612 5.41441e-20)
(0.999334 -0.000105687 2.78927e-20)
(0.999188 -0.000343258 -7.76938e-21)
(0.999019 -0.000612132 1.49856e-20)
(0.998835 -0.000910549 2.14675e-19)
(0.998655 -0.00124187 4.76629e-19)
(0.998492 -0.00160946 -3.90231e-19)
(0.998368 -0.00201503 -5.38097e-19)
(0.998296 -0.00246413 -1.57513e-19)
(0.998288 -0.00295502 -5.26013e-20)
(0.998346 -0.00348434 1.02218e-18)
(0.998468 -0.00404183 -1.7431e-18)
(0.998647 -0.00461517 -3.34563e-19)
(0.998873 -0.00519001 -1.96156e-19)
(0.999137 -0.00575148 3.8841e-19)
(0.999425 -0.00628559 9.53041e-19)
(0.999729 -0.0067816 1.31209e-18)
(1.00004 -0.00723348 -1.73031e-18)
(1.00035 -0.00763834 1.12178e-19)
(1.00065 -0.0079975 7.09213e-19)
(1.00093 -0.00831527 4.36535e-19)
(1.0012 -0.00859982 -6.36913e-21)
(1.00144 -0.00886116 1.18519e-19)
(1.00164 -0.00910947 1.40647e-19)
(1.0018 -0.00935507 5.86094e-20)
(1.00193 -0.00962067 -1.5062e-20)
(1.00199 -0.00984859 -3.65138e-20)
(1.00177 -0.00982974 -4.22411e-20)
(1.00255 -0.0111518 -1.5615e-20)
(0.99953 0.000332104 -3.48352e-21)
(0.99942 0.000126611 -2.84907e-20)
(0.999324 -0.000101258 -6.19991e-20)
(0.999204 -0.000348996 8.47622e-22)
(0.999068 -0.000633635 1.5579e-19)
(0.99892 -0.000955163 -3.07394e-20)
(0.998777 -0.00131712 1.12426e-20)
(0.998652 -0.00172105 1.93069e-19)
(0.998562 -0.00216583 3.17118e-19)
(0.998521 -0.00265279 2.276e-19)
(0.998538 -0.0031763 2.25826e-19)
(0.998616 -0.00372966 -1.33241e-19)
(0.998753 -0.00430069 6.64339e-19)
(0.998942 -0.00487655 1.91027e-19)
(0.999174 -0.00544378 5.25081e-19)
(0.999439 -0.0059893 -2.97137e-19)
(0.999726 -0.00650138 -7.64415e-20)
(1.00002 -0.00697168 -6.75227e-19)
(1.00032 -0.00739639 -1.46364e-19)
(1.00062 -0.00777449 -7.85831e-21)
(1.00091 -0.00810863 7.16281e-20)
(1.00118 -0.00840404 -2.56707e-19)
(1.00142 -0.00866927 -7.24372e-20)
(1.00164 -0.00891429 -3.85478e-20)
(1.00183 -0.00914871 -1.36679e-19)
(1.00197 -0.00938168 -5.12861e-20)
(1.00209 -0.00963503 2.00548e-19)
(1.00213 -0.0098492 1.73853e-19)
(1.00191 -0.00981879 4.23394e-20)
(1.00264 -0.0111426 -5.22087e-20)
(0.999492 0.000342096 1.12394e-21)
(0.999388 0.000127592 -6.01597e-22)
(0.999306 -0.00012008 -9.59446e-23)
(0.999208 -0.000388211 -3.21752e-20)
(0.9991 -0.000696795 -1.17436e-20)
(0.998984 -0.00104676 -1.29173e-19)
(0.998874 -0.00144112 6.94931e-20)
(0.998783 -0.00187952 1.0191e-19)
(0.998725 -0.00235842 -2.15102e-19)
(0.998712 -0.00287589 1.02054e-19)
(0.998752 -0.00342357 1.8426e-19)
(0.998849 -0.00399255 -2.81261e-19)
(0.998999 -0.00456971 6.90196e-19)
(0.999196 -0.00514233 -9.23321e-20)
(0.999432 -0.00569815 -6.77516e-19)
(0.999696 -0.0062259 -3.77446e-19)
(0.999979 -0.0067159 -2.28155e-19)
(1.00027 -0.00716188 -2.79255e-19)
(1.00056 -0.00756182 5.16287e-19)
(1.00085 -0.00791617 -1.05477e-20)
(1.00112 -0.00822853 -3.72215e-19)
(1.00137 -0.00850465 2.26191e-19)
(1.0016 -0.00875316 8.99253e-20)
(1.00181 -0.0089837 4.33172e-20)
(1.00198 -0.0092052 5.11343e-20)
(1.0021 -0.00942567 -2.91407e-20)
(1.00221 -0.00966624 -3.27855e-19)
(1.00224 -0.00986581 -3.4832e-19)
(1.00202 -0.00982158 5.49075e-20)
(1.00273 -0.0111441 5.76799e-20)
(0.999445 0.000348087 -5.01037e-22)
(0.999348 0.000117201 -1.4924e-20)
(0.999277 -0.000159091 1.59602e-20)
(0.999197 -0.000455601 1.21414e-20)
(0.999111 -0.000794107 -1.86939e-20)
(0.999021 -0.00117594 -1.64783e-19)
(0.998941 -0.0016032 3.30349e-20)
(0.998879 -0.00207368 -1.81268e-19)
(0.998849 -0.00258193 -2.00207e-20)
(0.998862 -0.00312359 -1.59024e-19)
(0.998923 -0.00368852 -4.19632e-19)
(0.999036 -0.00426654 -1.50326e-19)
(0.999198 -0.00484426 1.21605e-20)
(0.999402 -0.00540953 -1.15876e-19)
(0.99964 -0.00595148 9.06175e-19)
(0.999903 -0.00646053 2.03539e-19)
(1.00018 -0.00692885 5.54608e-20)
(1.00047 -0.00735188 6.72248e-20)
(1.00075 -0.0077291 -7.71995e-20)
(1.00102 -0.00806204 1.50936e-19)
(1.00128 -0.00835493 1.09545e-19)
(1.00153 -0.00861379 -8.19264e-20)
(1.00175 -0.00884711 -3.0719e-20)
(1.00194 -0.00906412 -3.20607e-20)
(1.0021 -0.00927303 3.17432e-20)
(1.00221 -0.00948084 2.33782e-19)
(1.0023 -0.00970824 9.81821e-20)
(1.00233 -0.00989283 4.67036e-20)
(1.00211 -0.00983357 -1.0236e-19)
(1.0028 -0.0111538 1.11156e-20)
(0.999389 0.000350652 8.53503e-21)
(0.999299 9.74183e-05 5.79302e-21)
(0.999235 -0.00021387 -5.70258e-20)
(0.999168 -0.000544336 6.543e-20)
(0.9991 -0.000916501 1.50925e-20)
(0.999032 -0.00133181 -2.02978e-20)
(0.998976 -0.00179127 2.97078e-21)
(0.99894 -0.00229101 1.15766e-19)
(0.998935 -0.00282415 1.55523e-19)
(0.998969 -0.00338462 4.80078e-20)
(0.99905 -0.00396125 1.79727e-19)
(0.999178 -0.00454327 -1.11846e-19)
(0.999349 -0.00511754 -2.16009e-19)
(0.999559 -0.00567273 -2.45323e-20)
(0.999799 -0.0061994 -9.67188e-20)
(1.00006 -0.00668956 2.54871e-19)
(1.00034 -0.007137 -1.09467e-19)
(1.00061 -0.00753857 -1.94913e-19)
(1.00089 -0.00789492 -1.92391e-20)
(1.00116 -0.00820839 -5.984e-20)
(1.00141 -0.00848364 1.31088e-20)
(1.00164 -0.00872674 8.1823e-20)
(1.00185 -0.00894596 -2.36104e-19)
(1.00203 -0.00915004 1.67549e-19)
(1.00218 -0.00934653 1.27891e-19)
(1.00229 -0.00954162 -1.02306e-19)
(1.00238 -0.00975574 8.12423e-20)
(1.00241 -0.0099253 3.7518e-19)
(1.00219 -0.00985034 -6.10776e-20)
(1.00287 -0.0111672 -1.59004e-20)
(0.999321 0.00035037 -5.41431e-21)
(0.999239 7.00544e-05 3.00446e-20)
(0.99918 -0.000279991 -2.32028e-20)
(0.999122 -0.000647734 -1.58822e-19)
(0.999068 -0.00105532 -9.8098e-20)
(0.999017 -0.00150416 -4.04937e-20)
(0.998982 -0.00199418 -1.42278e-19)
(0.998967 -0.00252008 3.51993e-20)
(0.998983 -0.00307397 2.83475e-20)
(0.999037 -0.00364872 2.62429e-20)
(0.999134 -0.00423268 4.06317e-21)
(0.999275 -0.004815 7.23212e-20)
(0.999456 -0.0053831 1.20531e-20)
(0.999671 -0.00592662 4.88651e-20)
(0.999913 -0.00643754 5.03958e-21)
(1.00017 -0.0069093 -3.41994e-20)
(1.00045 -0.00733704 -7.95317e-21)
(1.00072 -0.0077188 -3.89318e-20)
(1.00099 -0.00805614 2.43826e-20)
(1.00125 -0.008352 -2.62025e-21)
(1.0015 -0.00861127 4.77176e-20)
(1.00173 -0.00883997 1.13759e-19)
(1.00193 -0.0090461 -1.58044e-20)
(1.00211 -0.00923794 -1.45544e-19)
(1.00225 -0.00942245 -1.21107e-19)
(1.00235 -0.00960514 -2.00218e-19)
(1.00244 -0.00980635 1.41569e-19)
(1.00247 -0.00996144 -2.45123e-19)
(1.00227 -0.00987094 -1.32773e-19)
(1.00292 -0.011185 -2.79045e-20)
(0.99924 0.000348318 1.31756e-20)
(0.999169 3.75825e-05 4.1672e-20)
(0.999111 -0.000352893 2.50049e-20)
(0.99906 -0.000759244 1.11066e-19)
(0.999016 -0.00120233 -3.10957e-20)
(0.998979 -0.00168355 -2.06956e-19)
(0.99896 -0.00220178 1.68401e-19)
(0.998963 -0.00275062 -2.30669e-20)
(0.998997 -0.00332156 -4.91604e-20)
(0.999068 -0.00390684 -7.54059e-20)
(0.99918 -0.00449481 -2.62663e-20)
(0.999332 -0.00507486 1.33211e-19)
(0.999521 -0.00563516 -9.65676e-20)
(0.999742 -0.00616638 1.26135e-19)
(0.999986 -0.00666183 -1.96392e-19)
(1.00025 -0.00711618 5.47181e-20)
(1.00052 -0.00752576 6.65363e-21)
(1.00079 -0.00788953 2.30439e-20)
(1.00106 -0.00820978 -1.16996e-19)
(1.00132 -0.00848985 2.36838e-19)
(1.00156 -0.00873476 2.33882e-19)
(1.00178 -0.00895042 -7.44357e-20)
(1.00198 -0.00914452 4.81903e-19)
(1.00216 -0.00932491 4.30167e-19)
(1.0023 -0.00949804 -1.89891e-19)
(1.0024 -0.0096689 4.36655e-19)
(1.00249 -0.00985781 2.37819e-19)
(1.00253 -0.00999913 -5.84997e-20)
(1.00233 -0.0098934 -1.41313e-20)
(1.00298 -0.0112048 1.42107e-19)
(0.999148 0.000345044 -3.46155e-22)
(0.999086 1.77043e-06 -6.75656e-20)
(0.999029 -0.000428782 1.57539e-19)
(0.998982 -0.000873471 -1.78813e-19)
(0.998945 -0.00135089 1.76672e-20)
(0.99892 -0.00186244 3.13548e-19)
(0.998915 -0.00240617 -1.12712e-19)
(0.998933 -0.00297478 8.60422e-20)
(0.998982 -0.0035595 9.89886e-20)
(0.999068 -0.00415234 3.91965e-20)
(0.999192 -0.00474191 -8.62671e-20)
(0.999354 -0.00531807 -2.20022e-19)
(0.999551 -0.00586985 8.43518e-20)
(0.999777 -0.00638889 -1.18439e-19)
(1.00002 -0.00686973 2.62375e-19)
(1.00029 -0.00730813 1.97355e-19)
(1.00056 -0.00770138 -2.56611e-19)
(1.00083 -0.00804915 -2.50522e-19)
(1.0011 -0.00835431 9.81599e-20)
(1.00135 -0.00862048 -5.9428e-19)
(1.00159 -0.00885272 -6.85689e-19)
(1.00182 -0.00905677 4.60043e-19)
(1.00202 -0.00924002 -5.39369e-19)
(1.00219 -0.00940995 -1.65893e-19)
(1.00234 -0.00957258 5.42735e-19)
(1.00244 -0.00973245 -3.92418e-19)
(1.00253 -0.00990999 -8.4916e-19)
(1.00258 -0.0100386 -2.07333e-19)
(1.00239 -0.00991842 1.09432e-19)
(1.00303 -0.0112286 -1.04629e-19)
(0.999046 0.000341489 -4.56051e-20)
(0.998992 -3.52095e-05 -1.35497e-20)
(0.998934 -0.000504215 -1.26606e-19)
(0.99889 -0.000985739 1.68733e-19)
(0.998859 -0.0014954 -1.52803e-19)
(0.998843 -0.00203469 7.95798e-20)
(0.998848 -0.002601 -3.09226e-19)
(0.998879 -0.00318641 1.21539e-19)
(0.998941 -0.00378216 1.68879e-19)
(0.999039 -0.00438026 1.42697e-19)
(0.999174 -0.00496981 4.36863e-19)
(0.999346 -0.00554124 -1.65417e-19)
(0.99955 -0.00608448 -1.19009e-19)
(0.999781 -0.00659205 -1.48119e-19)
(1.00003 -0.00705962 1.03677e-19)
(1.0003 -0.00748381 -1.3691e-19)
(1.00057 -0.00786273 4.26689e-19)
(1.00084 -0.00819661 4.84157e-19)
(1.00111 -0.00848873 -1.92149e-20)
(1.00137 -0.00874289 5.49629e-19)
(1.00161 -0.00896414 -1.41375e-19)
(1.00183 -0.00915803 -3.32777e-19)
(1.00204 -0.00933166 3.01305e-19)
(1.00221 -0.00949218 2.403e-20)
(1.00236 -0.00964524 -2.22043e-19)
(1.00247 -0.00979504 1.55721e-19)
(1.00256 -0.00996214 1.03402e-18)
(1.00262 -0.0100789 5.46663e-19)
(1.00244 -0.00994501 -1.94201e-19)
(1.00309 -0.0112545 -1.4377e-19)
(0.998933 0.000338098 3.66753e-20)
(0.998886 -7.20593e-05 -4.95281e-20)
(0.998827 -0.000576718 6.69324e-20)
(0.998784 -0.00109271 -1.5785e-19)
(0.998758 -0.00163197 1.36912e-19)
(0.998749 -0.00219614 1.53871e-19)
(0.998764 -0.00278215 3.90955e-19)
(0.998805 -0.00338169 -4.90291e-19)
(0.998879 -0.00398619 -6.51625e-19)
(0.998987 -0.00458788 -1.30362e-19)
(0.999132 -0.00517646 -2.0098e-20)
(0.999313 -0.00574298 3.7274e-20)
(0.999524 -0.00627819 -1.57108e-19)
(0.99976 -0.00677546 -1.13078e-20)
(1.00002 -0.00723138 -4.54621e-19)
(1.00028 -0.00764333 -1.66528e-19)
(1.00056 -0.00801005 -2.22553e-19)
(1.00083 -0.00833218 1.50619e-20)
(1.0011 -0.00861333 -6.34484e-19)
(1.00136 -0.00885739 -3.34408e-19)
(1.00161 -0.00906936 4.82233e-19)
(1.00184 -0.00925457 5.24682e-19)
(1.00204 -0.00941988 -3.4938e-19)
(1.00222 -0.00957213 -2.52337e-20)
(1.00237 -0.00971667 -4.38155e-20)
(1.00249 -0.00985742 8.32993e-20)
(1.00259 -0.0100151 -6.34711e-19)
(1.00265 -0.0101212 -3.01346e-19)
(1.00249 -0.0099745 8.91075e-19)
(1.00314 -0.0112849 8.22828e-21)
(0.998811 0.000335526 -2.0587e-20)
(0.99877 -0.000107182 -3.08388e-20)
(0.998709 -0.000644219 -1.69215e-19)
(0.998668 -0.00119177 6.96292e-20)
(0.998645 -0.00175767 3.25006e-19)
(0.998642 -0.00234377 2.13673e-20)
(0.998664 -0.00294676 5.99077e-19)
(0.998715 -0.0035581 -2.13632e-19)
(0.998797 -0.00416957 5.74465e-19)
(0.998916 -0.00477372 2.17384e-19)
(0.999069 -0.00536091 2.18114e-19)
(0.999257 -0.00592279 -2.34701e-19)
(0.999475 -0.00645091 6.86578e-20)
(0.999717 -0.00693931 -5.73141e-20)
(0.999977 -0.00738541 9.1819e-20)
(1.00025 -0.00778719 6.15545e-19)
(1.00053 -0.00814386 3.03024e-20)
(1.00081 -0.00845637 -4.09343e-19)
(1.00108 -0.00872855 3.93756e-19)
(1.00135 -0.00896434 -4.12435e-19)
(1.0016 -0.00916865 9.63127e-19)
(1.00183 -0.0093466 -4.4623e-19)
(1.00204 -0.00950481 8.06126e-19)
(1.00222 -0.00964987 -2.55099e-19)
(1.00238 -0.00978687 2.86747e-19)
(1.0025 -0.0099195 1.38756e-20)
(1.00262 -0.0100687 4.56037e-19)
(1.00269 -0.010165 4.85179e-19)
(1.00254 -0.0100061 -4.47927e-19)
(1.00319 -0.0113181 -6.45844e-20)
(0.998681 0.000333858 6.42392e-20)
(0.998644 -0.000139921 2.37845e-19)
(0.998582 -0.00070553 1.94561e-19)
(0.998541 -0.00128144 -1.01925e-19)
(0.99852 -0.00187094 -9.18769e-20)
(0.998522 -0.00247615 -6.02933e-19)
(0.998551 -0.00309365 -9.90299e-19)
(0.998609 -0.00371484 1.15924e-18)
(0.9987 -0.00433193 -1.59439e-19)
(0.998827 -0.00493788 1.97662e-19)
(0.998988 -0.00552369 -1.09345e-18)
(0.999184 -0.0060816 3.78836e-19)
(0.999408 -0.00660383 6.41736e-20)
(0.999655 -0.00708498 -1.06339e-19)
(0.999921 -0.0075232 9.14018e-19)
(1.0002 -0.00791688 -1.90592e-19)
(1.00048 -0.00826562 -2.10234e-19)
(1.00077 -0.00857057 -1.87329e-19)
(1.00105 -0.00883571 -2.67581e-19)
(1.00132 -0.00906499 1.7865e-19)
(1.00157 -0.00926319 -1.75152e-19)
(1.00181 -0.00943524 6.10306e-19)
(1.00203 -0.00958755 -7.74224e-19)
(1.00222 -0.00972649 -7.69521e-19)
(1.00239 -0.00985694 -1.03746e-18)
(1.00252 -0.0099824 8.24588e-20)
(1.00264 -0.0101241 -1.49265e-19)
(1.00272 -0.0102115 -1.70933e-20)
(1.00259 -0.0100413 2.08321e-19)
(1.00324 -0.0113564 1.35975e-19)
(0.998544 0.000333447 -5.6665e-20)
(0.99851 -0.000169273 -1.5725e-19)
(0.998446 -0.000759732 3.45284e-20)
(0.998405 -0.0013607 -9.00354e-20)
(0.998386 -0.00197086 3.66171e-20)
(0.998392 -0.00259252 4.44339e-19)
(0.998426 -0.00322236 -3.64603e-20)
(0.998491 -0.0038518 -4.42556e-19)
(0.99859 -0.00447356 -7.45945e-19)
(0.998724 -0.00508101 -1.2548e-18)
(0.998892 -0.0056658 -5.36517e-19)
(0.999095 -0.00622063 -4.38075e-19)
(0.999325 -0.00673833 3.72035e-19)
(0.999578 -0.00721396 6.31997e-19)
(0.99985 -0.00764622 -1.59689e-18)
(1.00013 -0.00803382 -7.67446e-19)
(1.00042 -0.00837666 1.47431e-18)
(1.00071 -0.00867597 7.70009e-19)
(1.001 -0.00893587 1.41378e-18)
(1.00128 -0.00916023 5.96944e-19)
(1.00154 -0.00935373 -6.43773e-19)
(1.00178 -0.00952113 -1.11602e-18)
(1.00201 -0.00966859 1.78055e-18)
(1.00221 -0.00980234 2.83749e-19)
(1.00239 -0.00992707 9.7417e-19)
(1.00253 -0.0100461 -3.2027e-19)
(1.00266 -0.010181 7.44701e-19)
(1.00276 -0.0102603 7.52341e-19)
(1.00264 -0.0100792 -2.48928e-19)
(1.0033 -0.0113979 1.00038e-19)
(0.998401 0.000334174 -1.18727e-20)
(0.998368 -0.000195132 -1.41615e-19)
(0.998303 -0.0008066 -1.67678e-19)
(0.998261 -0.00142941 2.9133e-19)
(0.998244 -0.00205744 -1.81759e-19)
(0.998253 -0.0026932 -2.89446e-19)
(0.998292 -0.00333353 4.05651e-19)
(0.998363 -0.00396998 -4.23519e-19)
(0.998468 -0.00459582 -1.84914e-19)
(0.998608 -0.00520479 1.5663e-18)
(0.998784 -0.00578913 5.08459e-19)
(0.998992 -0.00634196 7.26269e-19)
(0.999229 -0.0068566 -8.76718e-20)
(0.999489 -0.00732842 -5.37921e-19)
(0.999766 -0.0077566 9.22039e-19)
(1.00006 -0.00814007 4.25415e-19)
(1.00035 -0.0084789 -1.36194e-18)
(1.00065 -0.00877438 -1.51758e-18)
(1.00094 -0.00903068 -1.06926e-19)
(1.00123 -0.0092516 -1.19899e-18)
(1.0015 -0.00944172 6.78031e-19)
(1.00175 -0.00960558 -7.96377e-20)
(1.00199 -0.0097492 -2.76277e-18)
(1.0022 -0.00987863 1.03529e-18)
(1.00239 -0.00999845 2.89547e-19)
(1.00254 -0.0101119 4.60066e-19)
(1.00268 -0.0102407 1.96138e-19)
(1.00279 -0.0103126 -1.88855e-18)
(1.00269 -0.0101214 -3.6337e-19)
(1.00335 -0.0114449 -1.91256e-19)
(0.998252 0.000336184 2.06948e-20)
(0.998219 -0.000216961 2.08676e-19)
(0.998152 -0.000846001 -1.48639e-21)
(0.998111 -0.0014876 1.27198e-19)
(0.998095 -0.00213097 1.4268e-19)
(0.998107 -0.00277874 4.09117e-19)
(0.99815 -0.00342804 7.17195e-20)
(0.998226 -0.00407058 7.56672e-19)
(0.998336 -0.00470015 1.24164e-18)
(0.998483 -0.00531088 -9.44812e-19)
(0.998664 -0.00589551 2.01298e-18)
(0.998879 -0.0064475 -2.23929e-19)
(0.999122 -0.00696055 -2.07941e-19)
(0.999389 -0.00743024 -5.72585e-19)
(0.999673 -0.00785613 4.19646e-19)
(0.99997 -0.00823726 1.75521e-19)
(1.00027 -0.00857382 -2.1578e-19)
(1.00058 -0.00886709 1.65241e-18)
(1.00088 -0.00912125 -1.08116e-18)
(1.00117 -0.00934004 2.48806e-20)
(1.00145 -0.0095279 -4.13386e-19)
(1.00172 -0.0096892 -1.33914e-18)
(1.00196 -0.0098298 1.96433e-18)
(1.00219 -0.00995565 -3.41798e-20)
(1.00238 -0.0100712 -3.26543e-19)
(1.00254 -0.0101796 4.85672e-19)
(1.0027 -0.0103028 -1.96847e-18)
(1.00282 -0.0103679 -6.46606e-20)
(1.00274 -0.0101668 3.39263e-19)
(1.0034 -0.0114954 1.07631e-19)
(0.998099 0.000339199 5.95751e-20)
(0.998064 -0.000235065 -2.02764e-21)
(0.997997 -0.000878305 -1.4043e-19)
(0.997955 -0.00153586 9.55142e-20)
(0.99794 -0.00219235 4.03964e-20)
(0.997954 -0.00285038 3.26008e-19)
(0.998001 -0.00350742 -4.07282e-19)
(0.998081 -0.0041554 -3.96442e-19)
(0.998196 -0.00478861 5.73396e-19)
(0.998348 -0.00540152 -4.46116e-19)
(0.998535 -0.00598729 -3.0083e-18)
(0.998757 -0.00653965 -7.05675e-19)
(0.999006 -0.00705255 1.64485e-18)
(0.999279 -0.00752172 3.74918e-19)
(0.99957 -0.00794698 -9.38609e-19)
(0.999876 -0.00832743 -3.1959e-19)
(1.00019 -0.00866331 -1.05371e-18)
(1.0005 -0.00895582 -1.30552e-18)
(1.00081 -0.00920918 -1.06695e-18)
(1.00112 -0.009427 9.894e-19)
(1.00141 -0.00961361 1.43289e-18)
(1.00168 -0.00977323 1.84897e-18)
(1.00194 -0.00991157 -1.02627e-19)
(1.00217 -0.0100345 -9.51704e-19)
(1.00238 -0.0101464 -1.14654e-18)
(1.00255 -0.0102503 2.35173e-21)
(1.00272 -0.0103686 -1.59066e-19)
(1.00286 -0.0104273 -2.43262e-19)
(1.00279 -0.0102168 8.70696e-20)
(1.00345 -0.0115517 -6.20135e-20)
(0.997942 0.000343255 -8.91005e-20)