/*--------------------------------*- C++ -*----------------------------------*\
  =========                 |
  \\      /  F ield         | OpenFOAM: The Open Source CFD Toolbox
   \\    /   O peration     | Website:  https://openfoam.org
    \\  /    A nd           | Version:  6.0
     \\/     M anipulation  |
\*---------------------------------------------------------------------------*/
FoamFile
{
    version     2.0;
    format      ascii;
    class       volVectorField;
    location    "10";
    object      U;
}
// * * * * * * * * * * * * * * * * * * * * * * * * * * * * * * * * * * * * * //

dimensions      [0 1 -1 0 0 0 0];

internalField   nonuniform List<vector> 
34500
(
(0.999994 0.000104605 -4.65835e-17)
(0.99993 6.24331e-05 -8.19294e-18)
(0.999835 -0.000115559 1.43008e-16)
(0.999784 -0.00024193 -1.07952e-16)
(0.999762 -0.000231794 3.3585e-17)
(0.999655 -0.000229919 -1.01605e-16)
(0.999437 -0.000412082 -1.0127e-16)
(0.999193 -0.000791893 8.71787e-17)
(0.999037 -0.00124801 1.07757e-16)
(0.998997 -0.00168392 -6.86869e-16)
(0.999063 -0.00205169 -1.04692e-15)
(0.999192 -0.00240669 1.27903e-16)
(0.999375 -0.00272447 4.38162e-16)
(0.999798 -0.00343606 -2.10505e-16)
(0.992533 -0.00835907 8.12425e-17)
(0.999986 9.73915e-05 3.26234e-17)
(0.999857 -0.000226874 9.82907e-17)
(0.999737 -0.000569265 7.21763e-17)
(0.999762 -0.000538441 -3.03063e-16)
(0.999752 -0.000227792 -5.06255e-16)
(0.999505 -0.000149729 -5.50119e-17)
(0.999034 -0.000591698 2.56183e-16)
(0.998566 -0.00142549 -6.80436e-16)
(0.998292 -0.00235336 -1.79662e-16)
(0.998254 -0.00317173 6.85845e-16)
(0.998407 -0.003816 1.27074e-15)
(0.998674 -0.00440406 -6.33951e-16)
(0.998963 -0.00488051 -9.93489e-16)
(0.999801 -0.00599905 -4.01339e-16)
(0.993278 -0.0115776 5.52724e-16)
(0.999962 -2.16611e-05 1.05248e-17)
(0.999831 -0.000577195 -1.23753e-16)
(0.999766 -0.000909041 -1.25889e-16)
(0.999931 -0.000597113 4.56987e-16)
(1.00007 6.49748e-05 -2.86174e-17)
(0.999943 0.000342225 -1.63972e-16)
(0.999532 -7.50697e-05 9.78244e-17)
(0.999081 -0.000965705 3.86232e-16)
(0.998789 -0.00196372 3.79848e-19)
(0.998721 -0.0028223 -3.95557e-16)
(0.99883 -0.00347293 -7.32994e-16)
(0.999067 -0.00404631 4.16874e-16)
(0.999207 -0.00448555 2.26984e-16)
(1.00008 -0.00550995 1.67211e-16)
(0.995851 -0.00978195 -2.58888e-16)
(0.999915 -0.000145919 -1.74507e-17)
(0.99976 -0.000840323 -9.09499e-18)
(0.999689 -0.00111106 4.86298e-17)
(0.999914 -0.000593637 -3.06419e-16)
(1.00019 0.000289693 3.72432e-16)
(1.00026 0.000706043 3.30028e-16)
(1.00001 0.000356527 -4.00163e-16)
(0.999665 -0.000497536 -4.2133e-16)
(0.999397 -0.00147407 4.37078e-16)
(0.999296 -0.00232062 -4.73195e-16)
(0.999335 -0.00297099 -2.45971e-16)
(0.999502 -0.00356493 -3.88228e-16)
(0.999459 -0.00408119 5.47543e-16)
(1.00017 -0.00515663 -4.89216e-17)
(0.996866 -0.00952355 2.28391e-17)
(0.999851 -0.000234586 -1.71369e-17)
(0.999629 -0.000984637 1.54394e-16)
(0.999463 -0.00120052 7.00561e-17)
(0.999619 -0.000608481 1.70366e-16)
(0.999925 0.000309378 4.68379e-17)
(1.00012 0.000712314 -1.58509e-16)
(1.00004 0.000342564 1.02711e-16)
(0.999819 -0.000520039 2.67183e-16)
(0.999615 -0.00150226 -4.19724e-16)
(0.999525 -0.00236775 -2.32463e-16)
(0.999538 -0.00306144 1.01328e-15)
(0.999679 -0.00373142 6.39191e-16)
(0.999538 -0.00439655 -2.92585e-16)
(1.00006 -0.00561006 6.03159e-16)
(0.99712 -0.0102719 -6.22426e-16)
(0.999782 -0.000283516 1.84539e-17)
(0.999478 -0.00102614 -9.54857e-17)
(0.999173 -0.00119864 -1.8764e-16)
(0.999181 -0.000631847 -5.3227e-17)
(0.999434 0.000180008 1.09841e-16)
(0.999692 0.000448505 -1.09376e-16)
(0.999738 -1.99059e-05 1.48689e-16)
(0.999638 -0.000935585 1.31749e-16)
(0.999526 -0.00194597 2.92571e-16)
(0.999488 -0.00284226 -1.01268e-16)
(0.999521 -0.00358383 3.27802e-18)
(0.999685 -0.00432011 -3.92451e-16)
(0.999537 -0.00509288 1.85107e-17)
(0.999927 -0.00636628 -4.77801e-16)
(0.997387 -0.0109136 7.84401e-17)
(0.999718 -0.000298471 3.27328e-18)
(0.999345 -0.000989815 -3.58401e-17)
(0.99891 -0.00112381 -2.92509e-17)
(0.998758 -0.000636223 1.76769e-16)
(0.998924 -4.17487e-06 -2.21265e-16)
(0.999193 7.08887e-05 2.76127e-16)
(0.999333 -0.000530156 -6.21775e-16)
(0.999347 -0.00151199 -3.71852e-16)
(0.999333 -0.00254831 -1.52534e-16)
(0.999367 -0.00346108 6.75949e-16)
(0.999448 -0.00422431 -7.74239e-16)
(0.999656 -0.00498097 3.00822e-16)
(0.999552 -0.00578131 4.61594e-16)
(0.999871 -0.00700676 -9.78644e-17)
(0.99785 -0.0112035 -1.2792e-16)
(0.999667 -0.000287007 1.51968e-17)
(0.999249 -0.000900956 3.25209e-17)
(0.998725 -0.000999357 2.52139e-17)
(0.998443 -0.000612912 -1.51796e-16)
(0.998524 -0.000185287 3.30499e-16)
(0.998783 -0.00031543 -1.40293e-16)
(0.99899 -0.00104894 2.02255e-16)
(0.999098 -0.00208795 -1.47408e-16)
(0.999174 -0.00313433 4.00461e-16)
(0.99928 -0.00404008 1.792e-16)
(0.999412 -0.00479298 2.46866e-16)
(0.999669 -0.00552578 -5.69921e-17)
(0.999622 -0.00629227 -5.1068e-16)
(0.999897 -0.00740739 1.16161e-15)
(0.998431 -0.0112336 1.97252e-16)
(0.99963 -0.000257207 -1.12764e-17)
(0.999196 -0.000784175 9.96271e-17)
(0.998626 -0.000852512 1.51908e-16)
(0.99826 -0.000572074 1.12646e-16)
(0.998277 -0.00034463 -4.91256e-16)
(0.998522 -0.000664473 1.41605e-16)
(0.998774 -0.00151168 3.22471e-16)
(0.998955 -0.00258901 7.77628e-16)
(0.999104 -0.00362682 -3.88295e-16)
(0.999271 -0.0045046 9.08711e-17)
(0.999448 -0.00522314 4.53244e-16)
(0.999742 -0.00590475 -3.27042e-16)
(0.999743 -0.00660796 -1.56007e-16)
(0.999983 -0.00759929 -3.88759e-16)
(0.999027 -0.0111129 8.88648e-17)
(0.999607 -0.000216966 4.08895e-17)
(0.999177 -0.000661305 -9.033e-17)
(0.998603 -0.000709229 8.88902e-18)
(0.998198 -0.000531821 -1.10893e-16)
(0.998176 -0.000485892 4.12909e-16)
(0.998409 -0.000966995 8.00349e-17)
(0.998692 -0.00190153 2.71916e-16)
(0.998926 -0.00299638 -5.77125e-16)
(0.999129 -0.00400958 4.1918e-17)
(0.999341 -0.00484517 -7.93397e-17)
(0.999551 -0.00551618 -1.40928e-16)
(0.999868 -0.00613605 4.45832e-17)
(0.999902 -0.00677061 5.9992e-16)
(1.0001 -0.00765207 -8.21233e-16)
(0.999567 -0.0109263 -2.84541e-16)
(0.999595 -0.000172965 -2.63575e-17)
(0.999184 -0.00054878 3.54694e-17)
(0.998633 -0.000589359 -1.48529e-16)
(0.998227 -0.000509344 2.51479e-16)
(0.998191 -0.000620716 -3.63576e-16)
(0.998418 -0.00123089 -3.04753e-16)
(0.998721 -0.00222554 -3.40973e-16)
(0.99899 -0.00331916 3.94037e-17)
(0.999232 -0.00429621 -8.20738e-17)
(0.999473 -0.00508218 -4.2825e-16)
(0.999702 -0.0057014 -7.27993e-16)
(1.00003 -0.00626034 2.88864e-16)
(1.00008 -0.00683355 -3.32708e-16)
(1.00023 -0.00762858 9.26398e-16)
(1.00003 -0.010725 5.67365e-17)
(0.999592 -0.000130445 -2.46717e-17)
(0.999207 -0.000457446 -1.04826e-16)
(0.998697 -0.000505613 1.51678e-16)
(0.998315 -0.000516885 -2.35578e-16)
(0.998285 -0.000760849 7.7326e-17)
(0.998512 -0.00146917 4.56701e-16)
(0.998828 -0.00249938 5.57332e-17)
(0.99912 -0.00357676 -6.78021e-17)
(0.999385 -0.00451051 1.83024e-16)
(0.999644 -0.00524467 -1.58261e-16)
(0.999881 -0.00581365 -9.59542e-17)
(1.0002 -0.00631849 -6.75057e-17)
(1.00026 -0.00684213 -2.90938e-16)
(1.00036 -0.00757349 -6.34604e-16)
(1.0004 -0.0105432 1.30919e-17)
(0.999592 -9.29882e-05 -2.18579e-18)
(0.999236 -0.000392907 1.4127e-16)
(0.998777 -0.000463639 -2.22808e-16)
(0.998435 -0.000560515 8.38535e-17)
(0.998424 -0.000914251 -9.39851e-17)
(0.998656 -0.00169359 -1.55615e-16)
(0.99898 -0.00273895 -3.91478e-17)
(0.999287 -0.00378909 3.67703e-16)
(0.999564 -0.00467603 -6.35316e-16)
(0.999831 -0.00535964 4.24006e-16)
(1.00007 -0.00588289 2.22654e-16)
(1.00038 -0.00634251 1.86039e-16)
(1.00043 -0.00682805 7.59546e-16)
(1.00049 -0.00751396 7.4574e-16)
(1.0007 -0.0103921 5.78932e-16)
(0.999592 -6.27376e-05 8.33876e-18)
(0.999265 -0.000356874 5.3119e-17)
(0.998858 -0.000463758 1.77032e-16)
(0.998565 -0.000640907 5.60075e-17)
(0.99858 -0.00108451 1.71502e-16)
(0.998822 -0.00191231 1.68879e-16)
(0.999153 -0.00295688 -1.19261e-17)
(0.999467 -0.0039724 4.96143e-17)
(0.99975 -0.00481169 9.45172e-16)
(1.00002 -0.00544792 -1.14896e-16)
(1.00025 -0.00593114 5.47293e-16)
(1.00055 -0.00635421 -7.46964e-16)
(1.00059 -0.00681104 1.38784e-16)
(1.00061 -0.00746445 -1.37352e-15)
(1.00093 -0.0102783 -6.4993e-16)
(0.999588 -4.05763e-05 9.97838e-18)
(0.999289 -0.000347901 -1.18253e-16)
(0.998934 -0.000502214 1.55511e-16)
(0.998692 -0.000754577 -2.25148e-16)
(0.998737 -0.00127117 1.57516e-16)
(0.998989 -0.00212945 2.07525e-17)
(0.999325 -0.00316145 1.96099e-16)
(0.999643 -0.00413798 -2.61778e-16)
(0.999929 -0.00493062 -8.45547e-16)
(1.00019 -0.00552356 2.51389e-16)
(1.00042 -0.00597239 -5.65484e-16)
(1.00071 -0.00636637 1.14066e-16)
(1.00074 -0.00680119 -4.96891e-16)
(1.00072 -0.00743069 2.71421e-16)
(1.00112 -0.0101967 -1.14443e-16)
(0.999579 -2.65655e-05 3.33596e-17)
(0.999307 -0.000362793 7.21952e-17)
(0.998997 -0.000573038 -3.60607e-16)
(0.998805 -0.00089553 2.89586e-16)
(0.998881 -0.00147109 -2.81104e-16)
(0.999145 -0.00234598 -3.74673e-16)
(0.999485 -0.00335721 -3.85033e-16)
(0.999806 -0.00429276 3.39802e-16)
(1.00009 -0.00504096 7.24301e-16)
(1.00035 -0.00559495 1.64337e-16)
(1.00057 -0.00601451 9.55981e-17)
(1.00084 -0.00638537 7.08546e-17)
(1.00086 -0.00680273 -7.42782e-16)
(1.00081 -0.00741362 6.57731e-17)
(1.00127 -0.0101454 6.66655e-16)
(0.999563 -2.00613e-05 -8.99849e-17)
(0.999315 -0.000397179 -9.27775e-17)
(0.999046 -0.000668969 3.4479e-17)
(0.998901 -0.00105647 -2.65387e-16)
(0.999006 -0.00167946 -1.79827e-17)
(0.999282 -0.00256064 4.83693e-16)
(0.999626 -0.00354584 5.53965e-17)
(0.999948 -0.00444019 3.05925e-16)
(1.00023 -0.00514689 -6.07288e-16)
(1.00049 -0.0056662 -3.12237e-16)
(1.00071 -0.00606086 4.48656e-16)
(1.00096 -0.00641317 -1.50632e-16)
(1.00097 -0.00681583 4.90229e-16)
(1.0009 -0.00741131 7.65691e-16)
(1.0014 -0.010116 -6.3064e-17)
(0.999539 -2.00648e-05 2.81906e-17)
(0.999314 -0.000446502 1.1526e-17)
(0.999081 -0.000782741 1.1609e-16)
(0.998977 -0.00122998 2.29053e-18)
(0.999108 -0.00189101 9.92465e-17)
(0.999397 -0.00277102 -2.9085e-16)
(0.999744 -0.0037273 6.01179e-16)
(1.00007 -0.00458155 -1.54517e-16)
(1.00035 -0.00525009 6.57133e-16)
(1.00061 -0.00573874 -3.44052e-16)
(1.00082 -0.0061122 -5.48381e-16)
(1.00106 -0.00644942 5.30031e-16)
(1.00107 -0.00683913 -8.9613e-16)
(1.00098 -0.00742101 -1.33024e-15)
(1.0015 -0.0101061 -3.47085e-16)
(0.999506 -2.53015e-05 3.1406e-18)
(0.999304 -0.000506168 1.95693e-17)
(0.9991 -0.000907418 -3.13192e-17)
(0.999034 -0.00140912 1.59186e-16)
(0.999188 -0.00210059 1.09187e-16)
(0.999488 -0.00297436 -4.2838e-17)
(0.999839 -0.00390059 -3.624e-16)
(1.00016 -0.00471677 -3.49709e-16)
(1.00045 -0.00535069 -2.36629e-16)
(1.00071 -0.00581242 4.36386e-16)
(1.00091 -0.00616777 3.38462e-16)
(1.00115 -0.00649254 -4.98371e-16)
(1.00115 -0.00687032 1.1102e-15)
(1.00105 -0.00743976 1.40189e-15)
(1.00159 -0.0101084 4.88426e-17)
(0.999466 -3.45148e-05 3.5867e-17)
(0.999284 -0.000572145 -4.7745e-17)
(0.999106 -0.00103707 2.30173e-16)
(0.999072 -0.00158799 -4.58497e-17)
(0.999247 -0.00230383 -1.74923e-16)
(0.999556 -0.00316808 7.41969e-17)
(0.999911 -0.00406454 -1.3032e-16)
(1.00024 -0.00484528 2.95156e-16)
(1.00053 -0.00544821 7.76548e-17)
(1.00078 -0.00588643 5.43331e-17)
(1.00099 -0.00622631 -2.59554e-16)
(1.00122 -0.00654072 3.45058e-16)
(1.00123 -0.00690734 1.76372e-16)
(1.00111 -0.0074651 1.58809e-16)
(1.00167 -0.0101222 4.14647e-16)
(0.999419 -4.64306e-05 -1.84386e-17)
(0.999256 -0.000640848 2.73372e-17)
(0.999099 -0.00116668 -3.7305e-16)
(0.999093 -0.00176177 -2.38592e-16)
(0.999285 -0.00249713 3.30268e-16)
(0.999603 -0.00335008 -8.94677e-17)
(0.999962 -0.00421796 5.23052e-16)
(1.00029 -0.00496631 -1.42218e-16)
(1.00059 -0.00554179 -7.58346e-18)
(1.00084 -0.00595968 -1.51128e-16)
(1.00105 -0.00628636 3.88437e-16)
(1.00129 -0.00659206 -2.45215e-16)
(1.00129 -0.00694807 -8.08374e-16)
(1.00117 -0.00749479 -1.93871e-16)
(1.00174 -0.0101421 -4.73863e-16)
(0.999365 -5.99612e-05 2.48083e-17)
(0.99922 -0.000709483 1.12869e-16)
(0.999081 -0.00129242 3.36156e-16)
(0.9991 -0.00192687 2.60846e-16)
(0.999306 -0.00267801 -3.21885e-17)
(0.999632 -0.0035189 -1.30687e-16)
(0.999995 -0.00436009 -5.79047e-16)
(1.00033 -0.00507929 -6.7414e-17)
(1.00063 -0.00563077 -3.44666e-16)
(1.00089 -0.00603121 1.11729e-16)
(1.0011 -0.00634669 -7.11933e-16)
(1.00134 -0.0066451 3.43963e-16)
(1.00134 -0.00699108 1.16449e-15)
(1.00122 -0.00752732 -9.04589e-16)
(1.00181 -0.0101687 5.52085e-16)
(0.999306 -7.41166e-05 -2.00076e-17)
(0.999176 -0.000775783 -1.58791e-16)
(0.999054 -0.00141141 -1.92358e-16)
(0.999093 -0.0020808 -9.59181e-17)
(0.999312 -0.00284479 -6.14609e-17)
(0.999644 -0.00367372 8.44134e-17)
(1.00001 -0.00449054 -3.23402e-17)
(1.00035 -0.00518388 -4.44835e-16)
(1.00066 -0.00571466 -1.31052e-16)
(1.00092 -0.00610029 -3.30447e-17)
(1.00114 -0.00640634 6.48006e-16)
(1.00138 -0.00669868 1.08553e-16)
(1.00139 -0.00703518 -9.68254e-16)
(1.00127 -0.00756153 5.17718e-16)
(1.00187 -0.010198 -1.06905e-16)
(0.999242 -8.81559e-05 1.80613e-17)
(0.999126 -0.000838203 9.33446e-17)
(0.999017 -0.00152179 9.25526e-17)
(0.999076 -0.00222207 1.79958e-16)
(0.999304 -0.00299675 -9.80829e-17)
(0.999642 -0.00381435 -2.75932e-17)
(1.00001 -0.00460939 1.99637e-16)
(1.00036 -0.00528013 2.98675e-16)
(1.00067 -0.0057933 -2.15152e-17)
(1.00095 -0.00616654 -3.61306e-16)
(1.00118 -0.00646477 -2.78046e-16)
(1.00142 -0.00675213 -4.89526e-16)
(1.00143 -0.00707981 2.05864e-17)
(1.00131 -0.00759686 2.68041e-16)
(1.00193 -0.010232 -1.67044e-16)
(0.999173 -0.000101453 -9.66315e-18)
(0.999071 -0.000895602 -5.52234e-17)
(0.998973 -0.00162236 1.40499e-16)
(0.999048 -0.00234995 1.47032e-17)
(0.999285 -0.00313371 -1.24817e-16)
(0.999628 -0.00394106 1.00734e-16)
(1 -0.00471698 -4.81779e-17)
(1.00036 -0.00536827 2.75326e-16)
(1.00068 -0.00586669 5.09309e-16)
(1.00096 -0.00622976 7.9185e-17)
(1.0012 -0.00652157 2.3994e-16)
(1.00145 -0.00680493 2.44616e-16)
(1.00147 -0.00712437 6.05424e-17)
(1.00136 -0.00763273 -5.51683e-16)
(1.00199 -0.0102669 1.37803e-16)
(0.9991 -0.000113616 1.29276e-17)
(0.99901 -0.000947408 1.16339e-17)
(0.998923 -0.00171266 -2.87045e-16)
(0.999012 -0.0024644 -1.25408e-16)
(0.999255 -0.00325611 1.7634e-16)
(0.999604 -0.00405453 -2.75428e-17)
(0.999985 -0.00481398 1.84377e-16)
(1.00035 -0.00544883 -2.45214e-16)
(1.00067 -0.00593512 1.39905e-16)
(1.00097 -0.00628999 1.16506e-16)
(1.00122 -0.00657667 1.23108e-16)
(1.00147 -0.0068569 1.56909e-16)
(1.0015 -0.00716878 2.18702e-16)
(1.0014 -0.00766896 3.10022e-17)
(1.00205 -0.0103058 8.10247e-17)
(0.999024 -0.000124338 -3.97883e-17)
(0.998944 -0.000993296 1.05266e-16)
(0.998867 -0.00179261 1.64776e-16)
(0.998968 -0.00256581 -1.05466e-16)
(0.999218 -0.00336471 -6.85902e-17)
(0.999571 -0.00415567 3.90656e-17)
(0.999957 -0.00490125 -2.00889e-16)
(1.00033 -0.00552242 -1.31576e-16)
(1.00067 -0.00599897 -1.73055e-16)
(1.00097 -0.00634744 2.75293e-16)
(1.00123 -0.00663011 -3.82374e-16)
(1.00149 -0.00690799 2.99144e-16)
(1.00154 -0.00721288 1.46909e-16)
(1.00144 -0.00770546 5.53894e-16)
(1.0021 -0.0103452 -5.2214e-16)
(0.998945 -0.000133494 1.6784e-17)
(0.998875 -0.00103333 -7.92335e-17)
(0.998806 -0.00186261 5.79822e-17)
(0.998918 -0.00265496 1.283e-16)
(0.999172 -0.00346061 -8.89649e-17)
(0.99953 -0.00424563 -1.50474e-16)
(0.999922 -0.0049798 -7.13248e-17)
(1.0003 -0.00558985 9.84109e-17)
(1.00065 -0.00605882 -4.50619e-16)
(1.00097 -0.00640248 6.65437e-17)
(1.00124 -0.00668217 2.54044e-16)
(1.00151 -0.00695838 -7.11176e-16)
(1.00157 -0.00725692 1.43984e-16)
(1.00148 -0.00774251 2.22276e-17)
(1.00215 -0.0103877 3.84839e-16)
(0.998864 -0.000141002 -6.3808e-18)
(0.998802 -0.00106766 9.7052e-17)
(0.99874 -0.0019232 -9.38137e-17)
(0.998862 -0.0027328 -5.82223e-17)
(0.999121 -0.00354494 -9.28494e-17)
(0.999483 -0.00432558 -4.91274e-17)
(0.99988 -0.00505063 -1.06086e-16)
(1.00027 -0.0056519 7.58364e-17)
(1.00063 -0.00611518 2.92275e-17)
(1.00096 -0.00645545 -3.12368e-16)
(1.00124 -0.00673302 -3.73083e-16)
(1.00153 -0.00700815 4.14552e-16)
(1.00159 -0.00730085 -3.62826e-16)
(1.00151 -0.00778006 -1.16368e-16)
(1.0022 -0.0104302 -1.17877e-17)
(0.99878 -0.000146915 -1.92968e-17)
(0.998726 -0.00109671 -4.48544e-17)
(0.998671 -0.00197518 3.16521e-17)
(0.998801 -0.00280044 2.25633e-16)
(0.999064 -0.003619 3.77012e-16)
(0.999431 -0.00439674 3.08013e-16)
(0.999834 -0.0051148 3.36871e-16)
(1.00023 -0.00570938 -2.15165e-16)
(1.0006 -0.00616869 9.51412e-20)
(1.00095 -0.00650678 2.339e-16)
(1.00124 -0.00678301 4.61211e-17)
(1.00154 -0.00705757 2.54714e-16)
(1.00162 -0.00734495 2.05227e-16)
(1.00155 -0.00781832 -5.41626e-16)
(1.00225 -0.0104763 -3.66063e-16)
(0.998695 -0.000151284 9.93044e-18)
(0.998647 -0.00112086 -8.10128e-17)
(0.998598 -0.00201935 -1.62051e-16)
(0.998736 -0.00285898 -1.59124e-16)
(0.999003 -0.00368403 1.45884e-17)
(0.999374 -0.00446031 -1.73875e-16)
(0.999783 -0.00517329 -3.78973e-16)
(1.00019 -0.00576307 2.89602e-16)
(1.00058 -0.00621989 2.35833e-16)
(1.00093 -0.00655687 -5.2056e-16)
(1.00124 -0.00683243 4.27558e-16)
(1.00155 -0.0071068 -3.12217e-16)
(1.00164 -0.0073893 -1.44304e-16)
(1.00158 -0.00785734 -1.2712e-16)
(1.0023 -0.0105226 1.56054e-16)
(0.998608 -0.000154255 3.77755e-17)
(0.998565 -0.00114067 1.73795e-17)
(0.998522 -0.00205663 8.76413e-17)
(0.998668 -0.00290962 4.06851e-17)
(0.998938 -0.0037413 4.78691e-17)
(0.999313 -0.00451746 3.00625e-16)
(0.999728 -0.00522711 -1.35954e-16)
(1.00014 -0.00581376 1.48755e-16)
(1.00054 -0.00626941 8.55292e-17)
(1.00091 -0.00660621 5.96936e-17)
(1.00124 -0.00688165 1.9905e-16)
(1.00156 -0.0071562 -4.25132e-17)
(1.00167 -0.00743427 9.47376e-18)
(1.00162 -0.0078974 8.86469e-16)
(1.00234 -0.0105727 2.90101e-18)
(0.998519 -0.000155942 -3.66645e-17)
(0.998482 -0.0011566 -1.26588e-17)
(0.998444 -0.00208784 5.72692e-17)
(0.998596 -0.00295338 -1.74662e-16)
(0.998869 -0.00379191 -2.79913e-16)
(0.999249 -0.00456919 -2.68424e-16)
(0.999671 -0.00527707 2.27698e-16)
(1.0001 -0.00586207 -8.34008e-17)
(1.00051 -0.00631768 9.72885e-18)
(1.0009 -0.0066551 -5.03131e-18)
(1.00124 -0.00693089 -2.74974e-16)
(1.00157 -0.00720588 -2.48937e-16)
(1.00169 -0.00747983 -1.60967e-16)
(1.00166 -0.0079384 2.46245e-17)
(1.00239 -0.010623 -5.71818e-17)
(0.99843 -0.000156524 -1.82928e-17)
(0.998396 -0.0011692 4.84194e-17)
(0.998364 -0.00211386 4.76263e-17)
(0.998521 -0.00299134 7.75596e-17)
(0.998798 -0.00383695 1.06131e-16)
(0.999182 -0.0046165 1.67926e-18)
(0.999611 -0.00532401 2.27521e-16)
(1.00005 -0.00590867 -5.07966e-16)
(1.00048 -0.00636521 2.59346e-16)
(1.00088 -0.00670392 2.6485e-16)
(1.00123 -0.00698046 -3.79399e-16)
(1.00158 -0.00725612 7.09803e-16)
(1.00172 -0.00752627 3.74658e-16)
(1.00169 -0.00798053 -7.03233e-16)
(1.00244 -0.0106769 -2.15524e-16)
(0.99834 -0.000156132 3.78292e-17)
(0.99831 -0.00117893 2.93546e-17)
(0.998282 -0.00213542 4.55592e-18)
(0.998444 -0.00302437 -3.47576e-17)
(0.998724 -0.00387736 2.0156e-17)
(0.999112 -0.00466021 2.8486e-16)
(0.999549 -0.00536858 -4.5999e-17)
(0.999998 -0.00595406 3.25969e-16)
(1.00044 -0.00641237 -4.83288e-17)
(1.00085 -0.00675296 -2.92921e-16)
(1.00123 -0.00703056 6.0696e-16)
(1.00159 -0.00730703 -3.64914e-16)
(1.00174 -0.00757362 -4.95379e-16)
(1.00173 -0.0080238 2.10951e-16)
(1.00249 -0.0107308 3.63468e-16)
(0.998248 -0.000154942 -3.14472e-17)
(0.998221 -0.00118629 -1.32756e-17)
(0.998198 -0.00215329 -1.72899e-16)
(0.998365 -0.00305338 -8.44972e-17)
(0.998648 -0.00391402 5.20518e-17)
(0.999041 -0.00470113 -2.8758e-16)
(0.999485 -0.00541149 -8.46406e-17)
(0.999946 -0.00599878 2.84013e-16)
(1.0004 -0.00645961 -2.40555e-16)
(1.00083 -0.00680256 7.06487e-17)
(1.00122 -0.0070815 -3.37968e-16)
(1.0016 -0.00735891 1.06509e-17)
(1.00177 -0.00762222 2.68108e-16)
(1.00176 -0.00806849 1.42113e-16)
(1.00254 -0.0107884 -5.70558e-17)
(0.998157 -0.000153072 2.99931e-17)
(0.998131 -0.00119164 -9.7304e-17)
(0.998113 -0.00216806 8.17006e-17)
(0.998284 -0.00307905 5.35055e-17)
(0.99857 -0.00394766 -4.038e-17)
(0.998968 -0.00473989 -1.72672e-16)
(0.99942 -0.0054532 5.24181e-17)
(0.999893 -0.0060432 -1.3024e-16)
(1.00036 -0.00650716 -2.19827e-16)
(1.00081 -0.00685288 -2.74923e-17)
(1.00121 -0.00713336 -4.88395e-16)
(1.00161 -0.00741178 5.00756e-16)
(1.00179 -0.00767197 3.90301e-17)
(1.0018 -0.00811443 -8.11412e-17)
(1.00258 -0.010846 -8.1385e-18)
(0.998064 -0.00015068 -3.67729e-17)
(0.998041 -0.0011954 1.00133e-16)
(0.998026 -0.00218033 -2.30081e-17)
(0.998201 -0.00310207 -2.09595e-16)
(0.99849 -0.00397895 -9.99653e-17)
(0.998893 -0.00477706 1.16255e-16)
(0.999354 -0.00549422 -1.70756e-16)
(0.999838 -0.0060877 -1.91546e-16)
(1.00032 -0.00655534 3.26416e-16)
(1.00078 -0.00690417 1.13748e-16)
(1.00121 -0.00718638 5.12436e-16)
(1.00162 -0.00746585 -3.8615e-16)
(1.00182 -0.00772311 1.39147e-16)
(1.00184 -0.00816181 -1.57827e-16)
(1.00263 -0.0109072 5.42265e-18)
(0.997971 -0.000147861 2.27599e-17)
(0.997949 -0.00119786 -5.79391e-17)
(0.997938 -0.00219057 7.19621e-17)
(0.998117 -0.00312298 3.12316e-16)
(0.998409 -0.00400842 1.32597e-16)
(0.998818 -0.00481314 8.23592e-17)
(0.999286 -0.00553491 3.39091e-16)
(0.999783 -0.00613257 1.61368e-16)
(1.00028 -0.00660436 -2.66183e-16)
(1.00076 -0.00695658 4.54168e-16)
(1.0012 -0.00724063 2.52945e-16)
(1.00163 -0.00752117 -2.14505e-16)
(1.00184 -0.00777559 -4.11466e-16)
(1.00188 -0.00821059 -1.61099e-16)
(1.00268 -0.0109684 6.41301e-17)
(0.997878 -0.000144743 4.67089e-18)
(0.997856 -0.00119934 -1.23358e-16)
(0.99785 -0.00219926 -9.1587e-17)
(0.998031 -0.00314231 -2.14943e-16)
(0.998327 -0.00403662 3.45129e-17)
(0.998741 -0.00484858 -3.34334e-16)
(0.999218 -0.00557568 -3.59955e-16)
(0.999727 -0.00617813 -1.45004e-16)
(1.00024 -0.00665448 3.0934e-16)
(1.00074 -0.00701034 -3.29066e-16)
(1.00119 -0.00729635 1.16515e-16)
(1.00164 -0.00757797 2.17059e-16)
(1.00187 -0.00782971 3.30457e-16)
(1.00192 -0.00826105 2.03163e-16)
(1.00273 -0.0110333 1.77855e-17)
(0.997785 -0.000141393 3.28145e-17)
(0.997763 -0.00120005 2.01598e-16)
(0.99776 -0.00220671 9.38358e-17)
(0.997944 -0.00316042 1.80433e-16)
(0.998244 -0.00406391 1.08114e-16)
(0.998663 -0.00488369 4.57266e-17)
(0.999149 -0.00561674 5.27511e-17)
(0.999671 -0.00622453 -1.2132e-16)
(1.0002 -0.0067058 -1.23239e-16)
(1.00071 -0.0070655 1.4462e-17)
(1.00118 -0.00735353 -7.96293e-16)
(1.00165 -0.00763619 -3.11618e-16)
(1.0019 -0.0078853 3.28627e-16)
(1.00196 -0.00831295 -7.38467e-17)
(1.00278 -0.0110982 -2.10942e-16)
(0.997691 -0.000137913 -4.4103e-17)
(0.997669 -0.00120024 -1.29145e-16)
(0.997669 -0.00221329 -1.85496e-16)
(0.997856 -0.0031777 6.09509e-17)
(0.998159 -0.00409066 -2.0522e-16)
(0.998585 -0.0049188 3.83261e-17)
(0.99908 -0.00565839 -4.74039e-17)
(0.999614 -0.00627201 -8.64228e-18)
(1.00016 -0.0067585 -1.47222e-16)
(1.00069 -0.00712222 -7.73066e-17)
(1.00118 -0.00741233 2.74334e-17)
(1.00166 -0.00769602 2.70605e-16)
(1.00192 -0.00794258 -1.36781e-16)
(1.002 -0.00836651 2.7207e-16)
(1.00283 -0.0111667 9.91543e-17)
(0.997597 -0.000134345 2.35604e-17)
(0.997574 -0.00120004 1.23671e-16)
(0.997578 -0.00221921 2.35605e-16)
(0.997767 -0.00319441 -6.81196e-17)
(0.998074 -0.00411713 -1.65528e-17)
(0.998505 -0.00495414 2.50692e-16)
(0.99901 -0.00570079 2.13449e-16)
(0.999557 -0.00632069 -1.46436e-16)
(1.00012 -0.00681268 3.93031e-16)
(1.00066 -0.00718056 3.57123e-16)
(1.00117 -0.00747278 3.80391e-16)
(1.00167 -0.00775743 -1.76033e-17)
(1.00195 -0.00800145 -3.03268e-16)
(1.00204 -0.00842163 -3.20948e-16)
(1.00288 -0.0112352 -3.19116e-17)
(0.997503 -0.000130766 -2.01839e-17)
(0.997479 -0.00119965 -6.53015e-17)
(0.997486 -0.00222476 -1.95219e-16)
(0.997677 -0.00321083 1.2566e-16)
(0.997988 -0.00414363 1.20666e-16)
(0.998425 -0.00498997 -1.67776e-16)
(0.998939 -0.00574417 -8.48445e-17)
(0.9995 -0.00637076 8.45775e-18)
(1.00008 -0.00686851 -1.74684e-16)
(1.00064 -0.0072407 -3.05971e-16)
(1.00117 -0.00753507 -5.65482e-16)
(1.00168 -0.00782064 6.11973e-17)
(1.00198 -0.0080622 3.70243e-16)
(1.00208 -0.00847858 3.37779e-16)
(1.00293 -0.0113075 -7.32944e-17)
(0.997409 -0.000127196 -1.60495e-17)
(0.997383 -0.00119912 -1.31282e-17)
(0.997393 -0.00223006 1.70769e-16)
(0.997586 -0.00322714 -1.61223e-16)
(0.997901 -0.0041703 -3.18829e-16)
(0.998345 -0.00502641 1.54932e-16)
(0.998868 -0.00578861 8.80254e-17)
(0.999442 -0.00642228 4.08347e-16)
(1.00004 -0.00692601 5.84547e-17)
(1.00062 -0.0073026 2.84853e-16)
(1.00116 -0.00759912 8.47366e-16)
(1.00169 -0.00788555 -2.32968e-16)
(1.00201 -0.0081246 -9.91702e-17)
(1.00213 -0.00853711 -1.17916e-17)
(1.00298 -0.0113796 -2.92153e-17)
(0.997314 -0.000123692 4.48845e-17)
(0.997287 -0.00119861 4.9021e-17)
(0.9973 -0.00223531 -1.46827e-16)
(0.997495 -0.00324351 1.36437e-16)
(0.997813 -0.00419734 -9.18618e-17)
(0.998264 -0.00506365 -2.96281e-16)
(0.998797 -0.00583428 1.30173e-17)
(0.999385 -0.00647537 -3.51365e-17)
(0.999995 -0.00698531 -2.1687e-16)
(1.00059 -0.0073664 1.83065e-16)
(1.00116 -0.00766509 -7.9089e-16)
(1.00171 -0.00795231 -1.44238e-17)
(1.00204 -0.00818889 -1.77131e-16)
(1.00217 -0.00859743 3.33411e-17)
(1.00303 -0.0114556 -8.65086e-17)
(0.99722 -0.00012026 -1.14558e-17)
(0.99719 -0.00119815 -1.16932e-17)
(0.997206 -0.00224059 2.03259e-17)
(0.997402 -0.00326007 -1.51708e-16)
(0.997725 -0.00422488 -2.71723e-17)
(0.998182 -0.00510177 3.61761e-16)
(0.998726 -0.00588123 -2.64038e-16)
(0.999327 -0.00653008 -3.27586e-16)
(0.999953 -0.00704642 3.51376e-16)
(1.00057 -0.0074321 -3.18513e-16)
(1.00115 -0.00773295 4.03823e-16)
(1.00172 -0.00802087 3.82874e-16)
(1.00208 -0.00825492 2.76602e-16)
(1.00222 -0.0086594 -1.85462e-16)
(1.00308 -0.0115314 -6.52563e-17)
(0.997125 -0.000116944 -1.23449e-17)
(0.997093 -0.00119784 -7.16263e-17)
(0.997111 -0.00224606 -9.64432e-17)
(0.997309 -0.00327697 7.08428e-17)
(0.997636 -0.00425306 1.79786e-16)
(0.9981 -0.00514093 6.30915e-17)
(0.998654 -0.00592963 2.45338e-16)
(0.999269 -0.00658657 5.37588e-17)
(0.999912 -0.0071095 -4.61958e-16)
(1.00055 -0.00749985 1.61909e-16)
(1.00115 -0.00780288 -2.2932e-16)
(1.00174 -0.00809146 -1.90903e-16)
(1.00211 -0.00832301 -2.57904e-16)
(1.00226 -0.00872333 4.10688e-17)
(1.00314 -0.0116112 1.57527e-16)
(0.99703 -0.000113733 -1.8934e-17)
(0.996995 -0.00119769 3.4113e-17)
(0.997016 -0.00225174 4.12299e-17)
(0.997215 -0.00329425 -1.41933e-16)
(0.997546 -0.00428194 6.93633e-17)
(0.998017 -0.00518116 -2.10679e-16)
(0.998582 -0.00597947 -2.58738e-17)
(0.999211 -0.0066448 3.17958e-16)
(0.999871 -0.0071745 -2.03151e-16)
(1.00052 -0.00756961 -2.69094e-16)
(1.00114 -0.00787478 2.31568e-16)
(1.00175 -0.00816392 -6.88996e-17)
(1.00215 -0.00839288 -7.3087e-16)
(1.00231 -0.0087889 7.51557e-17)
(1.00319 -0.0116907 1.13406e-16)
(0.996934 -0.000110664 -9.73366e-18)
(0.996897 -0.00119776 3.32471e-17)
(0.99692 -0.00225775 1.25656e-17)
(0.99712 -0.00331203 1.89522e-17)
(0.997456 -0.00431163 1.19608e-16)
(0.997934 -0.00522258 6.65768e-17)
(0.998509 -0.00603086 -2.19589e-16)
(0.999153 -0.00670488 -2.0117e-17)
(0.99983 -0.00724153 6.08478e-16)
(1.0005 -0.00764147 -1.95519e-16)
(1.00114 -0.00794879 -5.7641e-18)
(1.00177 -0.00823843 2.90401e-17)
(1.00218 -0.00846479 2.81293e-17)
(1.00236 -0.00885637 -5.20262e-17)
(1.00324 -0.0117741 1.78947e-17)
(0.996839 -0.000107719 2.56748e-17)
(0.996798 -0.00119805 -6.77973e-17)
(0.996823 -0.00226408 -7.74175e-17)
(0.997025 -0.00333033 1.83328e-19)
(0.997365 -0.00434217 -1.80557e-16)
(0.99785 -0.0052652 -2.88668e-17)
(0.998436 -0.00608382 4.26658e-17)
(0.999095 -0.00676682 -4.83888e-17)
(0.99979 -0.00731059 -4.11914e-16)
(1.00048 -0.00771543 5.49495e-16)
(1.00114 -0.00802487 -3.14228e-17)
(1.00179 -0.00831491 -5.76813e-17)
(1.00222 -0.00853855 3.41083e-16)
(1.00241 -0.00892557 -3.85549e-16)
(1.0033 -0.0118572 8.40937e-18)
(0.996743 -0.000104928 2.72371e-18)
(0.996699 -0.00119862 8.13023e-17)
(0.996726 -0.00227084 2.18588e-16)
(0.996928 -0.00334924 -5.51051e-17)
(0.997273 -0.00437366 1.17314e-16)
(0.997765 -0.00530914 -1.825e-16)
(0.998363 -0.00613846 -2.18951e-16)
(0.999036 -0.00683074 5.25233e-18)
(0.999749 -0.00738181 2.39784e-16)
(1.00046 -0.00779163 -4.79557e-16)
(1.00114 -0.0081032 1.19697e-16)
(1.0018 -0.0083936 -2.08561e-17)
(1.00226 -0.00861452 2.63473e-16)
(1.00246 -0.00899684 8.20545e-17)
(1.00335 -0.0119446 -1.32003e-16)
(0.996647 -0.000102265 1.0463e-18)
(0.996599 -0.00119943 -8.8202e-17)
(0.996627 -0.00227801 -1.24693e-16)
(0.996831 -0.00336876 2.07064e-17)
(0.99718 -0.00440609 -2.17888e-17)
(0.99768 -0.00535439 1.65697e-16)
(0.99829 -0.00619475 3.59541e-16)
(0.998978 -0.0068966 -3.19512e-16)
(0.999709 -0.00745512 3.64193e-16)
(1.00044 -0.00787 3.2276e-17)
(1.00114 -0.00818366 7.17487e-17)
(1.00182 -0.00847431 -1.38942e-16)
(1.00229 -0.00869238 2.69137e-16)
(1.00252 -0.00906983 1.53747e-16)
(1.00341 -0.0120315 2.07524e-16)
(0.996551 -9.97552e-05 -8.54623e-18)
(0.996499 -0.00120052 8.4103e-17)
(0.996529 -0.00228564 1.53514e-16)
(0.996733 -0.00338896 5.31173e-17)
(0.997087 -0.00443954 1.55391e-16)
(0.997595 -0.00540102 1.19554e-16)
(0.998216 -0.00625279 -3.22696e-16)
(0.998919 -0.00696447 6.47943e-16)
(0.999669 -0.00753064 -2.04336e-16)
(1.00042 -0.00795064 -6.80865e-17)
(1.00114 -0.0082664 -2.4704e-16)
(1.00184 -0.00855723 -1.0876e-16)
(1.00233 -0.00877241 -2.99492e-16)
(1.00257 -0.00914482 -1.11227e-16)
(1.00347 -0.0121225 4.98973e-17)
(0.996454 -9.73725e-05 -3.03338e-17)
(0.996398 -0.00120187 -8.98944e-17)
(0.996429 -0.00229371 -1.08006e-17)
(0.996635 -0.00340982 1.05551e-16)
(0.996993 -0.00447401 -1.41425e-16)
(0.997509 -0.00544903 -1.03999e-16)
(0.998142 -0.00631254 4.03784e-16)
(0.998861 -0.00703435 -1.2094e-16)
(0.999628 -0.00760833 -5.17485e-16)
(1.0004 -0.00803352 7.13935e-17)
(1.00114 -0.00835135 -1.25415e-16)
(1.00187 -0.00864226 2.32662e-16)
(1.00238 -0.00885442 3.7392e-16)
(1.00263 -0.00922161 3.35786e-16)
(1.00353 -0.0122131 -2.91008e-16)
(0.996357 -9.51398e-05 1.83734e-18)
(0.996297 -0.00120351 -1.73023e-17)
(0.996329 -0.00230229 -7.1795e-17)
(0.996535 -0.00343143 4.47452e-17)
(0.996899 -0.00450957 -7.83567e-17)
(0.997422 -0.00549852 1.33877e-16)
(0.998067 -0.00637414 -1.15993e-16)
(0.998802 -0.00710637 3.98114e-17)
(0.999589 -0.00768834 -1.08387e-16)
(1.00038 -0.00811881 2.76514e-16)
(1.00114 -0.00843872 3.39128e-16)
(1.00189 -0.00872966 1.96308e-18)
(1.00242 -0.00893876 -5.95047e-16)
(1.00268 -0.00930058 -4.08221e-16)
(1.00359 -0.0123081 2.87815e-16)