1.45 	0 	0 	0.00716912 	-0.00419345 	3.92867e-21
2.35 	0 	0 	0.129729 	-0.00898779 	1.76281e-21
