/*--------------------------------*- C++ -*----------------------------------*\
  =========                 |
  \\      /  F ield         | OpenFOAM: The Open Source CFD Toolbox
   \\    /   O peration     | Website:  https://openfoam.org
    \\  /    A nd           | Version:  6.0
     \\/     M anipulation  |
\*---------------------------------------------------------------------------*/
FoamFile
{
    version     2.0;
    format      ascii;
    class       volVectorField;
    location    "0.1";
    object      U;
}
// * * * * * * * * * * * * * * * * * * * * * * * * * * * * * * * * * * * * * //

dimensions      [0 1 -1 0 0 0 0];

internalField   nonuniform List<vector> 
800
(
(0.000363507 -0.000362758 0)
(0.000376626 3.65679e-05 0)
(-0.00106745 0.000603341 0)
(-0.00383068 0.0010486 0)
(-0.00754541 0.00133492 0)
(-0.0118308 0.00148009 0)
(-0.0163586 0.00151471 0)
(-0.0208734 0.00147039 0)
(-0.0251924 0.00137452 0)
(-0.0291965 0.00124878 0)
(-0.0328179 0.00110946 0)
(-0.0360277 0.000968096 0)
(-0.0388251 0.000832304 0)
(-0.0412275 0.00070658 0)
(-0.043263 0.00059299 0)
(-0.0449638 0.000491768 0)
(-0.0463619 0.000401784 0)
(-0.0474849 0.000320903 0)
(-0.0483538 0.000246253 0)
(-0.0489808 0.000174424 0)
(-0.049368 0.00010162 0)
(-0.0495065 2.38011e-05 0)
(-0.0493759 -6.31595e-05 0)
(-0.0489447 -0.000163274 0)
(-0.0481712 -0.000280157 0)
(-0.0470054 -0.000416626 0)
(-0.0453923 -0.000574179 0)
(-0.0432769 -0.000752319 0)
(-0.0406108 -0.000947752 0)
(-0.0373617 -0.0011535 0)
(-0.0335244 -0.00135801 0)
(-0.0291336 -0.00154444 0)
(-0.0242788 -0.00169015 0)
(-0.0191169 -0.0017668 0)
(-0.0138845 -0.00174114 0)
(-0.00890313 -0.00157762 0)
(-0.0045722 -0.00124486 0)
(-0.0013399 -0.000727888 0)
(0.000371027 -7.28703e-05 0)
(0.000399108 0.000396061 0)
(-1.83389e-05 -0.000396072 0)
(-0.00171566 0.00172617 0)
(-0.00660548 0.00427508 0)
(-0.0142123 0.00635189 0)
(-0.023822 0.00776326 0)
(-0.0346994 0.00853102 0)
(-0.0461541 0.00875697 0)
(-0.0576102 0.00856881 0)
(-0.0686323 0.00809042 0)
(-0.0789203 0.00742871 0)
(-0.0882902 0.00666937 0)
(-0.0966514 0.00587682 0)
(-0.103983 0.00509612 0)
(-0.11031 0.00435583 0)
(-0.115691 0.00367097 0)
(-0.120193 0.00304593 0)
(-0.123887 0.00247684 0)
(-0.126836 0.00195366 0)
(-0.129089 0.00146173 0)
(-0.130671 0.000983145 0)
(-0.131586 0.000497753 0)
(-0.131813 -1.57664e-05 0)
(-0.131303 -0.000578831 0)
(-0.12998 -0.00121162 0)
(-0.127749 -0.00193136 0)
(-0.124496 -0.00275009 0)
(-0.120097 -0.00367185 0)
(-0.114435 -0.00468925 0)
(-0.107412 -0.00577964 0)
(-0.0989722 -0.00690106 0)
(-0.0891269 -0.00798871 0)
(-0.0779839 -0.00895257 0)
(-0.0657758 -0.00967736 0)
(-0.0528855 -0.0100261 0)
(-0.0398629 -0.00984923 0)
(-0.0274216 -0.00900343 0)
(-0.0163976 -0.00738657 0)
(-0.00765899 -0.0049952 0)
(-0.0020279 -0.00206595 0)
(-4.39436e-05 0.000391268 0)
(-0.000595491 0.00102668 0)
(-0.00439221 0.00663758 0)
(-0.0128826 0.0125629 0)
(-0.0249782 0.0173987 0)
(-0.0396299 0.0207423 0)
(-0.0558821 0.022596 0)
(-0.072828 0.0231539 0)
(-0.0896968 0.0226897 0)
(-0.105897 0.0214864 0)
(-0.121015 0.0198001 0)
(-0.134791 0.0178427 0)
(-0.147097 0.0157784 0)
(-0.157897 0.0137247 0)
(-0.167227 0.0117582 0)
(-0.175159 0.00992115 0)
(-0.18179 0.00822786 0)
(-0.187217 0.0066711 0)
(-0.191527 0.00522706 0)
(-0.194787 0.00385972 0)
(-0.197034 0.00252434 0)
(-0.198275 0.00117052 0)
(-0.198477 -0.000254941 0)
(-0.197576 -0.00180499 0)
(-0.195469 -0.00352874 0)
(-0.192023 -0.00546695 0)
(-0.187086 -0.00764633 0)
(-0.180491 -0.0100726 0)
(-0.17208 -0.0127223 0)
(-0.161723 -0.0155334 0)
(-0.149351 -0.0183966 0)
(-0.134983 -0.0211473 0)
(-0.118771 -0.0235621 0)
(-0.101031 -0.0253608 0)
(-0.0822806 -0.0262191 0)
(-0.0632549 -0.025796 0)
(-0.0448988 -0.0237838 0)
(-0.0283053 -0.0199898 0)
(-0.0146016 -0.0144569 0)
(-0.00498871 -0.00768418 0)
(-0.000683064 -0.00125709 0)
(-0.00111191 0.00389502 0)
(-0.00690483 0.0146133 0)
(-0.0188412 0.0248805 0)
(-0.0350708 0.0330721 0)
(-0.0541403 0.0386797 0)
(-0.0748851 0.041737 0)
(-0.0962373 0.0425675 0)
(-0.117303 0.0416261 0)
(-0.137405 0.0393916 0)
(-0.156078 0.0363034 0)
(-0.173035 0.0327309 0)
(-0.188139 0.0289622 0)
(-0.201366 0.025206 0)
(-0.212766 0.0215993 0)
(-0.222437 0.0182183 0)
(-0.230498 0.0150901 0)
(-0.237071 0.0122025 0)
(-0.242263 0.0095142 0)
(-0.246155 0.00696177 0)
(-0.248797 0.00446636 0)
(-0.250196 0.0019392 0)
(-0.250319 -0.000713186 0)
(-0.249091 -0.00358341 0)
(-0.246394 -0.00675684 0)
(-0.242074 -0.0103037 0)
(-0.235951 -0.0142691 0)
(-0.22783 -0.0186613 0)
(-0.217521 -0.0234372 0)
(-0.204864 -0.0284872 0)
(-0.189763 -0.0336199 0)
(-0.172222 -0.0385494 0)
(-0.152392 -0.0428891 0)
(-0.130614 -0.0461575 0)
(-0.107456 -0.047801 0)
(-0.0837475 -0.0472432 0)
(-0.0605725 -0.0439686 0)
(-0.039211 -0.0376513 0)
(-0.0210334 -0.0283273 0)
(-0.00769289 -0.0166516 0)
(-0.00123577 -0.00448269 0)
(-0.00154342 0.00802969 0)
(-0.00912194 0.0253681 0)
(-0.0242092 0.0407912 0)
(-0.0441595 0.0527048 0)
(-0.0670629 0.0606534 0)
(-0.0915254 0.0648038 0)
(-0.116336 0.0656768 0)
(-0.140521 0.0639564 0)
(-0.163372 0.0603512 0)
(-0.18442 0.055509 0)
(-0.203399 0.0499734 0)
(-0.220202 0.0441686 0)
(-0.234837 0.0384007 0)
(-0.247389 0.0328701 0)
(-0.257988 0.0276874 0)
(-0.266782 0.0228898 0)
(-0.273917 0.018458 0)
(-0.279518 0.0143285 0)
(-0.283682 0.0104062 0)
(-0.286469 0.00657332 0)
(-0.287892 0.00269773 0)
(-0.287922 -0.00135929 0)
(-0.286479 -0.00573504 0)
(-0.28344 -0.0105561 0)
(-0.278639 -0.0159271 0)
(-0.271879 -0.0219165 0)
(-0.26294 -0.028539 0)
(-0.251603 -0.0357359 0)
(-0.237671 -0.0433521 0)
(-0.221003 -0.0511134 0)
(-0.201558 -0.0586081 0)
(-0.179438 -0.065276 0)
(-0.154947 -0.0704151 0)
(-0.12864 -0.073213 0)
(-0.101367 -0.0728149 0)
(-0.0742982 -0.0684384 0)
(-0.0488745 -0.0595435 0)
(-0.0267314 -0.0460457 0)
(-0.0100327 -0.0285886 0)
(-0.00168545 -0.00905048 0)
(-0.00190907 0.0132529 0)
(-0.0110708 0.0386193 0)
(-0.0289848 0.0599451 0)
(-0.0522155 0.0758367 0)
(-0.0783638 0.0860538 0)
(-0.105786 0.0910267 0)
(-0.133141 0.0915705 0)
(-0.159407 0.0886651 0)
(-0.18389 0.0832912 0)
(-0.20617 0.0763296 0)
(-0.226044 0.0685101 0)
(-0.243469 0.0603955 0)
(-0.258514 0.0523875 0)
(-0.271317 0.0447449 0)
(-0.28205 0.0376061 0)
(-0.290894 0.0310132 0)
(-0.298021 0.024933 0)
(-0.303577 0.0192755 0)
(-0.307674 0.0139094 0)
(-0.31038 0.00867422 0)
(-0.311721 0.00339127 0)
(-0.31167 -0.00212666 0)
(-0.310153 -0.00806505 0)
(-0.307046 -0.014596 0)
(-0.302181 -0.0218637 0)
(-0.295349 -0.0299666 0)
(-0.286312 -0.0389352 0)
(-0.274818 -0.0487049 0)
(-0.260625 -0.0590864 0)
(-0.243529 -0.0697344 0)
(-0.223409 -0.0801189 0)
(-0.200275 -0.0895076 0)
(-0.174338 -0.0969676 0)
(-0.146072 -0.101399 0)
(-0.11629 -0.101614 0)
(-0.0861991 -0.0964805 0)
(-0.0573862 -0.0851279 0)
(-0.0317744 -0.0672021 0)
(-0.0120777 -0.0431649 0)
(-0.00206313 -0.0147539 0)
(-0.00223615 0.0194313 0)
(-0.0128316 0.0541036 0)
(-0.0332837 0.0819719 0)
(-0.0593581 0.101964 0)
(-0.0881412 0.114219 0)
(-0.117732 0.119584 0)
(-0.146678 0.119289 0)
(-0.173953 0.114695 0)
(-0.198928 0.107103 0)
(-0.221282 0.0976507 0)
(-0.240919 0.0872601 0)
(-0.257896 0.0766269 0)
(-0.272369 0.0662371 0)
(-0.284541 0.056395 0)
(-0.294637 0.0472549 0)
(-0.302876 0.0388527 0)
(-0.309456 0.0311335 0)
(-0.31454 0.0239744 0)
(-0.318254 0.0172039 0)
(-0.320678 0.0106164 0)
(-0.321847 0.00398467 0)
(-0.321744 -0.00292838 0)
(-0.320303 -0.0103584 0)
(-0.317408 -0.0185264 0)
(-0.312894 -0.0276218 0)
(-0.306548 -0.0377818 0)
(-0.298119 -0.0490645 0)
(-0.287324 -0.0614164 0)
(-0.273868 -0.0746342 0)
(-0.257468 -0.0883229 0)
(-0.237897 -0.101856 0)
(-0.215032 -0.114342 0)
(-0.188931 -0.124616 0)
(-0.159925 -0.131263 0)
(-0.128719 -0.132704 0)
(-0.096501 -0.12735 0)
(-0.0649738 -0.11385 0)
(-0.0363559 -0.0914016 0)
(-0.0139493 -0.0601069 0)
(-0.00240704 -0.0214564 0)
(-0.00255538 0.0264894 0)
(-0.0145112 0.0716238 0)
(-0.0372826 0.106527 0)
(-0.065781 0.130559 0)
(-0.0965472 0.144423 0)
(-0.127434 0.149568 0)
(-0.156921 0.147783 0)
(-0.184039 0.140905 0)
(-0.20829 0.13061 0)
(-0.229508 0.11831 0)
(-0.247749 0.105115 0)
(-0.263205 0.0918357 0)
(-0.276136 0.0790231 0)
(-0.286824 0.0670054 0)
(-0.29555 0.0559343 0)
(-0.302568 0.045825 0)
(-0.308098 0.0365905 0)
(-0.31232 0.0280686 0)
(-0.315369 0.0200439 0)
(-0.317333 0.0122643 0)
(-0.318256 0.00445443 0)
(-0.318133 -0.00367217 0)
(-0.316912 -0.0124015 0)
(-0.314491 -0.0220052 0)
(-0.310714 -0.0327229 0)
(-0.305378 -0.0447398 0)
(-0.298223 -0.0581568 0)
(-0.288944 -0.0729525 0)
(-0.277194 -0.0889374 0)
(-0.262604 -0.1057 0)
(-0.24482 -0.122551 0)
(-0.223548 -0.13847 0)
(-0.198644 -0.152073 0)
(-0.170217 -0.161615 0)
(-0.138783 -0.165058 0)
(-0.105426 -0.160238 0)
(-0.0719028 -0.145144 0)
(-0.0407116 -0.118301 0)
(-0.015787 -0.0792406 0)
(-0.00275664 -0.0291015 0)
(-0.00290271 0.0344196 0)
(-0.0162394 0.0910782 0)
(-0.0411972 0.133318 0)
(-0.0717065 0.161077 0)
(-0.103724 0.175864 0)
(-0.134894 0.179958 0)
(-0.163713 0.175881 0)
(-0.189361 0.166048 0)
(-0.211553 0.152556 0)
(-0.230346 0.137096 0)
(-0.245997 0.120945 0)
(-0.258855 0.105002 0)
(-0.2693 0.0898462 0)
(-0.277695 0.0758009 0)
(-0.28437 0.0629915 0)
(-0.289609 0.0513951 0)
(-0.293646 0.0408807 0)
(-0.296665 0.0312405 0)
(-0.298804 0.0222132 0)
(-0.300156 0.013501 0)
(-0.300772 0.00478304 0)
(-0.300658 -0.00427344 0)
(-0.299779 -0.0140021 0)
(-0.298054 -0.0247245 0)
(-0.295351 -0.0367336 0)
(-0.291482 -0.0502709 0)
(-0.286199 -0.0654952 0)
(-0.279185 -0.0824414 0)
(-0.270055 -0.100968 0)
(-0.258359 -0.120689 0)
(-0.243609 -0.140903 0)
(-0.225317 -0.160509 0)
(-0.203083 -0.177939 0)
(-0.176719 -0.191121 0)
(-0.146441 -0.197512 0)
(-0.113106 -0.194241 0)
(-0.078414 -0.17842 0)
(-0.0450864 -0.14762 0)
(-0.0177415 -0.100509 0)
(-0.00315418 -0.0377158 0)
(-0.00332655 0.0432963 0)
(-0.0181822 0.112478 0)
(-0.0452808 0.162096 0)
(-0.0773532 0.192913 0)
(-0.109734 0.207596 0)
(-0.139954 0.209549 0)
(-0.166661 0.202226 0)
(-0.189321 0.18872 0)
(-0.207971 0.171573 0)
(-0.222967 0.152736 0)
(-0.234803 0.133608 0)
(-0.244006 0.115126 0)
(-0.251073 0.0978521 0)
(-0.256438 0.0820675 0)
(-0.260467 0.067842 0)
(-0.263453 0.0550954 0)
(-0.265629 0.0436418 0)
(-0.26717 0.0332232 0)
(-0.268206 0.0235324 0)
(-0.268827 0.0142296 0)
(-0.269084 0.00495433 0)
(-0.268996 -0.00466573 0)
(-0.268549 -0.0150057 0)
(-0.267688 -0.026433 0)
(-0.266316 -0.039293 0)
(-0.26428 -0.0538885 0)
(-0.261359 -0.0704493 0)
(-0.257252 -0.0890905 0)
(-0.251558 -0.109754 0)
(-0.243773 -0.132134 0)
(-0.233285 -0.155578 0)
(-0.219408 -0.178978 0)
(-0.20145 -0.200652 0)
(-0.178842 -0.218243 0)
(-0.151372 -0.22868 0)
(-0.119498 -0.22827 0)
(-0.0846763 -0.213001 0)
(-0.0497259 -0.17911 0)
(-0.0199871 -0.123974 0)
(-0.00365241 -0.047417 0)
(-0.00390158 0.0533055 0)
(-0.0205681 0.135962 0)
(-0.0498283 0.192622 0)
(-0.082889 0.225329 0)
(-0.114462 0.238435 0)
(-0.142151 0.236864 0)
(-0.164977 0.225211 0)
(-0.182881 0.207323 0)
(-0.19635 0.186173 0)
(-0.206107 0.163905 0)
(-0.212914 0.141967 0)
(-0.217469 0.121259 0)
(-0.220368 0.102268 0)
(-0.222087 0.0851871 0)
(-0.222996 0.0700006 0)
(-0.223375 0.0565529 0)
(-0.223428 0.0445946 0)
(-0.223305 0.0338162 0)
(-0.223111 0.0238685 0)
(-0.222922 0.0143773 0)
(-0.222785 0.00495213 0)
(-0.222729 -0.00480819 0)
(-0.222761 -0.0153096 0)
(-0.222861 -0.0269563 0)
(-0.222977 -0.0401402 0)
(-0.223009 -0.0552245 0)
(-0.222793 -0.0725176 0)
(-0.222074 -0.0922337 0)
(-0.220478 -0.114434 0)
(-0.217485 -0.138945 0)
(-0.212406 -0.165245 0)
(-0.204379 -0.192316 0)
(-0.19241 -0.218472 0)
(-0.175488 -0.241168 0)
(-0.152829 -0.256851 0)
(-0.124264 -0.260929 0)
(-0.0907249 -0.248002 0)
(-0.0548734 -0.212486 0)
(-0.022747 -0.14981 0)
(-0.00432918 -0.0584379 0)
(-0.00475339 0.0648022 0)
(-0.0237283 0.161815 0)
(-0.0551661 0.224584 0)
(-0.0883304 0.2573 0)
(-0.11743 0.266802 0)
(-0.140493 0.260023 0)
(-0.15725 0.242901 0)
(-0.168354 0.220045 0)
(-0.174874 0.194762 0)
(-0.177948 0.169272 0)
(-0.178599 0.144951 0)
(-0.177663 0.122567 0)
(-0.17578 0.102461 0)
(-0.173422 0.0846901 0)
(-0.17092 0.0691265 0)
(-0.1685 0.0555254 0)
(-0.166311 0.0435712 0)
(-0.164451 0.0329066 0)
(-0.162986 0.0231498 0)
(-0.161962 0.013904 0)
(-0.161419 0.00476252 0)
(-0.161388 -0.00468938 0)
(-0.161898 -0.0148733 0)
(-0.162971 -0.0262156 0)
(-0.16461 -0.0391421 0)
(-0.16679 -0.0540679 0)
(-0.169427 -0.0713782 0)
(-0.172356 -0.0913956 0)
(-0.175282 -0.114327 0)
(-0.177738 -0.140183 0)
(-0.179026 -0.168653 0)
(-0.17818 -0.198934 0)
(-0.173947 -0.229492 0)
(-0.164854 -0.25777 0)
(-0.149419 -0.279875 0)
(-0.126582 -0.290339 0)
(-0.0963403 -0.282151 0)
(-0.0607448 -0.247307 0)
(-0.0263316 -0.178299 0)
(-0.00531298 -0.0711766 0)
(-0.00610196 0.0784125 0)
(-0.0281484 0.190452 0)
(-0.0615827 0.257415 0)
(-0.0933134 0.287259 0)
(-0.117457 0.290493 0)
(-0.133082 0.276608 0)
(-0.141095 0.25299 0)
(-0.143119 0.224881 0)
(-0.1409 0.195722 0)
(-0.135983 0.167601 0)
(-0.129581 0.141662 0)
(-0.122581 0.118428 0)
(-0.11559 0.0980222 0)
(-0.109 0.0803256 0)
(-0.103043 0.0650787 0)
(-0.0978485 0.0519447 0)
(-0.0934755 0.0405473 0)
(-0.0899477 0.0304932 0)
(-0.0872735 0.0213825 0)
(-0.0854609 0.0128128 0)
(-0.0845279 0.00437938 0)
(-0.0845075 -0.00432729 0)
(-0.0854495 -0.0137248 0)
(-0.0874175 -0.0242418 0)
(-0.0904806 -0.0363183 0)
(-0.0946992 -0.0504033 0)
(-0.100102 -0.0669447 0)
(-0.106652 -0.0863678 0)
(-0.114196 -0.109035 0)
(-0.122402 -0.135174 0)
(-0.130676 -0.164764 0)
(-0.138067 -0.197341 0)
(-0.143183 -0.231725 0)
(-0.144159 -0.265609 0)
(-0.138767 -0.295051 0)
(-0.1248 -0.313918 0)
(-0.100794 -0.313504 0)
(-0.0674354 -0.282745 0)
(-0.031182 -0.209776 0)
(-0.00682687 -0.0862942 0)
(-0.00833112 0.095205 0)
(-0.0345028 0.222316 0)
(-0.0690923 0.289912 0)
(-0.0965875 0.312672 0)
(-0.112032 0.306376 0)
(-0.116511 0.283527 0)
(-0.112661 0.252818 0)
(-0.103271 0.219765 0)
(-0.0907453 0.187574 0)
(-0.0769038 0.157923 0)
(-0.0629971 0.131534 0)
(-0.0498166 0.10857 0)
(-0.0378151 0.0888795 0)
(-0.0272127 0.0721463 0)
(-0.0180804 0.0579799 0)
(-0.0104019 0.0459626 0)
(-0.00411814 0.0356755 0)
(0.000842245 0.0267094 0)
(0.0045418 0.0186671 0)
(0.00702034 0.0111618 0)
(0.00828609 0.00381193 0)
(0.00831055 -0.00376531 0)
(0.00702664 -0.0119611 0)
(0.00433025 -0.0211823 0)
(8.57296e-05 -0.0318576 0)
(-0.00586284 -0.0444424 0)
(-0.0136723 -0.0594194 0)
(-0.0234688 -0.0772913 0)
(-0.0352996 -0.0985591 0)
(-0.0490603 -0.123674 0)
(-0.0643919 -0.152943 0)
(-0.0805419 -0.186358 0)
(-0.096195 -0.223298 0)
(-0.109304 -0.262051 0)
(-0.117015 -0.299092 0)
(-0.115849 -0.328119 0)
(-0.102321 -0.339 0)
(-0.0746369 -0.317142 0)
(-0.0378807 -0.244472 0)
(-0.00925453 -0.104873 0)
(-0.0120556 0.116919 0)
(-0.0435258 0.257496 0)
(-0.0767397 0.319494 0)
(-0.0949333 0.329413 0)
(-0.0961943 0.310089 0)
(-0.0849403 0.277031 0)
(-0.0659888 0.239594 0)
(-0.0432464 0.20287 0)
(-0.0195118 0.169306 0)
(0.00342308 0.139831 0)
(0.0245374 0.114571 0)
(0.0433391 0.0932513 0)
(0.0596738 0.0754277 0)
(0.0735867 0.0606018 0)
(0.0852285 0.0482788 0)
(0.0947929 0.0379924 0)
(0.102477 0.0293118 0)
(0.108457 0.0218405 0)
(0.112869 0.0152103 0)
(0.115805 0.00907307 0)
(0.117302 0.00309261 0)
(0.117339 -0.00306539 0)
(0.115837 -0.0097429 0)
(0.112659 -0.0172997 0)
(0.10761 -0.0261242 0)
(0.100443 -0.0366438 0)
(0.0908707 -0.0493357 0)
(0.0785887 -0.0647339 0)
(0.063312 -0.0834303 0)
(0.0448399 -0.106058 0)
(0.0231604 -0.133239 0)
(-0.00138835 -0.165464 0)
(-0.0278801 -0.20284 0)
(-0.0544836 -0.244606 0)
(-0.0781213 -0.28828 0)
(-0.0942579 -0.328268 0)
(-0.0970529 -0.353898 0)
(-0.0808714 -0.347226 0)
(-0.0469561 -0.282039 0)
(-0.0131877 -0.12861 0)
(-0.0179804 0.146289 0)
(-0.0551784 0.294731 0)
(-0.0807204 0.340848 0)
(-0.0809537 0.330959 0)
(-0.0606771 0.295942 0)
(-0.0288505 0.253089 0)
(0.00766137 0.21098 0)
(0.0444249 0.173225 0)
(0.0788826 0.140894 0)
(0.109783 0.113888 0)
(0.136694 0.091644 0)
(0.159647 0.0734628 0)
(0.178918 0.0586597 0)
(0.194884 0.0466164 0)
(0.207946 0.0367947 0)
(0.218483 0.028731 0)
(0.226824 0.0220253 0)
(0.233239 0.0163278 0)
(0.237933 0.0113265 0)
(0.241039 0.00673502 0)
(0.242619 0.00228208 0)
(0.242666 -0.00229936 0)
(0.241094 -0.00728249 0)
(0.237745 -0.0129578 0)
(0.23238 -0.0196452 0)
(0.224684 -0.0277085 0)
(0.214261 -0.0375719 0)
(0.200645 -0.0497391 0)
(0.183315 -0.0648143 0)
(0.161735 -0.0835193 0)
(0.135429 -0.106696 0)
(0.104125 -0.135268 0)
(0.0680051 -0.170097 0)
(0.0281156 -0.211619 0)
(-0.0130209 -0.259041 0)
(-0.050643 -0.308704 0)
(-0.0769808 -0.351163 0)
(-0.0815627 -0.366786 0)
(-0.0579 -0.320443 0)
(-0.0192159 -0.160074 0)
(-0.0257789 0.187795 0)
(-0.0656652 0.328994 0)
(-0.0698436 0.343336 0)
(-0.0389284 0.307334 0)
(0.0108202 0.257195 0)
(0.0663068 0.208308 0)
(0.120187 0.166123 0)
(0.168932 0.131584 0)
(0.211256 0.103951 0)
(0.247088 0.0820517 0)
(0.276924 0.0647464 0)
(0.30148 0.0510651 0)
(0.321508 0.0402239 0)
(0.337712 0.0316008 0)
(0.350713 0.0247022 0)
(0.361033 0.0191324 0)
(0.369097 0.0145686 0)
(0.375234 0.010741 0)
(0.37969 0.00741747 0)
(0.382622 0.00439057 0)
(0.384109 0.00146743 0)
(0.38415 -0.00153989 0)
(0.382666 -0.00482356 0)
(0.379492 -0.00858964 0)
(0.374376 -0.0130693 0)
(0.36697 -0.0185327 0)
(0.356821 -0.0253066 0)
(0.343358 -0.0337989 0)
(0.325886 -0.0445301 0)
(0.303586 -0.0581758 0)
(0.275531 -0.0756171 0)
(0.240763 -0.0979905 0)
(0.198454 -0.126701 0)
(0.148276 -0.16331 0)
(0.0911167 -0.209047 0)
(0.030323 -0.263407 0)
(-0.0263943 -0.320842 0)
(-0.0647251 -0.364377 0)
(-0.0660058 -0.353498 0)
(-0.0266272 -0.203326 0)
(-0.0289611 0.245052 0)
(-0.0586214 0.344629 0)
(-0.015814 0.307664 0)
(0.0620044 0.245657 0)
(0.144868 0.188402 0)
(0.220832 0.142475 0)
(0.28605 0.107675 0)
(0.340082 0.0817887 0)
(0.384002 0.0625298 0)
(0.419346 0.0480939 0)
(0.447629 0.0371686 0)
(0.470178 0.02882 0)
(0.4881 0.0223826 0)
(0.502297 0.0173762 0)
(0.513489 0.0134467 0)
(0.522244 0.0103264 0)
(0.529003 0.00780716 0)
(0.534099 0.0057215 0)
(0.537769 0.00392965 0)
(0.540169 0.00230978 0)
(0.541375 0.000750444 0)
(0.541394 -0.000855988 0)
(0.540154 -0.00261942 0)
(0.53751 -0.00465855 0)
(0.533231 -0.00710852 0)
(0.526992 -0.0101309 0)
(0.518353 -0.0139272 0)
(0.506744 -0.0187593 0)
(0.491425 -0.024979 0)
(0.471456 -0.0330735 0)
(0.445645 -0.0437353 0)
(0.412511 -0.0579653 0)
(0.370282 -0.0772171 0)
(0.317005 -0.103565 0)
(0.251015 -0.139767 0)
(0.172085 -0.188741 0)
(0.0835978 -0.251385 0)
(-0.00236602 -0.320806 0)
(-0.0537763 -0.363995 0)
(-0.0279693 -0.260461 0)
(0.0116421 0.28518 0)
(0.0258417 0.299239 0)
(0.147607 0.21329 0)
(0.27638 0.144271 0)
(0.379251 0.0978168 0)
(0.458439 0.0673002 0)
(0.5191 0.0473283 0)
(0.56539 0.0340632 0)
(0.600774 0.0250123 0)
(0.627959 0.0186557 0)
(0.648949 0.0140751 0)
(0.665217 0.0107035 0)
(0.677855 0.00817922 0)
(0.687678 0.00626281 0)
(0.6953 0.00478927 0)
(0.701184 0.00364036 0)
(0.705676 0.00272786 0)
(0.709031 0.0019832 0)
(0.711429 0.00135069 0)
(0.712983 0.000782794 0)
(0.713752 0.00023665 0)
(0.713739 -0.000328813 0)
(0.712895 -0.000955505 0)
(0.711113 -0.00168898 0)
(0.708225 -0.00258176 0)
(0.70399 -0.00369785 0)
(0.698078 -0.00511929 0)
(0.690046 -0.00695623 0)
(0.679303 -0.00936339 0)
(0.665053 -0.012568 0)
(0.646217 -0.0169184 0)
(0.62131 -0.0229717 0)
(0.588259 -0.0316525 0)
(0.544169 -0.0445377 0)
(0.485165 -0.0643155 0)
(0.406395 -0.0953374 0)
(0.301743 -0.143946 0)
(0.167736 -0.217508 0)
(0.0378049 -0.308728 0)
(0.0171134 -0.294638 0)
(0.302759 0.146482 0)
(0.40176 0.127463 0)
(0.563671 0.0753722 0)
(0.680874 0.0428525 0)
(0.750109 0.0249568 0)
(0.793624 0.0150588 0)
(0.822975 0.00949845 0)
(0.843474 0.00627585 0)
(0.858178 0.00431669 0)
(0.868972 0.00306191 0)
(0.877029 0.00221997 0)
(0.883111 0.00163355 0)
(0.887736 0.00121344 0)
(0.891265 0.000906079 0)
(0.89396 0.00067739 0)
(0.896012 0.000504442 0)
(0.897559 0.000370956 0)
(0.898703 0.000264774 0)
(0.899512 0.000176323 0)
(0.900029 9.76284e-05 0)
(0.900275 2.16116e-05 0)
(0.900251 -5.84566e-05 0)
(0.899935 -0.000149452 0)
(0.899284 -0.000258915 0)
(0.898233 -0.000395688 0)
(0.896684 -0.000570791 0)
(0.894507 -0.000798775 0)
(0.89152 -0.00109995 0)
(0.887478 -0.00150433 0)
(0.882041 -0.00205897 0)
(0.874724 -0.00284244 0)
(0.86481 -0.00399457 0)
(0.851183 -0.0057793 0)
(0.832021 -0.00871802 0)
(0.804276 -0.0138578 0)
(0.762548 -0.0232625 0)
(0.695042 -0.0408907 0)
(0.577987 -0.073938 0)
(0.411894 -0.127855 0)
(0.307417 -0.148222 0)
)
;

boundaryField
{
    movingWall
    {
        type            fixedValue;
        value           uniform (1 0 0);
    }
    fixedWalls
    {
        type            noSlip;
    }
    frontAndBack
    {
        type            empty;
    }
}


// ************************************************************************* //
