/*--------------------------------*- C++ -*----------------------------------*\
  =========                 |
  \\      /  F ield         | OpenFOAM: The Open Source CFD Toolbox
   \\    /   O peration     | Website:  https://openfoam.org
    \\  /    A nd           | Version:  6.0
     \\/     M anipulation  |
\*---------------------------------------------------------------------------*/
FoamFile
{
    version     2.0;
    format      ascii;
    class       surfaceScalarField;
    location    "140";
    object      phi;
}
// * * * * * * * * * * * * * * * * * * * * * * * * * * * * * * * * * * * * * //

dimensions      [0 3 -1 0 0 0 0];

internalField   nonuniform List<scalar> 
68636
(
3.02262e-05
0.00310561
4.15633e-09
6.08412e-05
0.00307073
9.10897e-05
0.00300248
0.000120478
0.00290137
0.00014862
0.0027684
0.000175168
0.00260503
0.000199811
0.00241301
0.000222262
0.00219445
0.000242264
0.00195172
0.000259591
0.00168741
0.000274042
0.00140443
0.000285466
0.00110537
0.000293822
0.000794013
0.00029878
0.000471502
0.000122515
0.000292491
2.9943e-05
0.00307565
1.24495e-08
6.02797e-05
0.00304039
9.0253e-05
0.00297251
0.000119374
0.00287225
0.000147259
0.00274052
0.000173564
0.00257873
0.000197981
0.0023886
0.000220226
0.00217221
0.000240045
0.00193191
0.000257214
0.00167025
0.000271534
0.00139011
0.000282833
0.00109407
0.000291255
0.000785595
0.000295453
0.000467306
0.000127456
0.000290516
2.96618e-05
0.00304597
2.08641e-08
5.97226e-05
0.00301033
8.94231e-05
0.00294281
0.000118279
0.00284339
0.00014591
0.00271289
0.000171977
0.00255266
0.000196172
0.00236441
0.000218215
0.00215016
0.000237854
0.00191227
0.000254865
0.00165324
0.000269057
0.00137592
0.000280224
0.00108291
0.000288569
0.000777249
0.000293158
0.000462717
0.000130385
0.000290229
2.93831e-05
0.00301656
2.92961e-08
5.91705e-05
0.00298054
8.8601e-05
0.00291338
0.000117194
0.0028148
0.000144575
0.00268551
0.000170404
0.00252683
0.00019438
0.00234043
0.000216222
0.00212832
0.000235682
0.00189281
0.000252537
0.00163639
0.000266601
0.00136186
0.000277645
0.00107186
0.000285837
0.00076906
0.000290582
0.000457973
0.000132188
0.000288782
2.91068e-05
0.00298741
3.78742e-08
5.86233e-05
0.00295103
8.77863e-05
0.00288422
0.00011612
0.00278646
0.000143251
0.00265838
0.000168846
0.00250124
0.000192603
0.00231668
0.000214247
0.00210668
0.000233529
0.00187353
0.000250228
0.00161969
0.000264165
0.00134792
0.000275097
0.00106093
0.000283115
0.000761042
0.000287818
0.00045327
0.000133242
0.000286764
2.88329e-05
0.00295853
4.67071e-08
5.80809e-05
0.00292178
8.69787e-05
0.00285532
0.000115055
0.00275839
0.000141939
0.00263149
0.000167301
0.00247587
0.000190842
0.00229314
0.000212289
0.00208523
0.000231395
0.00185442
0.00024794
0.00160314
0.000261749
0.00133411
0.000272579
0.0010501
0.000280437
0.000753187
0.000285055
0.000448653
0.000133768
0.000284531
2.85611e-05
0.00292992
5.57369e-08
5.75431e-05
0.0028928
8.61782e-05
0.00282668
0.000113999
0.00273057
0.000140639
0.00260485
0.000165771
0.00245074
0.000189097
0.00226981
0.000210348
0.00206398
0.00022928
0.00183549
0.000245673
0.00158675
0.000259355
0.00132043
0.000270089
0.00103937
0.000277809
0.000745465
0.000282339
0.000444123
0.000133936
0.000282171
2.82917e-05
0.00290156
6.50257e-08
5.70101e-05
0.00286408
8.53847e-05
0.00279831
0.000112952
0.002703
0.000139351
0.00257846
0.000164254
0.00242584
0.000187368
0.00224669
0.000208426
0.00204293
0.000227185
0.00181673
0.000243426
0.00157051
0.000256981
0.00130688
0.000267622
0.00102873
0.000275229
0.00073786
0.000279675
0.000439678
0.000133852
0.000279761
2.80245e-05
0.00287346
7.45377e-08
5.64817e-05
0.00283562
8.45983e-05
0.00277019
0.000111916
0.00267568
0.000138074
0.0025523
0.00016275
0.00240116
0.000185655
0.00222379
0.00020652
0.00202206
0.000225108
0.00179814
0.0002412
0.00155442
0.000254628
0.00129345
0.000265177
0.00101818
0.000272687
0.000730348
0.000277064
0.0004353
0.000133564
0.000277352
2.77596e-05
0.00284562
8.41866e-08
5.59579e-05
0.00280742
8.3819e-05
0.00274233
0.000110888
0.00264861
0.000136808
0.00252638
0.000161261
0.00237671
0.000183956
0.0022011
0.000204631
0.00200138
0.000223049
0.00177973
0.000238993
0.00153847
0.000252295
0.00128015
0.000262752
0.00100772
0.000270179
0.000722923
0.000274499
0.000430981
0.000133114
0.000274951
2.7497e-05
0.00281802
9.39507e-08
5.54388e-05
0.00277948
8.30465e-05
0.00271472
0.000109869
0.00262179
0.000135554
0.00250069
0.000159784
0.00235248
0.000182273
0.00217861
0.00020276
0.0019809
0.00022101
0.00176147
0.000236807
0.00152268
0.000249983
0.00126697
0.000260347
0.000997357
0.000267699
0.00071557
0.000271972
0.000426708
0.00013253
0.000272556
2.72366e-05
0.00279068
1.03752e-07
5.49243e-05
0.00275179
8.2281e-05
0.00268737
0.00010886
0.00259521
0.000134312
0.00247524
0.000158321
0.00232847
0.000180605
0.00215632
0.000200905
0.0019606
0.000218988
0.00174339
0.00023464
0.00150702
0.000247692
0.00125392
0.000257963
0.000987086
0.000265244
0.00070829
0.000269476
0.000422478
0.000131843
0.000270166
2.69784e-05
0.00276359
1.13522e-07
5.44143e-05
0.00272436
8.15223e-05
0.00266026
0.00010786
0.00256887
0.00013308
0.00245002
0.000156871
0.00230468
0.000178953
0.00213424
0.000199067
0.00194048
0.000216985
0.00172547
0.000232493
0.00149152
0.000245421
0.00124099
0.000255599
0.000976908
0.000262813
0.000701074
0.000267007
0.000418283
0.000131066
0.000267783
2.67225e-05
0.00273675
1.23232e-07
5.39088e-05
0.00269717
8.07704e-05
0.0026334
0.000106868
0.00254278
0.000131859
0.00242503
0.000155434
0.00228111
0.000177314
0.00211236
0.000197246
0.00192055
0.000215
0.00170772
0.000230366
0.00147615
0.000243172
0.00122819
0.000253255
0.000966825
0.000260405
0.000693926
0.000264563
0.000414126
0.000130223
0.00026541
2.64689e-05
0.00271014
1.3284e-07
5.34079e-05
0.00267023
8.00252e-05
0.00260678
0.000105886
0.00251692
0.00013065
0.00240027
0.00015401
0.00225775
0.000175691
0.00209068
0.000195441
0.0019008
0.000213032
0.00169013
0.000228258
0.00146092
0.000240943
0.0012155
0.000250933
0.000956835
0.000258018
0.00068684
0.000262143
0.000410001
0.000129318
0.000263047
2.62175e-05
0.00268378
1.42335e-07
5.29115e-05
0.00264354
7.92867e-05
0.0025804
0.000104912
0.00249129
0.000129451
0.00237573
0.000152599
0.0022346
0.000174082
0.0020692
0.000193652
0.00188123
0.000211083
0.0016727
0.000226169
0.00144584
0.000238735
0.00120293
0.000248631
0.00094694
0.000255654
0.000679818
0.000259746
0.00040591
0.00012837
0.000260697
2.59684e-05
0.00265766
1.5172e-07
5.24195e-05
0.00261709
7.85548e-05
0.00255427
0.000103948
0.0024659
0.000128263
0.00235141
0.0001512
0.00221166
0.000172488
0.00204791
0.000191879
0.00186184
0.000209151
0.00165543
0.000224098
0.00143089
0.000236548
0.00119048
0.000246351
0.000937136
0.000253311
0.000672858
0.000257371
0.000401849
0.00012738
0.00025836
2.57214e-05
0.00263178
1.61001e-07
5.19319e-05
0.00259088
7.78295e-05
0.00252837
0.000102991
0.00244074
0.000127085
0.00232732
0.000149814
0.00218893
0.000170908
0.00202681
0.000190122
0.00184263
0.000207236
0.00163831
0.000222047
0.00141608
0.000234381
0.00117815
0.000244092
0.000927426
0.00025099
0.000665961
0.000255019
0.000397822
0.000126363
0.000256039
2.54767e-05
0.00260614
1.7019e-07
5.14486e-05
0.00256491
7.71107e-05
0.00250271
0.000102044
0.0024158
0.000125919
0.00230344
0.00014844
0.00216641
0.000169342
0.00200591
0.000188381
0.00182359
0.000205339
0.00162135
0.000220014
0.0014014
0.000232233
0.00116593
0.000241853
0.000917805
0.00024869
0.000659123
0.000252688
0.000393823
0.000125316
0.000253733
2.52342e-05
0.00258072
1.79303e-07
5.09697e-05
0.00253917
7.63983e-05
0.00247728
0.000101104
0.0023911
0.000124762
0.00227979
0.000147079
0.0021441
0.000167791
0.0019852
0.000186656
0.00180472
0.000203459
0.00160455
0.000218
0.00138686
0.000230106
0.00115382
0.000239636
0.000908276
0.000246413
0.000652348
0.00025038
0.000389858
0.000124254
0.000251445
2.49938e-05
0.00255554
1.88351e-07
5.04951e-05
0.00251367
7.56924e-05
0.00245208
0.000100174
0.00236662
0.000123616
0.00225634
0.000145729
0.00212198
0.000166253
0.00196467
0.000184947
0.00178603
0.000201595
0.0015879
0.000216004
0.00137245
0.000227998
0.00114183
0.00023744
0.000898834
0.000244157
0.00064563
0.000248093
0.000385921
0.000123171
0.000249175
2.47556e-05
0.00253059
1.97347e-07
5.00248e-05
0.0024884
7.49927e-05
0.00242712
9.92512e-05
0.00234236
0.00012248
0.00223311
0.000144393
0.00210007
0.000164729
0.00194434
0.000183252
0.00176751
0.000199749
0.00157141
0.000214026
0.00135818
0.00022591
0.00112995
0.000235264
0.000889481
0.000241922
0.000638973
0.000245828
0.000382017
0.00012208
0.000246923
2.45195e-05
0.00250586
2.06296e-07
4.95587e-05
0.00246336
7.42993e-05
0.00240237
9.83371e-05
0.00231832
0.000121355
0.0022101
0.000143068
0.00207836
0.000163219
0.00192419
0.000181574
0.00174915
0.00019792
0.00155506
0.000212067
0.00134403
0.000223841
0.00111817
0.000233108
0.000880214
0.000239708
0.000632372
0.000243585
0.000378139
0.000120973
0.00024469
2.42856e-05
0.00248136
2.15207e-07
4.90967e-05
0.00243855
7.36122e-05
0.00237786
9.74311e-05
0.0022945
0.000120239
0.00218729
0.000141755
0.00205684
0.000161722
0.00190422
0.00017991
0.00173096
0.000196107
0.00153886
0.000210124
0.00133001
0.000221791
0.0011065
0.000230973
0.000871033
0.000237515
0.000625831
0.000241362
0.000374294
0.000119864
0.000242475
2.40537e-05
0.00245708
2.24082e-07
4.8639e-05
0.00241396
7.29312e-05
0.00235357
9.65334e-05
0.0022709
0.000119134
0.00216469
0.000140453
0.00203552
0.00016024
0.00188443
0.000178261
0.00171294
0.000194311
0.00152281
0.0002082
0.00131612
0.00021976
0.00109494
0.000228857
0.000861935
0.000235343
0.000619345
0.000239161
0.000370475
0.000118742
0.00024028
2.38239e-05
0.00243303
2.32923e-07
4.81853e-05
0.0023896
7.22564e-05
0.0023295
9.56437e-05
0.00224751
0.000118039
0.00214229
0.000139164
0.0020144
0.00015877
0.00186483
0.000176628
0.00169508
0.000192531
0.00150691
0.000206293
0.00130236
0.000217747
0.00108349
0.000226761
0.000852922
0.00023319
0.000612917
0.00023698
0.000366688
0.000117621
0.000238104
2.35962e-05
0.00240919
2.41729e-07
4.77357e-05
0.00236546
7.15876e-05
0.00230564
9.4762e-05
0.00222434
0.000116953
0.0021201
0.000137886
0.00199346
0.000157314
0.0018454
0.000175009
0.00167739
0.000190767
0.00149115
0.000204404
0.00128872
0.000215754
0.00107214
0.000224685
0.00084399
0.000231059
0.000606542
0.000234819
0.000362927
0.000116492
0.000235946
2.33705e-05
0.00238557
2.50499e-07
4.72901e-05
0.00234154
7.09249e-05
0.00228201
9.38883e-05
0.00220137
0.000115877
0.00209811
0.00013662
0.00197272
0.000155871
0.00182615
0.000173405
0.00165985
0.000189019
0.00147554
0.000202532
0.00127521
0.000213778
0.00106089
0.000222628
0.000835141
0.000228946
0.000600225
0.000232678
0.000359197
0.000115367
0.000233807
2.31468e-05
0.00236216
2.59228e-07
4.68486e-05
0.00231784
7.02681e-05
0.00225859
9.30224e-05
0.00217862
0.000114811
0.00207632
0.000135365
0.00195217
0.000154441
0.00180707
0.000171816
0.00164248
0.000187287
0.00146007
0.000200677
0.00126182
0.00021182
0.00104975
0.00022059
0.000826371
0.000226854
0.000593959
0.000230557
0.000355493
0.000114236
0.000231686
2.29252e-05
0.00233897
2.67913e-07
4.6411e-05
0.00229436
6.96172e-05
0.00223538
9.21644e-05
0.00215607
0.000113755
0.00205473
0.000134122
0.0019318
0.000153024
0.00178817
0.000170241
0.00162526
0.000185571
0.00144474
0.000198839
0.00124855
0.000209881
0.00103871
0.000218571
0.000817682
0.000224781
0.00058775
0.000228456
0.00035182
0.000113112
0.000229583
2.27055e-05
0.00231599
2.76544e-07
4.59774e-05
0.00227108
6.89723e-05
0.00221239
9.13142e-05
0.00213373
0.000112708
0.00203334
0.00013289
0.00191162
0.00015162
0.00176944
0.00016868
0.0016082
0.000183871
0.00142955
0.000197017
0.0012354
0.000207959
0.00102777
0.00021657
0.000809071
0.000222727
0.000581593
0.000226373
0.000348172
0.000111983
0.000227499
2.24879e-05
0.00229321
2.85117e-07
4.55477e-05
0.00224802
6.83331e-05
0.0021896
9.04716e-05
0.00211159
0.000111671
0.00201214
0.000131669
0.00189162
0.000150229
0.00175088
0.000167133
0.0015913
0.000182186
0.00141449
0.000195213
0.00122238
0.000206055
0.00101693
0.000214588
0.000800539
0.000220692
0.00057549
0.00022431
0.000344556
0.000110863
0.000225434
2.22721e-05
0.00227065
2.93623e-07
4.51219e-05
0.00222518
6.76998e-05
0.00216703
8.96367e-05
0.00208965
0.000110643
0.00199113
0.000130459
0.0018718
0.00014885
0.00173249
0.000165601
0.00157455
0.000180517
0.00139958
0.000193425
0.00120947
0.000204168
0.00100618
0.000212624
0.000792082
0.000218675
0.000569438
0.000222266
0.000340965
0.00010974
0.000223386
2.20584e-05
0.00224829
3.02055e-07
4.46999e-05
0.00220253
6.70722e-05
0.00214465
8.88094e-05
0.00206792
0.000109625
0.00197032
0.000129261
0.00185217
0.000147484
0.00171427
0.000164083
0.00155795
0.000178862
0.0013848
0.000191653
0.00119668
0.000202299
0.000995535
0.000210678
0.000783703
0.000216678
0.00056344
0.00022024
0.000337404
0.000108627
0.000221356
2.18466e-05
0.00222613
3.10404e-07
4.42818e-05
0.0021801
6.64502e-05
0.00212248
8.79895e-05
0.00204638
0.000108616
0.00194969
0.000128073
0.00183271
0.00014613
0.00169621
0.000162578
0.0015415
0.000177223
0.00137015
0.000189897
0.00118401
0.000200447
0.000984985
0.000208751
0.000775398
0.000214698
0.000557492
0.000218232
0.000333869
0.000107512
0.000219345
2.16366e-05
0.00220417
3.18664e-07
4.38675e-05
0.00215787
6.5834e-05
0.00210052
8.71771e-05
0.00202504
0.000107615
0.00192925
0.000126896
0.00181343
0.000144789
0.00167831
0.000161087
0.0015252
0.000175599
0.00135564
0.000188158
0.00117145
0.000198612
0.000974532
0.000206841
0.000767171
0.000212737
0.000551597
0.000216243
0.000330364
0.000106408
0.000217351
2.14286e-05
0.00218242
3.26829e-07
4.34569e-05
0.00213584
6.52233e-05
0.00207875
8.63721e-05
0.00200389
0.000106624
0.001909
0.000125729
0.00179433
0.00014346
0.00166058
0.00015961
0.00150905
0.00017399
0.00134126
0.000186434
0.001159
0.000196793
0.000964172
0.000204948
0.000759015
0.000210793
0.000545751
0.000214272
0.000326884
0.000105302
0.000215376
2.12225e-05
0.00216086
3.34893e-07
4.30501e-05
0.00211401
6.46182e-05
0.00205718
8.55744e-05
0.00198293
0.000105642
0.00188893
0.000124573
0.0017754
0.000142143
0.00164301
0.000158146
0.00149305
0.000172395
0.00132701
0.000184726
0.00114667
0.000194992
0.000953907
0.000203073
0.000750934
0.000208868
0.000539957
0.000212319
0.000323434
0.000104207
0.000213417
2.10183e-05
0.0021395
3.4285e-07
4.26469e-05
0.00209238
6.40186e-05
0.00203581
8.4784e-05
0.00196216
0.000104669
0.00186905
0.000123428
0.00175664
0.000140838
0.0016256
0.000156695
0.00147719
0.000170815
0.00131289
0.000183034
0.00113445
0.000193207
0.000943734
0.000201216
0.000742924
0.00020696
0.000534212
0.000210384
0.000320009
0.000103112
0.000211477
2.08159e-05
0.00211833
3.50699e-07
4.22475e-05
0.00207095
6.34244e-05
0.00201464
8.40008e-05
0.00194159
0.000103705
0.00184934
0.000122293
0.00173805
0.000139545
0.00160835
0.000155258
0.00146148
0.00016925
0.0012989
0.000181358
0.00112234
0.000191438
0.000933655
0.000199375
0.000734988
0.00020507
0.000528518
0.000208466
0.000316614
0.000102028
0.000209554
2.06154e-05
0.00209736
3.58434e-07
4.18517e-05
0.00204971
6.28357e-05
0.00199365
8.32247e-05
0.0019212
0.00010275
0.00182982
0.000121169
0.00171963
0.000138263
0.00159126
0.000153834
0.00144591
0.000167698
0.00128503
0.000179696
0.00111035
0.000189685
0.000923665
0.000197551
0.000727122
0.000203196
0.000522872
0.000206566
0.000313244
0.000100943
0.000207647
2.04168e-05
0.00207658
3.66057e-07
4.14595e-05
0.00202867
6.22523e-05
0.00197286
8.24557e-05
0.001901
0.000101803
0.00181047
0.000120055
0.00170138
0.000136994
0.00157432
0.000152423
0.00143048
0.000166161
0.0012713
0.00017805
0.00109846
0.000187949
0.000913767
0.000195744
0.000719328
0.00020134
0.000517277
0.000204683
0.000309903
9.98708e-05
0.000205758
2.02199e-05
0.00205598
3.73565e-07
4.10709e-05
0.00200782
6.16743e-05
0.00195226
8.16937e-05
0.00188098
0.000100865
0.0017913
0.000118951
0.00168329
0.000135736
0.00155753
0.000151024
0.00141519
0.000164638
0.00125768
0.000176419
0.00108667
0.000186229
0.000903957
0.000193954
0.000711601
0.000199502
0.000511728
0.000202817
0.000306587
9.87986e-05
0.000203886
2.00249e-05
0.00203558
3.8096e-07
4.06858e-05
0.00198716
6.11016e-05
0.00193184
8.09387e-05
0.00186114
9.99356e-05
0.0017723
0.000117857
0.00166537
0.000134489
0.0015409
0.000149639
0.00140004
0.000163129
0.00124419
0.000174803
0.001075
0.000184524
0.000894237
0.00019218
0.000703947
0.000197679
0.00050623
0.000200968
0.000303301
9.7739e-05
0.000202031
1.98317e-05
0.00201536
3.88241e-07
4.03043e-05
0.00196669
6.0534e-05
0.00191161
8.01905e-05
0.00184148
9.90145e-05
0.00175348
0.000116773
0.00164761
0.000133254
0.00152442
0.000148266
0.00138503
0.000161634
0.00123082
0.000173202
0.00106343
0.000182835
0.000884603
0.000190423
0.000696358
0.000195874
0.000500777
0.000199135
0.000300038
9.66799e-05
0.000200192
1.96403e-05
0.00199532
3.95412e-07
3.99263e-05
0.0019464
5.99717e-05
0.00189156
7.94492e-05
0.00182201
9.81019e-05
0.00173482
0.000115699
0.00163002
0.00013203
0.00150809
0.000146906
0.00137015
0.000160152
0.00121758
0.000171616
0.00105197
0.000181162
0.000875058
0.000188681
0.00068884
0.000194085
0.000495374
0.00019732
0.000296806
9.56339e-05
0.000198369
1.94506e-05
0.00197547
4.02473e-07
3.95518e-05
0.0019263
5.94146e-05
0.0018717
7.87147e-05
0.0018027
9.71977e-05
0.00171634
0.000114634
0.00161258
0.000130817
0.0014919
0.000145558
0.00135541
0.000158684
0.00120445
0.000170044
0.00104061
0.000179504
0.000865597
0.000186956
0.000681387
0.000192313
0.000490016
0.000195521
0.000293596
9.45887e-05
0.000196563
1.92627e-05
0.0019558
4.09428e-07
3.91807e-05
0.00190638
5.88625e-05
0.00185202
7.79869e-05
0.00178358
9.63017e-05
0.00169803
0.00011358
0.0015953
0.000129616
0.00147587
0.000144223
0.00134081
0.000157229
0.00119145
0.000168486
0.00102935
0.000177861
0.000856223
0.000185246
0.000674002
0.000190557
0.000484707
0.000193738
0.000290417
9.35568e-05
0.000194773
1.90766e-05
0.0019363
4.16277e-07
3.8813e-05
0.00188665
5.83155e-05
0.00183252
7.72658e-05
0.00176463
9.54139e-05
0.00167988
0.000112535
0.00157818
0.000128425
0.00145998
0.000142899
0.00132633
0.000155788
0.00117856
0.000166943
0.0010182
0.000176233
0.000846932
0.000183552
0.000666682
0.000188816
0.000479442
0.000191971
0.00028726
9.25258e-05
0.000192999
1.88921e-05
0.00191699
4.23025e-07
3.84487e-05
0.00186709
5.77735e-05
0.00181319
7.65512e-05
0.00174585
9.45342e-05
0.0016619
0.000111499
0.00156122
0.000127245
0.00144423
0.000141588
0.00131199
0.00015436
0.00116578
0.000165414
0.00100714
0.00017462
0.000837726
0.000181874
0.000659429
0.000187092
0.000474225
0.000190221
0.000284134
9.15083e-05
0.000191242
1.87094e-05
0.00189785
4.29674e-07
3.80877e-05
0.00184771
5.72365e-05
0.00179404
7.58432e-05
0.00172725
9.36626e-05
0.00164408
0.000110474
0.00154441
0.000126076
0.00142863
0.000140289
0.00129778
0.000152945
0.00115313
0.000163899
0.000996189
0.000173022
0.000828602
0.000180211
0.000652238
0.000185384
0.000469051
0.000188487
0.000281029
9.04916e-05
0.0001895
1.85284e-05
0.00187889
4.3623e-07
3.77301e-05
0.00182851
5.67044e-05
0.00177507
7.51417e-05
0.00170881
9.27989e-05
0.00162642
0.000109457
0.00152775
0.000124918
0.00141317
0.000139002
0.00128369
0.000151543
0.00114059
0.000162398
0.000985335
0.000171439
0.000819562
0.000178564
0.000645115
0.000183691
0.000463925
0.000186768
0.000277955
8.94884e-05
0.000187775
1.83491e-05
0.00186009
4.42693e-07
3.73758e-05
0.00180948
5.61772e-05
0.00175627
7.44466e-05
0.00169054
9.19432e-05
0.00160892
0.00010845
0.00151124
0.000123771
0.00139785
0.000137726
0.00126974
0.000150154
0.00112816
0.00016091
0.000974577
0.00016987
0.000810601
0.000176932
0.000638052
0.000182014
0.000458841
0.000185065
0.000274902
8.84857e-05
0.000186065
1.81715e-05
0.00184147
4.49072e-07
3.70247e-05
0.00179063
5.56548e-05
0.00173764
7.37579e-05
0.00167244
9.10953e-05
0.00159158
0.000107452
0.00149488
0.000122633
0.00138266
0.000136462
0.00125591
0.000148777
0.00111584
0.000159437
0.000963919
0.000168316
0.000801722
0.000175314
0.000631055
0.000180352
0.000453804
0.000183378
0.000271879
8.74966e-05
0.00018437
1.79955e-05
0.00182302
4.55369e-07
3.66768e-05
0.00177195
5.51372e-05
0.00171918
7.30755e-05
0.0016545
9.02552e-05
0.0015744
0.000106463
0.00147868
0.000121507
0.00136762
0.00013521
0.00124221
0.000147414
0.00110364
0.000157977
0.000953355
0.000166776
0.000792922
0.000173712
0.000624118
0.000178706
0.000448809
0.000181706
0.000268877
8.6508e-05
0.000182691
1.78211e-05
0.00180474
4.61592e-07
3.63322e-05
0.00175344
5.46244e-05
0.00170089
7.23994e-05
0.00163672
8.94227e-05
0.00155738
0.000105483
0.00146262
0.00012039
0.00135271
0.000133969
0.00122863
0.000146062
0.00109155
0.00015653
0.000942888
0.00016525
0.000784203
0.000172124
0.000617245
0.000177074
0.00044386
0.000180049
0.000265904
8.55329e-05
0.000181028
1.76484e-05
0.00178662
4.67744e-07
3.59908e-05
0.00173509
5.41163e-05
0.00168276
7.17294e-05
0.00161911
8.85979e-05
0.00154051
0.000104512
0.0014467
0.000119284
0.00133794
0.00013274
0.00121517
0.000144724
0.00107956
0.000155096
0.000932515
0.000163738
0.00077556
0.000170551
0.000610431
0.000175458
0.000438952
0.000178408
0.000262952
8.45583e-05
0.000179379
1.74772e-05
0.00176867
4.73834e-07
3.56524e-05
0.00171692
5.36128e-05
0.0016648
7.10656e-05
0.00160166
8.77806e-05
0.0015238
0.000103551
0.00143093
0.000118188
0.0013233
0.000131522
0.00120184
0.000143397
0.00106769
0.000153676
0.000922236
0.00016224
0.000766996
0.000168992
0.00060368
0.000173856
0.000434089
0.000176781
0.000260029
8.35974e-05
0.000177746
1.73077e-05
0.00175089
4.79865e-07
3.53172e-05
0.00169891
5.3114e-05
0.001647
7.04079e-05
0.00158436
8.69709e-05
0.00150723
0.000102597
0.0014153
0.000117102
0.0013088
0.000130315
0.00118862
0.000142083
0.00105592
0.000152269
0.000912049
0.000160756
0.000758508
0.000167448
0.000596987
0.000172269
0.000429266
0.00017517
0.000257127
8.26371e-05
0.000176127
1.71397e-05
0.00173326
4.85845e-07
3.49851e-05
0.00168106
5.26197e-05
0.00162937
6.97562e-05
0.00156723
8.61685e-05
0.00149082
0.000101653
0.00139982
0.000116026
0.00129443
0.000129119
0.00117553
0.00014078
0.00104426
0.000150875
0.000901956
0.000159286
0.000750098
0.000165918
0.000590356
0.000170697
0.000424489
0.000173573
0.000254253
8.16905e-05
0.000174523
1.69733e-05
0.0017158
4.91778e-07
3.4656e-05
0.00166338
5.213e-05
0.00161189
6.91105e-05
0.00155025
8.53735e-05
0.00147456
0.000100717
0.00138448
0.00011496
0.00128018
0.000127934
0.00116256
0.00013949
0.0010327
0.000149493
0.000891951
0.000157829
0.000741762
0.000164402
0.000583782
0.000169139
0.00041975
0.00017199
0.0002514
8.07445e-05
0.000172933
1.68084e-05
0.00169849
4.9767e-07
3.433e-05
0.00164586
5.16448e-05
0.00159458
6.84707e-05
0.00153342
8.45858e-05
0.00145844
9.97903e-05
0.00136927
0.000113904
0.00126607
0.000126761
0.0011497
0.000138211
0.00102125
0.000148124
0.000882039
0.000156385
0.000733502
0.0001629
0.000577268
0.000167595
0.000415055
0.000170423
0.000248575
7.98124e-05
0.000171358
1.6645e-05
0.00168134
5.03525e-07
3.4007e-05
0.0016285
5.1164e-05
0.00157742
6.78367e-05
0.00151675
8.38053e-05
0.00144248
9.88716e-05
0.0013542
0.000112857
0.00125208
0.000125597
0.00113696
0.000136945
0.0010099
0.000146768
0.000872215
0.000154955
0.000725314
0.000161412
0.00057081
0.000166066
0.000410399
0.000168869
0.00024577
7.88808e-05
0.000169798
1.64831e-05
0.00166435
5.09348e-07
3.36869e-05
0.00161129
5.06877e-05
0.00156042
6.72086e-05
0.00150023
8.30319e-05
0.00142665
9.79615e-05
0.00133928
0.00011182
0.00123823
0.000124445
0.00112433
0.00013569
0.000998661
0.000145425
0.00086248
0.000153538
0.000717202
0.000159937
0.000564412
0.000164551
0.000405787
0.00016733
0.000242993
7.79631e-05
0.000168252
1.63228e-05
0.00164751
5.15141e-07
3.33697e-05
0.00159425
5.02157e-05
0.00154358
6.65862e-05
0.00148385
8.22657e-05
0.00141097
9.70596e-05
0.00132448
0.000110792
0.00122449
0.000123303
0.00111182
0.000134446
0.000987516
0.000144094
0.000852832
0.000152134
0.00070916
0.000158476
0.000558069
0.00016305
0.000401212
0.000165805
0.000240235
7.70455e-05
0.000166719
1.61638e-05
0.00163083
5.20907e-07
3.30555e-05
0.00157735
4.9748e-05
0.00152688
6.59696e-05
0.00146763
8.15065e-05
0.00139544
9.61661e-05
0.00130982
0.000109774
0.00121089
0.000122172
0.00109943
0.000133214
0.000976475
0.000142775
0.000843272
0.000150743
0.000701193
0.000157029
0.000551784
0.000161562
0.00039668
0.000164294
0.000237505
7.61418e-05
0.000165202
1.60064e-05
0.00161429
5.26649e-07
3.27442e-05
0.00156062
4.92846e-05
0.00151034
6.53586e-05
0.00145156
8.07542e-05
0.00138004
9.52807e-05
0.00129529
0.000108765
0.0011974
0.000121051
0.00108714
0.000131993
0.000965531
0.000141468
0.000833797
0.000149365
0.000693295
0.000155595
0.000545553
0.000160088
0.000392185
0.000162797
0.000234794
7.52381e-05
0.000163698
1.58504e-05
0.00159791
5.32368e-07
3.24357e-05
0.00154403
4.88255e-05
0.00149395
6.47532e-05
0.00143563
8.00089e-05
0.00136478
9.44035e-05
0.0012809
0.000107766
0.00118404
0.00011994
0.00107497
0.000130784
0.000954687
0.000140173
0.000824409
0.000147999
0.00068547
0.000154174
0.000539379
0.000158628
0.000387732
0.000161314
0.00023211
7.4348e-05
0.000162208
1.56958e-05
0.00158168
5.38063e-07
3.213e-05
0.0015276
4.83706e-05
0.00147771
6.41533e-05
0.00141985
7.92704e-05
0.00134967
9.35343e-05
0.00126664
0.000106776
0.0011708
0.00011884
0.0010629
0.000129586
0.000943941
0.00013889
0.000815103
0.000146646
0.000677712
0.000152766
0.000533258
0.000157181
0.000383315
0.000159844
0.000229445
7.34577e-05
0.000160731
1.55426e-05
0.00156559
5.43737e-07
3.18271e-05
0.00151131
4.79198e-05
0.00146162
6.3559e-05
0.00140421
7.85386e-05
0.00133469
9.26731e-05
0.0012525
0.000105794
0.00115768
0.000117749
0.00105095
0.000128398
0.000933292
0.000137619
0.000805883
0.000145306
0.000670027
0.000151371
0.000527194
0.000155748
0.00037894
0.000158388
0.000226807
7.25811e-05
0.000159269
1.53909e-05
0.00154965
5.49387e-07
3.15271e-05
0.00149518
4.74732e-05
0.00144567
6.29701e-05
0.00138871
7.78136e-05
0.00131984
9.18198e-05
0.00123849
0.000104822
0.00114467
0.000116669
0.0010391
0.000127222
0.000922738
0.00013636
0.000796744
0.000143978
0.000662407
0.00014999
0.000521181
0.000154328
0.0003746
0.000156946
0.000224187
7.17042e-05
0.000157819
1.52405e-05
0.00153385
5.55015e-07
3.12297e-05
0.00147919
4.70307e-05
0.00142987
6.23866e-05
0.00137336
7.70952e-05
0.00130514
9.09744e-05
0.00122462
0.000103859
0.00113179
0.000115599
0.00102736
0.000126057
0.000912281
0.000135113
0.000787689
0.000142662
0.000654859
0.000148621
0.000515224
0.000152921
0.000370302
0.000155516
0.000221593
7.08409e-05
0.000156383
1.50915e-05
0.0015182
5.60616e-07
3.09351e-05
0.00146334
4.65922e-05
0.00141422
6.18084e-05
0.00135814
7.63835e-05
0.00129056
9.01367e-05
0.00121086
0.000102905
0.00111902
0.000114538
0.00101573
0.000124902
0.000901916
0.000133876
0.000778714
0.000141359
0.000647375
0.000147264
0.000509317
0.000151527
0.000366037
0.0001541
0.000219018
6.99772e-05
0.00015496
1.49438e-05
0.00150269
5.66191e-07
3.06432e-05
0.00144764
4.61577e-05
0.0013987
6.12355e-05
0.00134306
7.56782e-05
0.00127612
8.93067e-05
0.00119723
0.000101959
0.00110637
0.000113488
0.0010042
0.000123758
0.000891646
0.000132652
0.00076982
0.000140067
0.000639961
0.00014592
0.000503466
0.000150145
0.000361814
0.000152697
0.000216469
6.91273e-05
0.000153551
1.47975e-05
0.00148732
5.71736e-07
3.03539e-05
0.00143209
4.57273e-05
0.00138333
6.06679e-05
0.00132812
7.49795e-05
0.00126181
8.84844e-05
0.00118373
0.000101022
0.00109383
0.000112447
0.000992773
0.000122624
0.000881468
0.000131439
0.000761005
0.000138788
0.00063261
0.000144589
0.000497663
0.000148777
0.000357624
0.000151307
0.000213937
6.82768e-05
0.000152154
1.46525e-05
0.00147209
5.77251e-07
3.00673e-05
0.00141667
4.53007e-05
0.00136809
6.01056e-05
0.00131332
7.42871e-05
0.00124762
8.76696e-05
0.00117035
0.000100094
0.0010814
0.000111415
0.000981453
0.000121502
0.000871382
0.000130236
0.000752271
0.00013752
0.000625327
0.00014327
0.000491915
0.000147421
0.000353474
0.00014993
0.000211431
6.74401e-05
0.00015077
1.45088e-05
0.001457
5.8273e-07
2.97833e-05
0.0014014
4.48781e-05
0.001353
5.95483e-05
0.00129865
7.36011e-05
0.00123357
8.68624e-05
0.00115708
9.91746e-05
0.00106909
0.000110394
0.000970233
0.000120389
0.000861386
0.000129046
0.000743614
0.000136264
0.000618108
0.000141963
0.000486215
0.000146078
0.000349357
0.000148565
0.000208942
6.66026e-05
0.000149399
1.43665e-05
0.00144205
5.88173e-07
2.95019e-05
0.00138626
4.44594e-05
0.00133804
5.89962e-05
0.00128411
7.29215e-05
0.00121965
8.60626e-05
0.00114394
9.82634e-05
0.00105689
0.000109381
0.000959116
0.000119287
0.000851481
0.000127866
0.000735035
0.00013502
0.000610954
0.000140668
0.000480567
0.000144747
0.000345279
0.000147213
0.000206479
6.57787e-05
0.000148041
1.42254e-05
0.00142723
5.93576e-07
2.92231e-05
0.00137126
4.40445e-05
0.00132322
5.84492e-05
0.0012697
7.22481e-05
0.00120585
8.52701e-05
0.00113092
9.73607e-05
0.0010448
0.000108378
0.000948097
0.000118195
0.000841664
0.000126697
0.000726532
0.000133787
0.000603863
0.000139385
0.000474968
0.000143429
0.000341233
0.000145874
0.000204032
6.49539e-05
0.000146695
1.40857e-05
0.00141254
5.98936e-07
2.89469e-05
0.0013564
4.36334e-05
0.00130853
5.79072e-05
0.00125543
7.15809e-05
0.00119217
8.4485e-05
0.00111802
9.64663e-05
0.00103282
0.000107384
0.00093718
0.000117113
0.000831936
0.000125539
0.000718107
0.000132566
0.000596836
0.000138115
0.00046942
0.000142123
0.000337227
0.000144547
0.00020161
6.41426e-05
0.000145362
1.39472e-05
0.00139799
6.04248e-07
2.86732e-05
0.00134168
4.32261e-05
0.00129398
5.73702e-05
0.00124129
7.09198e-05
0.00117862
8.37071e-05
0.00110523
9.55801e-05
0.00102095
0.0001064
0.000926359
0.000116041
0.000822295
0.000124391
0.000709755
0.000131356
0.00058987
0.000136856
0.000463919
0.000140829
0.000333252
0.000143232
0.000199205
6.33301e-05
0.000144041
1.38099e-05
0.00138357
6.09511e-07
2.8402e-05
0.00132709
4.28225e-05
0.00127956
5.68381e-05
0.00122727
7.02649e-05
0.0011652
8.29364e-05
0.00109256
9.47022e-05
0.00100918
0.000105425
0.000915638
0.000114979
0.000812741
0.000123254
0.00070148
0.000130157
0.000582969