1.45 	0 	0 	-0.00333152 	-0.00293686 	3.9648e-21
2.35 	0 	0 	0.0773345 	-0.00715757 	2.39549e-21
