1.45 	0 	0 	-0.00706193 	-0.00263657 	3.88158e-21
2.35 	0 	0 	0.06429 	-0.00672655 	2.41169e-21
