1.45 	0 	0 	-0.307974
2.35 	0 	0 	-0.113851
