/*--------------------------------*- C++ -*----------------------------------*\
  =========                 |
  \\      /  F ield         | OpenFOAM: The Open Source CFD Toolbox
   \\    /   O peration     | Website:  https://openfoam.org
    \\  /    A nd           | Version:  6.0
     \\/     M anipulation  |
\*---------------------------------------------------------------------------*/
FoamFile
{
    version     2.0;
    format      ascii;
    class       volScalarField;
    location    "0.5";
    object      p;
}
// * * * * * * * * * * * * * * * * * * * * * * * * * * * * * * * * * * * * * //

dimensions      [0 2 -2 0 0 0 0];

internalField   nonuniform List<scalar> 
1600
(
5.32308e-06
-0.00118315
-0.00391211
-0.00758508
-0.0115294
-0.0152492
-0.0183866
-0.0206893
-0.0219899
-0.0221885
-0.0212395
-0.019141
-0.0159264
-0.0116586
-0.00642501
-0.000333228
0.00649177
0.0139106
0.0217719
0.0299147
0.0381709
0.0463679
0.0543313
0.0618882
0.0688709
0.075121
0.0804938
0.0848634
0.0881283
0.0902168
0.0910942
0.0907691
0.0893018
0.0868136
0.0834978
0.0796332
0.0756002
0.0719071
0.0692228
0.0681056
0.00119869
6.96965e-06
-0.0022097
-0.00506151
-0.00810477
-0.0109741
-0.0133849
-0.0151241
-0.0160415
-0.0160412
-0.0150731
-0.0131258
-0.0102199
-0.00640382
-0.00174857
0.00365514
0.00970013
0.0162654
0.0232186
0.0304182
0.0377164
0.0449611
0.0519992
0.0586794
0.0648558
0.0703916
0.0751632
0.0790653
0.0820148
0.0839566
0.0848687
0.0847682
0.0837168
0.0818275
0.0792713
0.076282
0.0731615
0.0702855
0.068103
0.066991
0.00394198
0.00221491
-3.22501e-05
-0.00259173
-0.00522051
-0.00764884
-0.00965312
-0.0110617
-0.0117489
-0.0116311
-0.0106621
-0.00882888
-0.00614666
-0.00265523
0.0015845
0.00649357
0.0119775
0.0179289
0.0242294
0.0307523
0.0373646
0.0439296
0.0503095
0.0563685
0.0619759
0.0670098
0.0713606
0.0749356
0.077663
0.0794963
0.0804189
0.0804485
0.0796414
0.0780965
0.075958
0.0734169
0.0707134
0.0681289
0.0659222
0.0643047
0.00770469
0.0050953
0.00245343
-0.000175679
-0.0027307
-0.00501201
-0.00684535
-0.00809897
-0.00867447
-0.00850508
-0.00755413
-0.0058122
-0.00329414
-3.61678e-05
0.00390675
0.00846324
0.0135477
0.0190626
0.0249
0.0309439
0.0370726
0.0431604
0.0490808
0.0547085
0.0599233
0.0646127
0.0686759
0.072027
0.0745997
0.0763504
0.0772622
0.0773485
0.0766556
0.0752651
0.073294
0.0708943
0.0682585
0.0656016
0.0630102
0.0605431
0.0118926
0.0082559
0.0050458
0.00216492
-0.000492704
-0.00278361
-0.00457517
-0.00577272
-0.0063051
-0.00612397
-0.00520438
-0.00354334
-0.00115795
0.00191651
0.00562851
0.00991197
0.014688
0.0198667
0.0253484
0.031026
0.0367866
0.0425133
0.0480881
0.0533939
0.0583178
0.0627538
0.0666065
0.069794
0.0722517
0.0739356
0.0748254
0.0749273
0.0742758
0.0729343
0.0709935
0.0685704
0.0658187
0.0629013
0.059747
0.05628
0.0160793
0.0113724
0.00750138
0.00425098
0.00136854
-0.00104555
-0.00289221
-0.00410945
-0.00465149
-0.00448829
-0.00360751
-0.00201414
0.000270585
0.00321039
0.00675514
0.0108421
0.015397
0.0203356
0.0255647
0.0309839
0.0364869
0.0419636
0.047302
0.0523908
0.0571217
0.0613926
0.0651105
0.0681944
0.070579
0.072217
0.0730825
0.0731724
0.0725084
0.0711363
0.0691233
0.0665561
0.0635586
0.0602557
0.0564384
0.0519209
0.0199556
0.0141835
0.00960504
0.00590915
0.00271721
9.80306e-05
-0.00187526
-0.0031684
-0.00375832
-0.00363219
-0.00279039
-0.00124664
0.000972479
0.00382818
0.00727008
0.011237
0.0156577
0.0204516
0.0255302
0.0307977
0.0361526
0.0414893
0.0466998
0.051676
0.0563121
0.060507
0.0641678
0.0672118
0.0695703
0.0711908
0.0720395
0.0721033
0.0713903
0.0699301
0.067769
0.0649694
0.0616337
0.0578608
0.0533252
0.0477527
0.0232885
0.0164753
0.0111717
0.00698674
0.0034327
0.000555698
-0.00159077
-0.00299566
-0.00365577
-0.00357409
-0.00276318
-0.00124577
0.000945545
0.00376839
0.00717092
0.0110921
0.0154621
0.0202029
0.0252285
0.0304463
0.0357578
0.0410601
0.0462471
0.051212
0.0558492
0.0600566
0.0637388
0.0668095
0.0691945
0.0708339
0.071685
0.0717233
0.0709438
0.0693607
0.0670025
0.0639121
0.0601775
0.0558817
0.050599
0.0439838
0.0258957
0.0180686
0.0120368
0.00734041
0.00339457
0.000229287
-0.00211668
-0.00365174
-0.00439003
-0.00434883
-0.00355225
-0.00203189
0.000173192
0.00301638
0.00644342
0.0103924
0.0147936
0.0195701
0.0246374
0.0299045
0.0352744
0.0406451
0.045911
0.0509647
0.0556988
0.0600084
0.0637937
0.0669626
0.0694334
0.0711377
0.072022
0.0720502
0.071204
0.0694832
0.0669009
0.0634846
0.0593133
0.0544616
0.0484159
0.0407696
0.027627
0.0188078
0.0120506
0.00683309
0.00248129
-0.000986408
-0.0035424
-0.0052116
-0.00602348
-0.00600829
-0.00520103
-0.00364199
-0.00137688
0.00154297
0.00506018
0.00911105
0.0136253
0.0185257
0.0237283
0.0291425
0.0346715
0.0402129
0.0456601
0.0509035
0.0558325
0.0603375
0.0643125
0.0676578
0.0702827
0.0721082
0.0730692
0.0731169
0.0722198
0.0703638
0.0675484
0.0637885
0.0591585
0.0537296
0.0469081
0.0382331
0.0283492
0.0185513
0.0110725
0.00533165
0.000570374
-0.00320163
-0.00596548
-0.00776061
-0.00863029
-0.00861684
-0.0077656
-0.00612542
-0.00374878
-0.000692092
0.00298364
0.00721232
0.0119221
0.0170351
0.0224668
0.028126
0.0339151
0.0397304
0.0454628
0.0509994
0.0562249
0.0610236
0.0652816
0.0688899
0.071747
0.0737617
0.0748561
0.0749673
0.07405
0.072077
0.0690347
0.0649275
0.0598277
0.053807
0.0461953
0.0364803
0.0279368
0.0171639
0.00896572
0.0027035
-0.00246329
-0.00653205
-0.00949116
-0.0113934
-0.0122949
-0.0122496
-0.0113129
-0.00954216
-0.00699678
-0.00373858
0.000167427
0.00465226
0.00964212
0.0150576
0.0208131
0.0268163
0.0329679
0.039162
0.0452864
0.0512236
0.0568524
0.0620495
0.0666918
0.0706593
0.073838
0.0761229
0.077421
0.0776546
0.0767634
0.0747062
0.071457
0.0670101
0.0614377
0.0548143
0.0463935
0.0356122
0.0262645
0.0145106
0.00559226
-0.00118687
-0.00674971
-0.0111
-0.0142327
-0.0162135
-0.0171114
-0.0169915
-0.0159196
-0.0139616
-0.0111841
-0.00765466
-0.00344258
0.00137992
0.0067367
0.0125466
0.0187225
0.0251704
0.0317891
0.0384698
0.0450966
0.0515466
0.0576917
0.0633998
0.0685372
0.0729713
0.0765737
0.0792236
0.0808112
0.0812418
0.0804385
0.0783449
0.0749217
0.0701534
0.0641125
0.0568772
0.0476229
0.0357341
0.0232012
0.0104515
0.00080902
-0.00648117
-0.012426
-0.0170357
-0.020312
-0.0223336
-0.0231827
-0.0229364
-0.0216708
-0.0194611
-0.0163814
-0.0125053
-0.00790675
-0.00266135
0.00315221
0.00945088
0.0161459
0.0231416
0.0303347
0.0376133
0.0448572
0.0519379
0.0587194
0.06506
0.070814
0.0758345
0.0799769
0.0831023
0.0850818
0.0858012
0.0851645
0.0830982
0.0795478
0.0744867
0.0679878
0.0601331
0.0500149
0.0369628
0.0186067
0.00483763
-0.00553626
-0.0133304
-0.019639
-0.0244792
-0.0278604
-0.0298754
-0.0306206
-0.0301859
-0.0286588
-0.0261244
-0.022665
-0.0183605
-0.0132898
-0.00753211
-0.0011685
0.00571614
0.0130316
0.0206808
0.0285584
0.0365497
0.0445303
0.0523656
0.0599116
0.067016
0.0735198
0.0792604
0.0840747
0.0878035
0.0902959
0.0914148
0.0910424
0.0890845
0.0854688
0.0801553
0.073216
0.0647363
0.0537185
0.0394332
0.0123276
-0.00249278
-0.0136086
-0.0218982
-0.0285474
-0.0335818
-0.0370196
-0.0389699
-0.0395447
-0.0388484
-0.0369814
-0.0340398
-0.0301146
-0.0252929
-0.0196586
-0.0132944
-0.00628382
0.00128697
0.0093268
0.0177376
0.0264128
0.0352352
0.0440766
0.0527968
0.0612434
0.069253
0.0766526
0.083262
0.0888978
0.0933773
0.0965244
0.0981754
0.0981863
0.096438
0.0928365
0.0873248
0.0799716
0.0708643
0.0589063
0.0433043
0.00419388
-0.0117183
-0.0235896
-0.0323641
-0.0393249
-0.0445081
-0.047943
-0.0497574
-0.050082
-0.0490379
-0.0467402
-0.0432975
-0.0388109
-0.0333749
-0.0270788
-0.0200089
-0.0122504
-0.0038904
0.00497999
0.0142628
0.0238508
0.0336259
0.0434568
0.053198
0.0626894
0.0717563
0.0802109
0.0878542
0.09448
0.0998792
0.103846
0.106187
0.106725
0.105311
0.101825
0.0961855
0.0884564
0.0787236
0.0657811
0.0487659
-0.00598398
-0.0230381
-0.0356816
-0.0449273
-0.052163
-0.057438
-0.0607963
-0.0623881
-0.0623663
-0.060872
-0.0580378
-0.0539868
-0.0488314
-0.0426746
-0.0356113
-0.0277307
-0.0191196
-0.00986443
-5.54046e-05
0.010211
0.020829
0.0316805
0.0426327
0.0535363
0.0642242
0.074511
0.0841935
0.0930528
0.100858
0.10737
0.112349
0.115565
0.116804
0.115878
0.112632
0.106958
0.0989054
0.0885568
0.074583
0.0560445
-0.0184195
-0.0366773
-0.0501128
-0.0598113
-0.0672746
-0.0725696
-0.075759
-0.0770212
-0.0765362
-0.0744695
-0.0709747
-0.0661919
-0.0602468
-0.0532516
-0.0453069
-0.0365048
-0.026932
-0.0166737
-0.00581687
0.00554537
0.0173105
0.0293627
0.0415701
0.0537814
0.065824
0.0775027
0.0885994
0.0988745
0.10807
0.115914
0.122129
0.12644
0.128586
0.128337
0.125489
0.119898
0.111595
0.100651
0.0855973
0.0654119
-0.033355
-0.0528929
-0.0671435
-0.0772696
-0.0848989
-0.0901213
-0.0930254
-0.0938247
-0.0927333
-0.0899469
-0.0856445
-0.0799868
-0.0731146
-0.0651504
-0.0562007
-0.0463594
-0.0357124
-0.0243411
-0.0123274
0.000241534
0.0132694
0.0266457
0.040242
0.053908
0.0674679
0.0807188
0.0934286
0.105337
0.116158
0.125582
0.133289
0.138952
0.142257
0.142912
0.14066
0.135305
0.126849
0.115345
0.0991648
0.0771936
-0.0510688
-0.0719822
-0.087075
-0.097593
-0.105306
-0.110336
-0.112806
-0.112974
-0.111099
-0.107414
-0.102129
-0.0954286
-0.0874723
-0.0783934
-0.0683041
-0.0572994
-0.0454619
-0.0328673
-0.0195894
-0.00570586
0.00869643
0.0235161
0.0386321
0.0538986
0.0691404
0.0841496
0.0986826
0.112459
0.125164
0.136448
0.145942
0.15326
0.15802
0.159861
0.158452
0.15353
0.145053
0.133045
0.115694
0.0917805
-0.0718849
-0.0942947
-0.11026
-0.121119
-0.128805
-0.133484
-0.135326
-0.134651
-0.131771
-0.126967
-0.120489
-0.112549
-0.103329
-0.0929719
-0.0815966
-0.069297
-0.0561502
-0.0422228
-0.0275769
-0.0122768
0.0036046
0.0199797
0.0367394
0.0537474
0.0708339
0.0877903
0.104365
0.12026
0.13513
0.148588
0.160207
0.169533
0.176106
0.179476
0.179219
0.174982
0.166664
0.154237
0.135675
0.109644
-0.0961864
-0.120248
-0.137121
-0.148246
-0.155753
-0.159868
-0.160831
-0.159038
-0.154875
-0.148682
-0.140756
-0.131345
-0.120652
-0.108835
-0.0960148
-0.0822824
-0.0677061
-0.0523394
-0.0362283
-0.0194187
-0.00196426
0.0160666
0.0345831
0.0534642
0.0725515
0.0916419
0.110481
0.128757
0.146099
0.162077
0.176205
0.187954
0.196767
0.202085
0.203369
0.200147
0.192226
0.179508
0.159706
0.131353
-0.124436
-0.150351
-0.168168
-0.179449
-0.186563
-0.189828
-0.189578
-0.186315
-0.180517
-0.172601
-0.16292
-0.151765
-0.139361
-0.125879
-0.111442
-0.0961332
-0.0800082
-0.0631017
-0.0454381
-0.0270392
-0.00793318
0.0118375
0.032207
0.0530773
0.0743091
0.0957126
0.117038
0.137967
0.158107
0.176988
0.194061
0.208713
0.220276
0.22806
0.231375
0.229593
0.222395
0.209568
0.188513
0.157604
-0.157207
-0.185238
-0.204033
-0.215303
-0.221724
-0.223746
-0.221841
-0.21665
-0.208772
-0.198719
-0.186913
-0.173691
-0.159303
-0.143931
-0.127694
-0.110664
-0.0928749
-0.0743383
-0.0550497
-0.035
-0.0141846
0.00738725
0.029683
0.0526365
0.0761369
0.100017
0.124043
0.1479
0.17118
0.19338
0.21389
0.232002
0.246926
0.257812
0.263779
0.263996
0.25796
0.245293
0.222997
0.189253
-0.195223
-0.225716
-0.245512
-0.256514
-0.261811
-0.262051
-0.257897
-0.250182
-0.239661
-0.226962
-0.212588
-0.196924
-0.180246
-0.162739
-0.144511
-0.125615
-0.106057
-0.0858154
-0.0648499
-0.0431123
-0.0205572
0.00284807
0.0271131
0.0522135
0.0780782
0.104576
0.1315
0.158552
0.185326
0.211292
0.235785
0.258004
0.277018
0.291789
0.3012
0.304152
0.299881
0.287765
0.264281
0.227366
-0.23943
-0.272841
-0.293624
-0.303961
-0.307508
-0.305214
-0.298016
-0.287004
-0.27313
-0.257163
-0.239696
-0.221162
-0.201853
-0.18195
-0.161541
-0.140644
-0.11923
-0.0972327
-0.0745667
-0.0511358
-0.0268453
-0.00161164
0.0246271
0.0518992
0.0801861
0.109407
0.139399
0.169899
0.200519
0.230723
0.259803
0.28687
0.310842
0.330467
0.344337
0.351
0.349333
0.33834
0.313796
0.273297
-0.291097
-0.328022
-0.349705
-0.358747
-0.359627
-0.353746
-0.342436
-0.327123
-0.30901
-0.289025
-0.267854
-0.245969
-0.223667
-0.201105
-0.178333
-0.155324
-0.131994
-0.108224
-0.0838717
-0.0587829
-0.0328047
-0.00579299
0.0223763
0.051796
0.0825142
0.114516
0.147705
0.181875
0.216682
0.251609
0.285932
0.318688
0.348651
0.374326
0.39396
0.405645
0.407757
0.398744
0.373394
0.328801
-0.351981
-0.393193
-0.415526
-0.422264
-0.419116
-0.408173
-0.391317
-0.370415
-0.346967
-0.322077
-0.29651
-0.270758
-0.245092
-0.219622
-0.194337
-0.16914
-0.143879
-0.118366
-0.0923899
-0.0657293
-0.0381634
-0.00947881
0.0205209
0.052005
0.0851022
0.119884
0.15634
0.194351
0.233652
0.273785
0.314048
0.353439
0.390606
0.423808
0.450888
0.469367
0.47693
0.471201
0.445529
0.396211
-0.424608
-0.471072
-0.493469
-0.496267
-0.487061
-0.468979
-0.444664
-0.416536
-0.386432
-0.355616
-0.324901
-0.294754
-0.265378
-0.236795
-0.2089
-0.181501
-0.154356
-0.127192
-0.0997169
-0.0716326
-0.0426416
-0.0124532
0.0192101
0.0526048
0.0879549
0.125436
0.165152
0.207104
0.251149
0.296939
0.343854
0.390916
0.436699
0.479238
0.515937
0.543617
0.559041
0.558612
0.53353
0.478739
-0.512743
-0.565575
-0.586772
-0.582945
-0.564634
-0.536505
-0.502207
-0.464817
-0.426504
-0.388639
-0.352009
-0.316976
-0.283613
-0.251797
-0.221284
-0.191758
-0.162862
-0.134219
-0.105446
-0.0761598
-0.0459787
-0.014529
0.0185547
0.0536249
0.0910134
0.131019
0.173886
0.219775
0.268716
0.32054
0.374795
0.430625
0.486628
0.540692
0.589797
0.629963
0.656751
0.664803
0.642034
0.580984
-0.622261
-0.682473
-0.699837
-0.68495
-0.652964
-0.610748
-0.5632
-0.51409
-0.465829
-0.419764
-0.376514
-0.336222
-0.298729
-0.263698
-0.230694
-0.199237
-0.168832
-0.138984
-0.109206
-0.0790231
-0.0479684
-0.0155813
0.0185945
0.0550129
0.0941228
0.136362
0.182142
0.231821
0.285663
0.343763
0.40595
0.471633
0.539607
0.607781
0.672828
0.729942
0.773226
0.794843
0.777676
0.709865
-0.76278
-0.830444
-0.838604
-0.805311
-0.752842
-0.691021
-0.626124
-0.562467
-0.502457
-0.447148
-0.396769
-0.351067
-0.309527
-0.271506
-0.23632
-0.203288
-0.171752
-0.141088
-0.1107
-0.0800209
-0.0484968
-0.0155838
0.019264
0.0566015
0.0969991
0.141044
0.189336
0.24247
0.301003
0.365394
0.435895
0.512383
0.594111
0.679321
0.764684
0.844746
0.912025
0.955409
0.950175
0.876373
-0.95099
-1.02276
-1.01081
-0.947003
-0.864075
-0.775353
-0.688221
-0.607037
-0.533663
-0.468411
-0.410783
-0.359898
-0.314725
-0.274222
-0.237398
-0.203338
-0.171209
-0.140249
-0.109759
-0.079079
-0.0475805
-0.0146427
0.0203612
0.0580806
0.0992029
0.144467
0.194671
0.250676
0.313393
0.383739
0.462556
0.550448
0.647499
0.752801
0.863639
0.9745
1.07662
1.15502
1.17408
1.09913
-1.21739
-1.27974
-1.22557
-1.11157
-0.984081
-0.859374
-0.744753
-0.643426
-0.555738
-0.480566
-0.416236
-0.360956
-0.313025
-0.270911
-0.233276
-0.198956
-0.166942
-0.136345
-0.106369
-0.0762831
-0.0453936
-0.0130205
0.0215279
0.0589795
0.100124
0.145839
0.19712
0.255102
0.321085
0.396531
0.483037
0.582223
0.695495
0.823547
0.965363
1.11672
1.26887
1.40355
1.47119
1.41148
-1.61796
-1.63103
-1.49159
-1.29673
-1.10589
-0.935002
-0.788308
-0.665541
-0.563979
-0.480137
-0.410638
-0.352514
-0.303266
-0.260831
-0.223518
-0.189931
-0.158908
-0.129457
-0.100713
-0.0718973
-0.0422759
-0.0111333
0.0222625
0.0586914
0.0990178
0.144231
0.195491
0.254191
0.322014
0.401008
0.493643
0.602832
0.731844
0.883959
1.06154
1.26421
1.48651
1.71014
1.8725
1.87306
-2.25465
-2.11597
-1.81356
-1.49437
-1.21741
-0.990511
-0.809412
-0.666451
-0.553624
-0.464012
-0.392067
-0.333471
-0.284904
-0.243806
-0.20819
-0.176486
-0.147431
-0.119975
-0.0932257
-0.066386
-0.0387169
-0.00949747
0.0220121
0.0566088
0.0951905
0.138809
0.188737
0.246558
0.31428
0.394491
0.490553
0.606842
0.748972
0.923925
1.13976
1.40418
1.72087
2.07932
2.41794
2.58938
-3.35484
-2.78413
-2.17258
-1.67559
-1.29249
-1.00569
-0.794115
-0.637249
-0.519312
-0.429162
-0.358965
-0.303177
-0.257835
-0.220057
-0.187702
-0.159137
-0.133081
-0.108496
-0.0845092
-0.0603529
-0.0353188
-0.00871725
0.0201612
0.0520865
0.087937
0.128759
0.175849
0.230863
0.295983
0.374152
0.46943
0.587518
0.73649
0.927845
1.17792
1.50824
1.9407
2.49092
3.15895
3.79333
-5.51253
-3.66688
-2.43143
-1.71353
-1.24144
-0.921593
-0.704688
-0.553831
-0.445391
-0.365134
-0.304131
-0.256529
-0.218371
-0.186897
-0.160111
-0.136524
-0.11498
-0.0945543
-0.0744718
-0.0540546
-0.0326779
-0.009734
0.0154031
0.0434148
0.0750819
0.111342
0.153367
0.202678
0.261319
0.332131
0.419193
0.528566
0.669535
0.856884
1.11518
1.48356
2.01536
2.80593
4.12971
6.0828
-9.19564
-4.52338
-2.3068
-1.42102
-0.959054
-0.683078
-0.512382
-0.400677
-0.322988
-0.266473
-0.223938
-0.190951
-0.164602
-0.142882
-0.124333
-0.107857
-0.0925957
-0.0778491
-0.0630275
-0.0476095
-0.0311122
-0.0130645
0.00701872
0.0296631
0.0554675
0.0851449
0.119579
0.15991
0.207656
0.264931
0.334794
0.421913
0.533837
0.683856
0.8976
1.22422
1.75379
2.73387
5.06521
9.85781
)
;

boundaryField
{
    movingWall
    {
        type            zeroGradient;
    }
    fixedWalls
    {
        type            zeroGradient;
    }
    frontAndBack
    {
        type            empty;
    }
}


// ************************************************************************* //
