/*--------------------------------*- C++ -*----------------------------------*\
  =========                 |
  \\      /  F ield         | OpenFOAM: The Open Source CFD Toolbox
   \\    /   O peration     | Website:  https://openfoam.org
    \\  /    A nd           | Version:  6.0
     \\/     M anipulation  |
\*---------------------------------------------------------------------------*/
FoamFile
{
    version     2.0;
    format      ascii;
    class       volVectorField;
    location    "0.5";
    object      U;
}
// * * * * * * * * * * * * * * * * * * * * * * * * * * * * * * * * * * * * * //

dimensions      [0 1 -1 0 0 0 0];

internalField   nonuniform List<vector> 
1600
(
(6.05325e-05 -6.05584e-05 0)
(0.000155935 -5.71825e-05 0)
(0.000156877 -7.02428e-06 0)
(6.61404e-06 5.2538e-05 0)
(-0.000303323 0.000108136 0)
(-0.000756553 0.000155058 0)
(-0.0013286 0.00019194 0)
(-0.00199249 0.000218822 0)
(-0.00272099 0.000236278 0)
(-0.00348783 0.000245055 0)
(-0.00426827 0.000245944 0)
(-0.00503944 0.000239731 0)
(-0.00578047 0.000227178 0)
(-0.0064726 0.000209021 0)
(-0.00709921 0.000185969 0)
(-0.00764581 0.000158716 0)
(-0.00810005 0.000127943 0)
(-0.0084518 9.43323e-05 0)
(-0.00869315 5.85749e-05 0)
(-0.00881843 2.13797e-05 0)
(-0.00882437 -1.65174e-05 0)
(-0.00871012 -5.43483e-05 0)
(-0.00847736 -9.1309e-05 0)
(-0.00813038 -0.000126559 0)
(-0.00767621 -0.000159225 0)
(-0.00712461 -0.000188408 0)
(-0.00648817 -0.000213192 0)
(-0.00578222 -0.000232662 0)
(-0.0050248 -0.000245918 0)
(-0.00423651 -0.000252092 0)
(-0.00344028 -0.000250372 0)
(-0.00266104 -0.000240014 0)
(-0.00192532 -0.000220382 0)
(-0.00126062 -0.000190992 0)
(-0.000694491 -0.000151649 0)
(-0.000253188 -0.000102782 0)
(4.07868e-05 -4.62746e-05 0)
(0.000174291 1.26377e-05 0)
(0.000160362 6.02225e-05 0)
(6.02985e-05 6.00491e-05 0)
(5.87021e-05 -0.000156997 0)
(7.25866e-05 -6.95637e-05 0)
(-0.000178409 0.000182327 0)
(-0.000772667 0.000477037 0)
(-0.00172473 0.000761193 0)
(-0.00300804 0.00100965 0)
(-0.00457403 0.0012111 0)
(-0.0063633 0.00136163 0)
(-0.00831208 0.00146116 0)
(-0.0103561 0.00151158 0)
(-0.0124332 0.00151586 0)
(-0.0144843 0.00147757 0)
(-0.016455 0.00140058 0)
(-0.0182956 0.00128893 0)
(-0.019962 0.00114678 0)
(-0.0214151 0.00097832 0)
(-0.0226222 0.000787811 0)
(-0.0235558 0.000579588 0)
(-0.024195 0.000358086 0)
(-0.0245248 0.000127869 0)
(-0.0245367 -0.000106347 0)
(-0.0242289 -0.000339674 0)
(-0.0236064 -0.000567051 0)
(-0.022681 -0.000783256 0)
(-0.0214721 -0.00098294 0)
(-0.020006 -0.00116069 0)
(-0.0183164 -0.00131108 0)
(-0.0164439 -0.00142883 0)
(-0.0144362 -0.00150888 0)
(-0.0123468 -0.00154657 0)
(-0.0102348 -0.00153782 0)
(-0.00816367 -0.00147933 0)
(-0.00619938 -0.00136896 0)
(-0.00440874 -0.00120612 0)
(-0.00285618 -0.000992732 0)
(-0.00159942 -0.000734851 0)
(-0.000682912 -0.000446042 0)
(-0.000126843 -0.000153469 0)
(9.20567e-05 8.84227e-05 0)
(6.17987e-05 0.000160728 0)
(1.14279e-05 -0.000162779 0)
(-0.000171929 0.000178356 0)
(-0.000804002 0.000813866 0)
(-0.00193102 0.00153635 0)
(-0.00355385 0.00223876 0)
(-0.00563654 0.00286163 0)
(-0.00811428 0.00337337 0)
(-0.0109056 0.00375959 0)
(-0.0139209 0.00401612 0)
(-0.0170682 0.00414492 0)
(-0.0202567 0.00415166 0)
(-0.0233997 0.00404434 0)
(-0.0264158 0.0038324 0)
(-0.0292305 0.00352614 0)
(-0.0317769 0.00313648 0)
(-0.0339964 0.00267473 0)
(-0.0358386 0.00215253 0)
(-0.0372625 0.00158183 0)
(-0.0382359 0.00097493 0)
(-0.0387365 0.000344488 0)
(-0.0387516 -0.000296422 0)
(-0.0382787 -0.000934301 0)
(-0.0373257 -0.00155524 0)
(-0.0359112 -0.00214498 0)
(-0.0340647 -0.00268902 0)
(-0.0318262 -0.00317279 0)
(-0.029247 -0.00358187 0)
(-0.0263883 -0.00390234 0)
(-0.0233213 -0.00412111 0)
(-0.0201259 -0.00422643 0)
(-0.0168895 -0.00420841 0)
(-0.0137051 -0.0040598 0)
(-0.0106685 -0.0037769 0)
(-0.00787517 -0.00336097 0)
(-0.00541558 -0.00282045 0)
(-0.00336922 -0.00217469 0)
(-0.00179576 -0.00146033 0)
(-0.00072311 -0.00074116 0)
(-0.000138876 -0.000126393 0)
(1.76662e-05 0.000180026 0)
(-4.55144e-05 -2.20089e-05 0)
(-0.000464488 0.000767937 0)
(-0.00153542 0.0019414 0)
(-0.0032419 0.00322673 0)
(-0.00555472 0.00446826 0)
(-0.00842291 0.00557111 0)
(-0.0117655 0.00648028 0)
(-0.0154824 0.00716765 0)
(-0.0194641 0.00762259 0)
(-0.023597 0.0078458 0)
(-0.0277682 0.00784541 0)
(-0.0318691 0.00763444 0)
(-0.0357971 0.00722915 0)
(-0.0394578 0.00664795 0)
(-0.0427661 0.0059107 0)
(-0.0456472 0.00503833 0)
(-0.048037 0.00405259 0)
(-0.0498827 0.00297595 0)
(-0.0511435 0.00183159 0)
(-0.0517908 0.00064345 0)
(-0.0518087 -0.000563813 0)
(-0.0511941 -0.00176477 0)
(-0.0499575 -0.0029333 0)
(-0.0481228 -0.00404273 0)
(-0.0457279 -0.00506604 0)
(-0.042824 -0.00597625 0)
(-0.0394764 -0.00674682 0)
(-0.0357629 -0.00735231 0)
(-0.0317735 -0.00776911 0)
(-0.0276092 -0.00797633 0)
(-0.0233797 -0.00795695 0)
(-0.0192008 -0.00769919 0)
(-0.0151918 -0.00719833 0)
(-0.0114704 -0.00645917 0)
(-0.00814785 -0.00549958 0)
(-0.00532226 -0.00435602 0)
(-0.003069 -0.00309205 0)
(-0.00142993 -0.00180988 0)
(-0.00042016 -0.000669478 0)
(-3.67787e-05 5.97891e-05 0)
(-0.000100675 0.000278603 0)
(-0.000761419 0.00172914 0)
(-0.00228993 0.00359208 0)
(-0.00459381 0.00555624 0)
(-0.0076034 0.00742892 0)
(-0.0112466 0.00908501 0)
(-0.0154238 0.0104476 0)
(-0.0200168 0.0114745 0)
(-0.0248979 0.012148 0)
(-0.0299359 0.0124668 0)
(-0.0349999 0.0124414 0)
(-0.0399633 0.0120902 0)
(-0.0447069 0.0114372 0)
(-0.0491202 0.01051 0)
(-0.0531036 0.00933903 0)
(-0.0565692 0.00795674 0)
(-0.0594417 0.00639701 0)
(-0.0616591 0.00469505 0)
(-0.0631735 0.00288727 0)
(-0.0639512 0.00101127 0)
(-0.0639735 -0.000894174 0)
(-0.0632371 -0.00278916 0)
(-0.0617541 -0.00463279 0)
(-0.0595529 -0.00638338 0)
(-0.0566777 -0.00799889 0)
(-0.0531889 -0.00943743 0)
(-0.0491627 -0.010658 0)
(-0.0446901 -0.0116216 0)
(-0.0398764 -0.0122922 0)
(-0.0348391 -0.0126384 0)
(-0.0297059 -0.012635 0)
(-0.0246116 -0.0122653 0)
(-0.0196944 -0.0115237 0)
(-0.0150912 -0.0104195 0)
(-0.0109321 -0.00898086 0)
(-0.00733373 -0.00726224 0)
(-0.00439024 -0.00535318 0)
(-0.00216376 -0.00339007 0)
(-0.000707459 -0.00157333 0)
(-8.97962e-05 -0.000214705 0)
(-0.000151 0.000732674 0)
(-0.00104625 0.00306274 0)
(-0.00302986 0.00577318 0)
(-0.00593101 0.00853223 0)
(-0.00963437 0.0111217 0)
(-0.014042 0.0133934 0)
(-0.0190326 0.0152521 0)
(-0.0244685 0.0166435 0)
(-0.0302047 0.0175435 0)
(-0.0360934 0.0179495 0)
(-0.0419882 0.0178745 0)
(-0.0477479 0.017343 0)
(-0.0532391 0.0163874 0)
(-0.0583384 0.0150459 0)
(-0.0629345 0.0133608 0)
(-0.066929 0.0113773 0)
(-0.0702378 0.00914326 0)
(-0.0727914 0.00670837 0)
(-0.0745361 0.00412413 0)
(-0.0754342 0.00144378 0)
(-0.0754647 -0.00127782 0)
(-0.0746235 -0.00398427 0)
(-0.0729242 -0.00661781 0)
(-0.0703982 -0.0091197 0)
(-0.0670948 -0.0114308 0)
(-0.0630811 -0.0134923 0)
(-0.058442 -0.0152469 0)
(-0.0532791 -0.01664 0)
(-0.0477096 -0.0176217 0)
(-0.0418649 -0.0181486 0)
(-0.0358875 -0.0181864 0)
(-0.0299284 -0.0177126 0)
(-0.0241428 -0.0167205 0)
(-0.0186856 -0.0152231 0)
(-0.0137055 -0.0132588 0)
(-0.00933974 -0.0108984 0)
(-0.0057044 -0.00825444 0)
(-0.00288692 -0.00549159 0)
(-0.000983987 -0.00284045 0)
(-0.000138154 -0.000637793 0)
(-0.00019639 0.00132987 0)
(-0.00131462 0.00475731 0)
(-0.00374138 0.00847706 0)
(-0.00723028 0.0121491 0)
(-0.0116187 0.0155395 0)
(-0.0167798 0.018484 0)
(-0.0225678 0.0208741 0)
(-0.0288242 0.0226467 0)
(-0.0353857 0.023773 0)
(-0.0420889 0.0242504 0)
(-0.0487728 0.0240959 0)
(-0.0552832 0.023341 0)
(-0.0614747 0.0220275 0)
(-0.0672135 0.0202053 0)
(-0.0723786 0.0179296 0)
(-0.0768632 0.01526 0)
(-0.080576 0.0122594 0)
(-0.0834417 0.00899343 0)
(-0.0854019 0.00553018 0)
(-0.0864156 0.00193997 0)
(-0.0864595 -0.0017047 0)
(-0.085529 -0.00532936 0)
(-0.0836383 -0.00885779 0)
(-0.0808207 -0.0122126 0)
(-0.077129 -0.0153158 0)
(-0.0726355 -0.01809 0)
(-0.0674315 -0.02046 0)
(-0.0616271 -0.022354 0)
(-0.0553492 -0.0237065 0)
(-0.0487406 -0.0244607 0)
(-0.0419569 -0.0245717 0)
(-0.035164 -0.0240102 0)
(-0.0285331 -0.0227667 0)
(-0.022237 -0.0208569 0)
(-0.0164445 -0.0183274 0)
(-0.0113151 -0.0152629 0)
(-0.00699045 -0.0117949 0)
(-0.00358658 -0.00811025 0)
(-0.0012456 -0.0044615 0)
(-0.000181733 -0.00119977 0)
(-0.000237775 0.00206048 0)
(-0.00156773 0.00679829 0)
(-0.00442344 0.0116903 0)
(-0.00848742 0.0163953 0)
(-0.0135501 0.0206712 0)
(-0.0194542 0.0243439 0)
(-0.0260273 0.0272971 0)
(-0.0330884 0.0294622 0)
(-0.0404554 0.0308091 0)
(-0.0479486 0.0313374 0)
(-0.0553934 0.0310697 0)
(-0.0626234 0.0300458 0)
(-0.0694829 0.0283186 0)
(-0.0758289 0.0259505 0)
(-0.0815325 0.0230111 0)
(-0.0864803 0.0195753 0)
(-0.0905754 0.0157223 0)
(-0.0937376 0.0115348 0)
(-0.0959049 0.00709837 0)
(-0.0970334 0.00250163 0)
(-0.0970979 -0.00216422 0)
(-0.0960927 -0.00680548 0)
(-0.094032 -0.0113263 0)
(-0.0909501 -0.0156293 0)
(-0.086902 -0.0196164 0)
(-0.0819634 -0.0231903 0)
(-0.0762306 -0.026256 0)
(-0.0698198 -0.0287232 0)
(-0.0628661 -0.0305092 0)
(-0.0555223 -0.0315419 0)
(-0.0479559 -0.0317641 0)
(-0.0403464 -0.0311376 0)
(-0.0328817 -0.0296485 0)
(-0.0257531 -0.0273126 0)
(-0.0191508 -0.0241821 0)
(-0.0132592 -0.0203523 0)
(-0.0082477 -0.0159694 0)
(-0.00426346 -0.0112374 0)
(-0.00149412 -0.00642479 0)
(-0.000221551 -0.00189177 0)
(-0.000276292 0.00291671 0)
(-0.00180893 0.00917231 0)
(-0.00508095 0.0153993 0)
(-0.0097081 0.0212589 0)
(-0.015435 0.0265061 0)
(-0.0220729 0.0309627 0)
(-0.0294216 0.0345089 0)
(-0.0372763 0.0370754 0)
(-0.0454351 0.038634 0)
(-0.0537017 0.0391892 0)
(-0.0618879 0.0387716 0)
(-0.0698158 0.0374313 0)
(-0.0773204 0.0352338 0)
(-0.0842507 0.0322556 0)
(-0.0904715 0.0285817 0)
(-0.0958639 0.0243035 0)
(-0.100327 0.0195172 0)
(-0.103776 0.0143235 0)
(-0.106146 0.0088263 0)
(-0.107392 0.00313318 0)
(-0.107485 -0.00264523 0)
(-0.10642 -0.00839522 0)
(-0.104209 -0.0140005 0)
(-0.100887 -0.0193428 0)
(-0.09651 -0.0243028 0)
(-0.0911549 -0.028762 0)
(-0.0849216 -0.0326043 0)
(-0.0779312 -0.0357193 0)
(-0.0703253 -0.0380049 0)
(-0.0622654 -0.039372 0)
(-0.0539301 -0.0397486 0)
(-0.0455127 -0.0390854 0)
(-0.0372177 -0.037361 0)
(-0.0292562 -0.0345887 0)
(-0.0218415 -0.0308229 0)
(-0.0151852 -0.0261658 0)
(-0.00948639 -0.0207745 0)
(-0.00492499 -0.0148659 0)
(-0.00173383 -0.00872087 0)
(-0.000258904 -0.00270724 0)
(-0.000312996 0.00389306 0)
(-0.00204211 0.0118691 0)
(-0.0057212 0.0195931 0)
(-0.0109025 0.02673 0)
(-0.017286 0.0330357 0)
(-0.0246507 0.0383321 0)
(-0.0327681 0.042501 0)
(-0.0414084 0.0454761 0)
(-0.050349 0.0472351 0)
(-0.0593768 0.0477908 0)
(-0.0682897 0.0471845 0)
(-0.0768992 0.045479 0)
(-0.0850314 0.0427541 0)
(-0.0925286 0.0391022 0)
(-0.0992502 0.0346248 0)
(-0.105073 0.0294308 0)
(-0.109893 0.0236346 0)
(-0.113623 0.0173549 0)
(-0.116196 0.0107148 0)
(-0.117563 0.00384115 0)
(-0.117696 -0.00313566 0)
(-0.116586 -0.0100815 0)
(-0.114245 -0.0168592 0)
(-0.110706 -0.0233288 0)
(-0.106024 -0.029349 0)
(-0.100279 -0.034779 0)
(-0.09357 -0.0394803 0)
(-0.0860224 -0.0433202 0)
(-0.0777832 -0.0461758 0)
(-0.0690212 -0.047938 0)
(-0.0599257 -0.0485176 0)
(-0.0507036 -0.0478508 0)
(-0.0415765 -0.0459058 0)
(-0.0327766 -0.0426895 0)
(-0.0245421 -0.0382549 0)
(-0.0171135 -0.0327073 0)
(-0.0107221 -0.0262111 0)
(-0.00558147 -0.018993 0)
(-0.00196978 -0.0113448 0)
(-0.000295054 -0.00364249 0)
(-0.00034879 0.00498624 0)
(-0.00227103 0.014882 0)
(-0.00635206 0.0242644 0)
(-0.0120824 0.032802 0)
(-0.0191178 0.040254 0)
(-0.0272052 0.0464467 0)
(-0.0360866 0.051267 0)
(-0.0455063 0.0546566 0)
(-0.0552205 0.0566028 0)
(-0.0649989 0.0571304 0)
(-0.0746259 0.0562945 0)
(-0.0839022 0.0541735 0)
(-0.0926464 0.0508637 0)
(-0.100695 0.046475 0)
(-0.107903 0.0411269 0)
(-0.114144 0.0349468 0)
(-0.119313 0.0280676 0)
(-0.123319 0.0206269 0)
(-0.126095 0.0127669 0)
(-0.12759 0.00463369 0)
(-0.127774 -0.0036223 0)
(-0.126635 -0.0118466 0)
(-0.124184 -0.0198809 0)
(-0.120452 -0.0275633 0)
(-0.115492 -0.03473 0)
(-0.109382 -0.0412166 0)
(-0.102223 -0.046861 0)
(-0.0941407 -0.0515066 0)
(-0.0852861 -0.0550068 0)
(-0.0758348 -0.0572303 0)
(-0.0659857 -0.0580671 0)
(-0.0559595 -0.0574353 0)
(-0.0459955 -0.0552887 0)
(-0.0363479 -0.0516238 0)
(-0.0272817 -0.046488 0)
(-0.0190681 -0.0399859 0)
(-0.0119726 -0.0322859 0)
(-0.00624418 -0.0236223 0)
(-0.00220708 -0.0142968 0)
(-0.000331144 -0.00469667 0)
(-0.000384424 0.00619494 0)
(-0.00249914 0.0182084 0)
(-0.0069811 0.0294101 0)
(-0.0132596 0.0394719 0)
(-0.0209459 0.0481583 0)
(-0.0297542 0.0553029 0)
(-0.0393962 0.0608024 0)
(-0.0495899 0.0646103 0)
(-0.0600696 0.0667281 0)
(-0.0705876 0.0671966 0)
(-0.0809148 0.0660882 0)
(-0.0908422 0.0634999 0)
(-0.100181 0.0595471 0)
(-0.108764 0.054359 0)
(-0.116442 0.0480748 0)
(-0.123089 0.0408411 0)
(-0.128596 0.0328098 0)
(-0.132874 0.0241378 0)
(-0.135854 0.0149861 0)
(-0.137483 0.00551998 0)
(-0.137729 -0.00409064 0)
(-0.13658 -0.0136712 0)
(-0.134042 -0.0230424 0)
(-0.130143 -0.0320205 0)
(-0.124934 -0.0404186 0)
(-0.11849 -0.0480482 0)
(-0.110909 -0.054722 0)
(-0.102317 -0.0602576 0)
(-0.0928677 -0.0644823 0)
(-0.0827418 -0.0672391 0)
(-0.0721472 -0.0683937 0)
(-0.0613177 -0.0678419 0)
(-0.0505108 -0.0655181 0)
(-0.0400037 -0.0614042 0)
(-0.0300898 -0.0555371 0)
(-0.0210734 -0.0480167 0)
(-0.0132559 -0.0390121 0)
(-0.00692437 -0.0287636 0)
(-0.00245063 -0.0175831 0)
(-0.000368189 -0.00587167 0)
(-0.000420526 0.00751959 0)
(-0.00272948 0.0218491 0)
(-0.00761527 0.0350312 0)
(-0.0144449 0.0467406 0)
(-0.0227843 0.0567486 0)
(-0.0323139 0.0648992 0)
(-0.0427142 0.0711031 0)
(-0.053676 0.0753303 0)
(-0.0649113 0.0776008 0)
(-0.0761549 0.0779759 0)
(-0.087165 0.0765495 0)
(-0.0977235 0.0734403 0)
(-0.107636 0.0687857 0)
(-0.116731 0.0627364 0)
(-0.12486 0.0554526 0)
(-0.131895 0.047101 0)
(-0.137728 0.0378532 0)
(-0.14227 0.0278849 0)
(-0.145452 0.0173758 0)
(-0.147221 0.00650969 0)
(-0.147544 -0.00452482 0)
(-0.146404 -0.0155338 0)
(-0.143805 -0.0263176 0)
(-0.13977 -0.0366709 0)
(-0.134346 -0.0463836 0)
(-0.127601 -0.0552426 0)
(-0.119633 -0.0630341 0)
(-0.110563 -0.0695478 0)
(-0.100547 -0.0745824 0)
(-0.0897664 -0.0779515 0)
(-0.0784385 -0.079492 0)
(-0.0668094 -0.0790726 0)
(-0.0551546 -0.0766035 0)
(-0.0437755 -0.0720458 0)
(-0.0329951 -0.0654211 0)
(-0.0231531 -0.0568203 0)
(-0.0145899 -0.0464096 0)
(-0.00763287 -0.0344337 0)
(-0.00270502 -0.0212149 0)
(-0.000407103 -0.00717189 0)
(-0.00045763 0.00896211 0)
(-0.00296475 0.0258083 0)
(-0.00826088 0.0411328 0)
(-0.0156484 0.0546125 0)
(-0.024646 0.0660274 0)
(-0.0348987 0.0752353 0)
(-0.0460547 0.0821649 0)
(-0.0577766 0.0868076 0)
(-0.0697539 0.0892073 0)
(-0.0817043 0.0894506 0)
(-0.0933736 0.087657 0)
(-0.104536 0.083971 0)
(-0.114993 0.0785549 0)
(-0.124571 0.0715833 0)
(-0.133123 0.0632387 0)
(-0.140522 0.053709 0)
(-0.146662 0.0431855 0)
(-0.151457 0.0318626 0)
(-0.154838 0.0199378 0)
(-0.156752 0.00761227 0)
(-0.157164 -0.00490776 0)
(-0.156055 -0.0174102 0)
(-0.153424 -0.0296761 0)
(-0.14929 -0.0414794 0)
(-0.143691 -0.0525872 0)
(-0.13669 -0.0627612 0)
(-0.128378 -0.0717602 0)
(-0.118872 -0.0793441 0)
(-0.108324 -0.0852798 0)
(-0.0969181 -0.0893478 0)
(-0.0848769 -0.0913515 0)
(-0.0724576 -0.0911267 0)
(-0.0599537 -0.088553 0)
(-0.0476908 -0.0835649 0)
(-0.0360237 -0.0761626 0)
(-0.0253297 -0.0664226 0)
(-0.0159912 -0.0545047 0)
(-0.00837998 -0.0406556 0)
(-0.00297456 -0.0252088 0)
(-0.000448723 -0.00860405 0)
(-0.000496211 0.0105258 0)
(-0.0032074 0.0300929 0)
(-0.0089237 0.0477231 0)
(-0.0168792 0.063095 0)
(-0.0265424 0.075999 0)
(-0.0375207 0.0863107 0)
(-0.0494283 0.0939814 0)
(-0.0618988 0.0990296 0)
(-0.0745988 0.101529 0)
(-0.0872293 0.101596 0)
(-0.0995251 0.0993813 0)
(-0.111254 0.0950596 0)
(-0.122215 0.0888211 0)
(-0.132237 0.0808668 0)
(-0.141174 0.0714033 0)
(-0.148903 0.0606401 0)
(-0.155324 0.0487885 0)
(-0.160353 0.0360606 0)
(-0.163923 0.0226707 0)
(-0.165983 0.00883607 0)
(-0.166498 -0.00522136 0)
(-0.165444 -0.0192731 0)
(-0.162816 -0.0330825 0)
(-0.158624 -0.0464041 0)
(-0.1529 -0.0589828 0)
(-0.145698 -0.0705555 0)
(-0.137097 -0.0808525 0)
(-0.127209 -0.0896022 0)
(-0.116179 -0.0965365 0)
(-0.10419 -0.101399 0)
(-0.091466 -0.103953 0)
(-0.0782751 -0.103997 0)
(-0.0649271 -0.101371 0)
(-0.0517724 -0.0959771 0)
(-0.0391986 -0.087786 0)
(-0.0276235 -0.0768537 0)
(-0.0174756 -0.063329 0)
(-0.00917546 -0.0474585 0)
(-0.00326337 -0.0295865 0)
(-0.000493845 -0.0101771 0)
(-0.000536722 0.0122151 0)
(-0.0034598 0.0347128 0)
(-0.00960929 0.0548138 0)
(-0.0181458 0.072198 0)
(-0.0284838 0.0866691 0)
(-0.0401899 0.0981242 0)
(-0.0528422 0.106543 0)
(-0.0660441 0.111978 0)
(-0.0794393 0.114538 0)
(-0.0927128 0.114377 0)
(-0.10559 0.111682 0)
(-0.117835 0.106661 0)
(-0.129246 0.0995381 0)
(-0.139657 0.0905419 0)
(-0.148928 0.0799049 0)
(-0.156941 0.067859 0)
(-0.163604 0.0546348 0)
(-0.168839 0.0404617 0)
(-0.172583 0.0255688 0)
(-0.174788 0.0101874 0)
(-0.175416 -0.00544701 0)
(-0.174443 -0.0210919 0)
(-0.171856 -0.0364955 0)
(-0.167658 -0.0513944 0)
(-0.16187 -0.0655132 0)
(-0.154533 -0.0785641 0)
(-0.145715 -0.0902489 0)
(-0.135515 -0.100263 0)
(-0.124068 -0.1083 0)
(-0.111553 -0.114061 0)
(-0.0981933 -0.117267 0)
(-0.0842623 -0.117667 0)
(-0.0700852 -0.115057 0)
(-0.0560369 -0.109295 0)
(-0.0425391 -0.100316 0)
(-0.030053 -0.0881467 0)
(-0.0190579 -0.0729196 0)
(-0.0100287 -0.0548771 0)
(-0.00357544 -0.0343742 0)
(-0.000543252 -0.011902 0)
(-0.000579637 0.0140357 0)
(-0.0037244 0.0396806 0)
(-0.0103233 0.0624194 0)
(-0.0194569 0.0819338 0)
(-0.0304799 0.0980435 0)
(-0.0429147 0.110672 0)
(-0.0563003 0.119836 0)
(-0.0702086 0.125627 0)
(-0.0842604 0.128197 0)
(-0.098126 0.127746 0)
(-0.111523 0.124503 0)
(-0.124216 0.118716 0)
(-0.136006 0.110644 0)
(-0.146734 0.100548 0)
(-0.156268 0.0886871 0)
(-0.164505 0.0753168 0)
(-0.171358 0.060686 0)
(-0.176759 0.0450397 0)
(-0.180653 0.02862 0)
(-0.182994 0.0116693 0)
(-0.183746 -0.00556614 0)
(-0.18288 -0.022833 0)
(-0.180378 -0.0398669 0)
(-0.176233 -0.05639 0)
(-0.170452 -0.0721081 0)
(-0.163063 -0.0867105 0)
(-0.154116 -0.0998704 0)
(-0.143694 -0.111249 0)
(-0.131919 -0.120498 0)
(-0.118957 -0.127274 0)
(-0.105027 -0.131245 0)
(-0.0904049 -0.132106 0)
(-0.0754279 -0.129598 0)
(-0.0604942 -0.123525 0)
(-0.0460605 -0.113775 0)
(-0.0326347 -0.100336 0)
(-0.0207519 -0.0833174 0)
(-0.0109489 -0.0629515 0)
(-0.00391481 -0.0396027 0)
(-0.000597749 -0.0137919 0)
(-0.000625494 0.0159948 0)
(-0.00400397 0.0450117 0)
(-0.011072 0.0705577 0)
(-0.0208215 0.0923164 0)
(-0.0325406 0.110127 0)
(-0.0457023 0.123948 0)
(-0.0598034 0.133838 0)
(-0.0743827 0.139938 0)
(-0.0890383 0.142455 0)
(-0.103428 0.14164 0)
(-0.117264 0.137771 0)
(-0.130314 0.131143 0)
(-0.142388 0.122056 0)
(-0.153338 0.110804 0)
(-0.163048 0.0976755 0)
(-0.171425 0.0829482 0)
(-0.178399 0.0668892 0)
(-0.183914 0.049757 0)
(-0.187922 0.0318038 0)
(-0.190383 0.0132801 0)
(-0.191264 -0.00556113 0)
(-0.190533 -0.0244594 0)
(-0.188165 -0.043142 0)
(-0.184141 -0.0613197 0)
(-0.178454 -0.078683 0)
(-0.171112 -0.0949002 0)
(-0.162146 -0.109617 0)
(-0.151617 -0.122459 0)
(-0.139626 -0.133037 0)
(-0.126322 -0.140954 0)
(-0.111913 -0.14582 0)
(-0.0966712 -0.147267 0)
(-0.0809426 -0.144969 0)
(-0.0651462 -0.138664 0)
(-0.0497737 -0.128181 0)
(-0.0353831 -0.113457 0)
(-0.0225713 -0.0945663 0)
(-0.0119454 -0.0717263 0)
(-0.00428571 -0.0453073 0)
(-0.000658209 -0.0158621 0)
(-0.000674962 0.0181009 0)
(-0.00430187 0.0507248 0)
(-0.0118631 0.0792497 0)
(-0.0222506 0.103362 0)
(-0.0346772 0.122925 0)
(-0.0485601 0.137939 0)
(-0.0633501 0.148517 0)
(-0.0785511 0.154861 0)
(-0.0937392 0.157242 0)
(-0.108562 0.155972 0)
(-0.122732 0.151389 0)
(-0.136023 0.143839 0)
(-0.14826 0.133668 0)
(-0.159311 0.121206 0)
(-0.16908 0.106773 0)
(-0.177494 0.0906679 0)
(-0.1845 0.0731745 0)
(-0.190057 0.0545619 0)
(-0.19413 0.0350895 0)
(-0.196687 0.0150116 0)
(-0.197698 -0.00541641 0)
(-0.197129 -0.0259319 0)
(-0.194947 -0.0462585 0)
(-0.191123 -0.0661003 0)
(-0.18563 -0.0851366 0)
(-0.178455 -0.103018 0)
(-0.169603 -0.119365 0)
(-0.159108 -0.133768 0)
(-0.147044 -0.145793 0)
(-0.133535 -0.154988 0)
(-0.118769 -0.160897 0)
(-0.103009 -0.163077 0)
(-0.0866023 -0.161125 0)
(-0.0699853 -0.154696 0)
(-0.0536846 -0.143544 0)
(-0.0383108 -0.127541 0)
(-0.0245294 -0.106713 0)
(-0.0130282 -0.0812509 0)
(-0.00469277 -0.051528 0)
(-0.000725616 -0.0181301 0)
(-0.000728916 0.0203645 0)
(-0.00462245 0.056843 0)
(-0.0127059 0.0885207 0)
(-0.0237574 0.115087 0)
(-0.0369029 0.136438 0)
(-0.051496 0.152626 0)
(-0.0669365 0.163829 0)
(-0.0826921 0.170327 0)
(-0.0983185 0.172465 0)
(-0.113456 0.170632 0)
(-0.127823 0.165231 0)
(-0.141207 0.156671 0)
(-0.153454 0.145344 0)
(-0.164455 0.131623 0)
(-0.174138 0.115857 0)
(-0.182458 0.0983672 0)
(-0.189382 0.0794514 0)
(-0.194891 0.0593863 0)
(-0.198964 0.038434 0)
(-0.201581 0.0168479 0)
(-0.202715 -0.00511976 0)
(-0.202333 -0.0272096 0)
(-0.200396 -0.0491474 0)
(-0.196858 -0.0706366 0)
(-0.191675 -0.0913503 0)
(-0.184808 -0.110926 0)
(-0.17623 -0.128963 0)
(-0.165943 -0.145018 0)
(-0.153984 -0.15861 0)
(-0.140444 -0.16923 0)
(-0.125481 -0.176347 0)
(-0.109341 -0.179435 0)
(-0.092362 -0.177994 0)
(-0.0749933 -0.171585 0)
(-0.0577935 -0.159862 0)
(-0.0414286 -0.142615 0)
(-0.02664 -0.119803 0)
(-0.014208 -0.0915789 0)
(-0.00514127 -0.05831 0)
(-0.000801139 -0.0206161 0)
(-0.000788547 0.0227987 0)
(-0.00497153 0.0633945 0)
(-0.0136133 0.0984008 0)
(-0.0253596 0.127512 0)
(-0.0392348 0.150665 0)
(-0.0545194 0.167978 0)
(-0.0705567 0.179714 0)
(-0.0867771 0.186243 0)
(-0.102718 0.188005 0)
(-0.118019 0.185476 0)
(-0.132411 0.179139 0)
(-0.145702 0.169469 0)
(-0.157767 0.156914 0)
(-0.16853 0.14189 0)
(-0.17795 0.124774 0)
(-0.186013 0.10591 0)
(-0.192716 0.0856064 0)
(-0.198063 0.0641428 0)
(-0.202053 0.0417792 0)
(-0.20468 0.0187625 0)
(-0.205924 -0.0046639 0)
(-0.205752 -0.0282509 0)
(-0.204118 -0.0517334 0)
(-0.200963 -0.0748205 0)
(-0.196221 -0.0971865 0)
(-0.189823 -0.118462 0)
(-0.181709 -0.138229 0)
(-0.171838 -0.156014 0)
(-0.160202 -0.171292 0)
(-0.14685 -0.183491 0)
(-0.131898 -0.192 0)
(-0.115559 -0.196198 0)
(-0.0981552 -0.195474 0)
(-0.0801382 -0.189268 0)
(-0.0620942 -0.177116 0)
(-0.0447457 -0.158698 0)
(-0.0289179 -0.133883 0)
(-0.0154974 -0.102768 0)
(-0.00563756 -0.0657037 0)
(-0.000886214 -0.0233432 0)
(-0.000855507 0.0254203 0)
(-0.00535702 0.0704146 0)
(-0.0146023 0.108927 0)
(-0.0270802 0.140659 0)
(-0.041695 0.165599 0)
(-0.0576419 0.183953 0)
(-0.0742019 0.196087 0)
(-0.0907679 0.202488 0)
(-0.106864 0.203706 0)
(-0.122135 0.200323 0)
(-0.136334 0.192912 0)
(-0.149302 0.182025 0)
(-0.160951 0.168169 0)
(-0.171246 0.151804 0)
(-0.180188 0.133339 0)
(-0.1878 0.113132 0)
(-0.194113 0.0915002 0)
(-0.199161 0.0687224 0)
(-0.202965 0.0450502 0)
(-0.205537 0.0207177 0)
(-0.206865 -0.00404817 0)
(-0.206921 -0.0290154 0)
(-0.205651 -0.0539358 0)
(-0.202983 -0.0785327 0)
(-0.198827 -0.102489 0)
(-0.193084 -0.125437 0)
(-0.185652 -0.146948 0)
(-0.176442 -0.166524 0)
(-0.165394 -0.183598 0)
(-0.152498 -0.197534 0)
(-0.137818 -0.207638 0)
(-0.121518 -0.213178 0)
(-0.103889 -0.213416 0)
(-0.0853713 -0.207649 0)
(-0.0665724 -0.195263 0)
(-0.0482697 -0.175796 0)
(-0.0313796 -0.148997 0)
(-0.0169114 -0.114881 0)
(-0.00618954 -0.0737665 0)
(-0.000982681 -0.0263383 0)
(-0.000932125 0.0282506 0)
(-0.00578989 0.0779485 0)
(-0.0156959 0.120146 0)
(-0.0289502 0.154552 0)
(-0.044312 0.181228 0)
(-0.0608773 0.20049 0)
(-0.0778587 0.21284 0)
(-0.0946131 0.218904 0)
(-0.110658 0.219371 0)
(-0.125655 0.214944 0)
(-0.139392 0.206303 0)
(-0.151754 0.194084 0)
(-0.162705 0.178856 0)
(-0.172259 0.161124 0)
(-0.180467 0.141326 0)
(-0.187397 0.119834 0)
(-0.193121 0.0969655 0)
(-0.197706 0.0729933 0)
(-0.201201 0.048154 0)
(-0.203635 0.0226616 0)
(-0.205012 -0.00328033 0)
(-0.205306 -0.0294655 0)
(-0.204459 -0.055671 0)
(-0.202387 -0.0816434 0)
(-0.198976 -0.107084 0)
(-0.194093 -0.131636 0)
(-0.187591 -0.15487 0)
(-0.179328 -0.176271 0)
(-0.16918 -0.195235 0)
(-0.157068 -0.211066 0)
(-0.142983 -0.222981 0)
(-0.127026 -0.230128 0)
(-0.109434 -0.231621 0)
(-0.0906221 -0.226587 0)
(-0.0712031 -0.214228 0)
(-0.052006 -0.193896 0)
(-0.0340444 -0.165182 0)
(-0.0184689 -0.127984 0)
(-0.00680744 -0.0825637 0)
(-0.00109297 -0.0296331 0)
(-0.00102171 0.0313177 0)
(-0.00628537 0.0860545 0)
(-0.0169256 0.132113 0)
(-0.0310102 0.169218 0)
(-0.047122 0.197529 0)
(-0.0642407 0.217506 0)
(-0.0815054 0.229823 0)
(-0.0982413 0.235285 0)
(-0.113971 0.234746 0)
(-0.128389 0.229054 0)
(-0.141333 0.219008 0)
(-0.152748 0.205335 0)
(-0.162662 0.18867 0)
(-0.171153 0.169563 0)
(-0.17833 0.148474 0)
(-0.184312 0.125784 0)
(-0.189218 0.101807 0)
(-0.193151 0.0768 0)
(-0.196191 0.0509783 0)
(-0.198391 0.0245282 0)
(-0.199767 -0.00237816 0)
(-0.200301 -0.0295684 0)
(-0.199933 -0.0568542 0)
(-0.198568 -0.0840154 0)
(-0.196068 -0.110783 0)
(-0.192267 -0.13682 0)
(-0.186973 -0.16171 0)
(-0.179981 -0.184933 0)
(-0.171096 -0.205857 0)
(-0.160156 -0.223729 0)
(-0.147064 -0.237679 0)
(-0.13183 -0.246727 0)
(-0.114619 -0.249821 0)
(-0.095791 -0.245884 0)
(-0.0759472 -0.23389 0)
(-0.0559571 -0.212961 0)
(-0.0369355 -0.18247 0)
(-0.0201943 -0.142148 0)
(-0.00750488 -0.092171 0)
(-0.00122041 -0.0332654 0)
(-0.00112904 0.0346594 0)
(-0.00686477 0.0948087 0)
(-0.0183344 0.144901 0)
(-0.033314 0.184688 0)
(-0.0501696 0.214462 0)
(-0.0677453 0.23488 0)
(-0.0851044 0.24684 0)
(-0.10155 0.251366 0)
(-0.116628 0.249515 0)
(-0.130087 0.242301 0)
(-0.141834 0.230659 0)
(-0.151896 0.215409 0)
(-0.160378 0.197257 0)
(-0.167435 0.176788 0)
(-0.173241 0.154482 0)
(-0.177975 0.130719 0)
(-0.181805 0.105802 0)
(-0.184875 0.0799643 0)
(-0.187297 0.0533922 0)
(-0.189147 0.0262363 0)
(-0.190461 -0.00137084 0)
(-0.191226 -0.029299 0)
(-0.191387 -0.0574037 0)
(-0.190836 -0.0855079 0)
(-0.189418 -0.113383 0)
(-0.186935 -0.14073 0)
(-0.183146 -0.167153 0)
(-0.177785 -0.192144 0)
(-0.170577 -0.215057 0)
(-0.161264 -0.235096 0)
(-0.14964 -0.251304 0)
(-0.135604 -0.262571 0)
(-0.119211 -0.267661 0)
(-0.100738 -0.265263 0)
(-0.0807445 -0.254073 0)
(-0.060121 -0.232915 0)
(-0.0400814 -0.200875 0)
(-0.0221199 -0.157451 0)
(-0.00830051 -0.102678 0)
(-0.00136965 -0.0372816 0)
(-0.00126107 0.0383265 0)
(-0.00755814 0.104312 0)
(-0.0199803 0.158599 0)
(-0.0359308 0.200989 0)
(-0.0535063 0.231964 0)
(-0.071396 0.252447 0)
(-0.0885901 0.263627 0)
(-0.104389 0.266804 0)
(-0.118387 0.263277 0)
(-0.130416 0.254254 0)
(-0.140481 0.240812 0)
(-0.148712 0.223874 0)
(-0.155308 0.204204 0)
(-0.160511 0.182421 0)
(-0.16457 0.159011 0)
(-0.167729 0.134346 0)
(-0.170204 0.108704 0)
(-0.172181 0.0822892 0)
(-0.173807 0.0552489 0)
(-0.175181 0.0276907 0)
(-0.176357 -0.000299647 0)
(-0.177335 -0.0286421 0)
(-0.178061 -0.0572443 0)
(-0.178425 -0.0859827 0)
(-0.178256 -0.114682 0)
(-0.177328 -0.14309 0)
(-0.175357 -0.170856 0)
(-0.172015 -0.197497 0)
(-0.166942 -0.222374 0)
(-0.159774 -0.244663 0)
(-0.15018 -0.263335 0)
(-0.137917 -0.277153 0)
(-0.122896 -0.284685 0)
(-0.105266 -0.284353 0)
(-0.0855034 -0.27452 0)
(-0.0644867 -0.253632 0)
(-0.0435168 -0.220395 0)
(-0.0242889 -0.173975 0)
(-0.00922052 -0.11419 0)
(-0.00154744 -0.0417399 0)
(-0.00142822 0.0423888 0)
(-0.00840826 0.114697 0)
(-0.0219423 0.17332 0)
(-0.0389479 0.218145 0)
(-0.0571868 0.249932 0)
(-0.075176 0.26997 0)
(-0.0918465 0.279829 0)
(-0.106528 0.281157 0)
(-0.118904 0.275534 0)
(-0.128928 0.264388 0)
(-0.136736 0.248947 0)
(-0.142582 0.230229 0)
(-0.146782 0.209049 0)
(-0.149672 0.186045 0)
(-0.151582 0.161695 0)
(-0.152818 0.136349 0)
(-0.153648 0.110252 0)
(-0.154297 0.083565 0)
(-0.154941 0.0563903 0)
(-0.155705 0.0287853 0)
(-0.156659 0.000782415 0)
(-0.157817 -0.0275947 0)
(-0.159132 -0.056313 0)
(-0.160495 -0.0853113 0)
(-0.161728 -0.114478 0)
(-0.162584 -0.143626 0)
(-0.162743 -0.172462 0)
(-0.16182 -0.200554 0)
(-0.159375 -0.227292 0)
(-0.15493 -0.251851 0)
(-0.148013 -0.273155 0)
(-0.138211 -0.28985 0)
(-0.125249 -0.300308 0)
(-0.109096 -0.302656 0)
(-0.0900833 -0.294866 0)
(-0.0690261 -0.274911 0)
(-0.0472827 -0.240991 0)
(-0.0267603 -0.191805 0)
(-0.0103025 -0.126841 0)
(-0.00176385 -0.0467155 0)
(-0.00164638 0.046944 0)
(-0.00947688 0.126141 0)
(-0.024327 0.189199 0)
(-0.0424715 0.236158 0)
(-0.0612576 0.268196 0)
(-0.0790225 0.287112 0)
(-0.0946716 0.294972 0)
(-0.107617 0.293852 0)
(-0.117689 0.285666 0)
(-0.125011 0.272075 0)
(-0.12989 0.254457 0)
(-0.132731 0.233911 0)
(-0.133978 0.211286 0)
(-0.13407 0.187215 0)
(-0.133417 0.162152 0)
(-0.132383 0.136408 0)
(-0.131283 0.11018 0)
(-0.130374 0.0835801 0)
(-0.129856 0.0566553 0)
(-0.129876 0.0294078 0)
(-0.130519 0.00181229 0)
(-0.131814 -0.026168 0)
(-0.133724 -0.0545646 0)
(-0.136147 -0.0833848 0)
(-0.138907 -0.112591 0)
(-0.141749 -0.142072 0)
(-0.14433 -0.171614 0)
(-0.146222 -0.200859 0)
(-0.146908 -0.229257 0)
(-0.145806 -0.256015 0)
(-0.14229 -0.280045 0)
(-0.135753 -0.299908 0)
(-0.125691 -0.313792 0)
(-0.111825 -0.319516 0)
(-0.0942646 -0.314602 0)
(-0.0736787 -0.296442 0)
(-0.0514242 -0.262571 0)
(-0.0296143 -0.211028 0)
(-0.0116014 -0.140793 0)
(-0.00203443 -0.0523082 0)
(-0.0019407 0.0521305 0)
(-0.0108546 0.138884 0)
(-0.0272777 0.206393 0)
(-0.0466233 0.254991 0)
(-0.0657338 0.286485 0)
(-0.0827828 0.303386 0)
(-0.0967172 0.308412 0)
(-0.107116 0.304159 0)
(-0.114033 0.292913 0)
(-0.117826 0.276575 0)
(-0.119011 0.256655 0)
(-0.118171 0.234307 0)
(-0.115885 0.21038 0)
(-0.112693 0.185477 0)
(-0.109078 0.160004 0)
(-0.105454 0.134212 0)
(-0.102166 0.108239 0)
(-0.0994953 0.0821368 0)
(-0.0976585 0.0558919 0)
(-0.0968133 0.029448 0)
(-0.097059 0.00272044 0)
(-0.0984364 -0.0243891 0)
(-0.100925 -0.0519778 0)
(-0.104436 -0.0801251 0)
(-0.108808 -0.108873 0)
(-0.113791 -0.138198 0)
(-0.11904 -0.167983 0)
(-0.1241 -0.197967 0)
(-0.128406 -0.227698 0)
(-0.131277 -0.256458 0)
(-0.131941 -0.283194 0)
(-0.129582 -0.306435 0)
(-0.123424 -0.324222 0)
(-0.11287 -0.334073 0)
(-0.0977001 -0.333021 0)
(-0.0783208 -0.317759 0)
(-0.0559823 -0.284954 0)
(-0.0329593 -0.231721 0)
(-0.0131996 -0.156256 0)
(-0.00238407 -0.0586556 0)
(-0.0023524 0.0581489 0)
(-0.0126768 0.15324 0)
(-0.0309834 0.22507 0)
(-0.0515248 0.274515 0)
(-0.0705506 0.304352 0)
(-0.0861367 0.31809 0)
(-0.0973938 0.319285 0)