1.45 	0 	0 	-0.282962
2.35 	0 	0 	-0.0578253
