/*--------------------------------*- C++ -*----------------------------------*\
  =========                 |
  \\      /  F ield         | OpenFOAM: The Open Source CFD Toolbox
   \\    /   O peration     | Website:  https://openfoam.org
    \\  /    A nd           | Version:  6.0
     \\/     M anipulation  |
\*---------------------------------------------------------------------------*/
FoamFile
{
    version     2.0;
    format      ascii;
    class       surfaceScalarField;
    location    "0.5";
    object      phi;
}
// * * * * * * * * * * * * * * * * * * * * * * * * * * * * * * * * * * * * * //

dimensions      [0 3 -1 0 0 0 0];

internalField   nonuniform List<scalar> 
1540
(
1.10584e-08
-1.10765e-08
-4.80434e-09
1.58628e-08
-5.37265e-08
4.89222e-08
-1.2893e-07
7.52031e-08
-2.2167e-07
9.27404e-08
-3.23908e-07
1.02239e-07
-4.29141e-07
1.05233e-07
-5.32577e-07
1.03435e-07
-6.30968e-07
9.83915e-08
-7.2233e-07
9.13619e-08
-8.05641e-07
8.33112e-08
-8.80576e-07
7.49351e-08
-9.47278e-07
6.67023e-08
-1.00618e-06
5.88977e-08
-1.05784e-06
5.16604e-08
-1.10285e-06
4.50162e-08
-1.14175e-06
3.89016e-08
-1.17494e-06
3.31832e-08
-1.20261e-06
2.76709e-08
-1.22474e-06
2.21296e-08
-1.24103e-06
1.62885e-08
-1.25088e-06
9.85175e-09
-1.25339e-06
2.5123e-09
-1.24736e-06
-6.02941e-09
-1.23132e-06
-1.6039e-08
-1.20361e-06
-2.77124e-08
-1.16248e-06
-4.11292e-08
-1.10628e-06
-5.61956e-08
-1.0337e-06
-7.2581e-08
-9.44052e-07
-8.96515e-08
-8.37638e-07
-1.06414e-07
-7.16155e-07
-1.21483e-07
-5.83065e-07
-1.3309e-07
-4.43919e-07
-1.39146e-07
-3.06523e-07
-1.37396e-07
-1.80838e-07
-1.25685e-07
-7.83913e-08
-1.02447e-07
-1.0966e-08
-6.74254e-08
1.2674e-08
-2.36403e-08
1.26739e-08
-1.54232e-08
4.34666e-09
-9.4195e-08
9.46347e-08
-2.39466e-07
1.94193e-07
-4.39618e-07
2.75355e-07
-6.78309e-07
3.31431e-07
-9.391e-07
3.6303e-07
-1.20772e-06
3.7385e-07
-1.47294e-06
3.68663e-07
-1.72671e-06
3.52153e-07
-1.96371e-06
3.2837e-07
-2.18096e-06
3.00555e-07
-2.37716e-06
2.71136e-07
-2.55226e-06
2.41805e-07
-2.70699e-06
2.1363e-07
-2.8425e-06
1.87169e-07
-2.96006e-06
1.6257e-07
-3.06082e-06
1.3966e-07
-3.14564e-06
1.18007e-07
-3.21495e-06
9.69781e-08
-3.2686e-06
7.57825e-08
-3.30582e-06
5.35112e-08
-3.32515e-06
2.91807e-08
-3.32442e-06
1.78639e-09
-3.30082e-06
-2.96286e-08
-3.25098e-06
-6.58807e-08
-3.17117e-06
-1.07524e-07
-3.0576e-06
-1.547e-07
-2.90684e-06
-2.06956e-07
-2.71637e-06
-2.63047e-07
-2.48528e-06
-3.20747e-07
-2.215e-06
-3.76688e-07
-1.91019e-06
-4.26298e-07
-1.5794e-06
-4.63877e-07
-1.23566e-06
-4.82892e-07
-8.96492e-07
-4.76562e-07
-5.83313e-07
-4.38864e-07
-3.19613e-07
-3.66146e-07
-1.27615e-07
-2.59423e-07
-2.23586e-08
-1.28896e-07
-9.68489e-09
-5.03922e-08
5.47389e-08
-2.01046e-07
2.45289e-07
-4.41881e-07
4.35028e-07
-7.54386e-07
5.8786e-07
-1.1165e-06
6.93549e-07
-1.50651e-06
7.53033e-07
-1.90537e-06
7.72711e-07
-2.29789e-06
7.61182e-07
-2.6729e-06
7.27169e-07
-3.02297e-06
6.78435e-07
-3.34374e-06
6.21328e-07
-3.63329e-06
5.60691e-07
-3.89144e-06
4.99953e-07
-4.11912e-06
4.41311e-07
-4.31789e-06
3.85942e-07
-4.48951e-06
3.3419e-07
-4.63559e-06
2.85739e-07
-4.75734e-06
2.3975e-07
-4.85533e-06
1.94976e-07
-4.9294e-06
1.49854e-07
-4.97849e-06
1.02595e-07
-5.00058e-06
5.12766e-08
-4.99275e-06
-6.04807e-09
-4.95117e-06
-7.12106e-08
-4.8713e-06
-1.45744e-07
-4.74818e-06
-2.3065e-07
-4.57677e-06
-3.26108e-07
-4.35259e-06
-4.31137e-07
-4.0724e-06
-5.43234e-07
-3.73514e-06
-6.58013e-07
-3.34289e-06
-7.68934e-07
-2.90199e-06
-8.67199e-07
-2.42393e-06
-9.41934e-07
-1.92603e-06
-9.80798e-07
-1.43142e-06
-9.71165e-07
-9.68213e-07
-9.02074e-07
-5.67233e-07
-7.67127e-07
-2.58341e-07
-5.68315e-07
-6.52083e-08
-3.22029e-07
-7.48932e-08
-8.28334e-08
1.37572e-07
-3.03296e-07
4.65751e-07
-6.34944e-07
7.66676e-07
-1.04955e-06
1.00246e-06
-1.51863e-06
1.16263e-06
-2.01591e-06
1.25031e-06
-2.51901e-06
1.27581e-06
-3.01032e-06
1.25249e-06
-3.47703e-06
1.19388e-06
-3.91071e-06
1.11211e-06
-4.30653e-06
1.01716e-06
-4.66253e-06
9.16685e-07
-4.97872e-06
8.16147e-07
-5.25646e-06
7.1905e-07
-5.49779e-06
6.27269e-07
-5.70495e-06
5.41355e-07
-5.88002e-06
4.60801e-07
-6.02453e-06
3.84267e-07
-6.13932e-06
3.09768e-07
-6.2243e-06
2.34826e-07
-6.27832e-06
1.56619e-07
-6.29917e-06
7.21269e-08
-6.28352e-06
-2.16957e-08
-6.22704e-06
-1.27699e-07
-6.12452e-06
-2.48263e-07
-5.97023e-06
-3.84936e-07
-5.75834e-06
-5.38002e-07
-5.48351e-06
-7.05969e-07
-5.14173e-06
-8.85007e-07
-4.73134e-06
-1.06841e-06
-4.25411e-06
-1.24616e-06
-3.71656e-06
-1.40475e-06
-3.13108e-06
-1.52742e-06
-2.5168e-06
-1.59508e-06
-1.89986e-06
-1.5881e-06
-1.31279e-06
-1.48915e-06
-7.92518e-07
-1.2874e-06
-3.77254e-07
-9.83578e-07
-1.0264e-07
-5.96643e-07
-1.77533e-07
-1.11281e-07
2.48853e-07
-3.95741e-07
7.50211e-07
-8.10562e-07
1.1815e-06
-1.31628e-06
1.50818e-06
-1.87707e-06
1.72342e-06
-2.46204e-06
1.83528e-06
-3.04615e-06
1.85992e-06
-3.6104e-06
1.81675e-06
-4.1415e-06
1.72498e-06
-4.63106e-06
1.60167e-06
-5.0747e-06
1.4608e-06
-5.47106e-06
1.31304e-06
-5.82088e-06
1.16596e-06
-6.12621e-06
1.02439e-06
-6.38979e-06
8.90846e-07
-6.61447e-06
7.66031e-07
-6.80282e-06
6.49156e-07
-6.95684e-06
5.38287e-07
-7.07767e-06
4.30602e-07
-7.16547e-06
3.22617e-07
-7.21923e-06
2.1038e-07
-7.23678e-06
8.96811e-08
-7.21475e-06
-4.37213e-08
-7.14865e-06
-1.93808e-07
-7.03298e-06
-3.63933e-07
-6.86156e-06
-5.56351e-07
-6.62793e-06
-7.71637e-07
-6.32589e-06
-1.008e-06
-5.95039e-06
-1.26051e-06
-5.49844e-06
-1.52035e-06
-4.97047e-06
-1.77413e-06
-4.37165e-06
-2.00356e-06
-3.71343e-06
-2.18564e-06
-3.01478e-06
-2.29373e-06
-2.30311e-06
-2.29977e-06
-1.61416e-06
-2.1781e-06
-9.90895e-07
-1.91066e-06
-4.81037e-07
-1.49344e-06
-1.34056e-07
-9.43624e-07
-3.11589e-07
-1.36171e-07
3.85024e-07
-4.78139e-07
1.09218e-06
-9.67378e-07
1.67074e-06
-1.55242e-06
2.09323e-06
-2.1894e-06
2.3604e-06
-2.84272e-06
2.4886e-06
-3.48514e-06
2.50233e-06
-4.09714e-06
2.42875e-06
-4.66595e-06
2.29379e-06
-5.18429e-06
2.12e-06
-5.64907e-06
1.92558e-06
-6.06025e-06
1.72422e-06
-6.41979e-06
1.52551e-06
-6.73083e-06
1.33543e-06
-6.997e-06
1.15701e-06
-7.2219e-06
9.90932e-07
-7.40873e-06
8.35985e-07
-7.55998e-06
6.89538e-07
-7.67724e-06
5.47855e-07
-7.761e-06
4.06383e-07
-7.81062e-06
2.59999e-07
-7.8242e-06
1.03258e-07
-7.79858e-06
-6.93361e-08
-7.72941e-06
-2.62982e-07
-7.61119e-06
-4.82148e-07
-7.43754e-06
-7.30009e-07
-7.20143e-06
-1.00774e-06
-6.89578e-06
-1.31366e-06
-6.51406e-06
-1.64223e-06
-6.05137e-06
-1.98305e-06
-5.50565e-06
-2.31986e-06
-4.87931e-06
-2.6299e-06
-4.18113e-06
-2.88382e-06
-3.42815e-06
-3.04671e-06
-2.64743e-06
-3.0805e-06
-1.87705e-06
-2.94847e-06
-1.16602e-06
-2.62169e-06
-5.72557e-07
-2.0869e-06
-1.61168e-07
-1.35501e-06
-4.72757e-07
-1.5851e-07
5.43534e-07
-5.52344e-07
1.48601e-06
-1.10735e-06
2.22574e-06
-1.7594e-06
2.74528e-06
-2.45615e-06
3.05715e-06
-3.15743e-06
3.18988e-06
-3.83444e-06
3.17935e-06
-4.46817e-06
3.06247e-06
-5.04745e-06
2.87308e-06
-5.56714e-06
2.63969e-06
-6.02633e-06
2.38478e-06
-6.42701e-06
2.1249e-06
-6.77284e-06
1.87134e-06
-7.06836e-06
1.63094e-06
-7.31828e-06
1.40693e-06
-7.52705e-06
1.19971e-06
-7.69856e-06
1.00749e-06
-7.83583e-06
8.26814e-07
-7.94094e-06
6.52968e-07
-8.01487e-06
4.80307e-07
-8.0574e-06
3.02534e-07
-8.06712e-06
1.12974e-07
-8.04132e-06
-9.51334e-08
-7.97604e-06
-3.28265e-07
-7.86604e-06
-5.92143e-07
-7.70494e-06
-8.9111e-07
-7.48535e-06
-1.22733e-06
-7.19922e-06
-1.59979e-06
-6.83837e-06
-2.00308e-06
-6.39535e-06
-2.42606e-06
-5.86473e-06
-2.85048e-06
-5.24481e-06
-3.24982e-06
-4.53996e-06
-3.58868e-06
-3.76335e-06
-3.82331e-06
-2.9399e-06
-3.90396e-06
-2.10872e-06
-3.77965e-06
-1.32449e-06
-3.40592e-06
-6.56661e-07
-2.75473e-06
-1.86157e-07
-1.82552e-06
-6.58914e-07
-1.79622e-07
7.23156e-07
-6.21401e-07
1.92779e-06
-1.23434e-06
2.83869e-06
-1.94062e-06
3.45155e-06
-2.67917e-06
3.7957e-06
-3.40586e-06
3.91657e-06
-4.09147e-06
3.86496e-06
-4.71881e-06
3.68981e-06
-5.2797e-06
3.43397e-06
-5.77226e-06
3.13224e-06
-6.19868e-06
2.8112e-06
-6.56358e-06
2.4898e-06
-6.87274e-06
2.1805e-06
-7.13229e-06
1.8905e-06
-7.34814e-06
1.62278e-06
-7.5256e-06
1.37717e-06
-7.66917e-06
1.15106e-06
-7.78242e-06
9.40058e-07
-7.86786e-06
7.38418e-07
-7.92697e-06
5.39417e-07
-7.96008e-06
3.3564e-07
-7.96635e-06
1.19244e-07
-7.94373e-06
-1.1775e-07
-7.8889e-06
-3.83103e-07
-7.79715e-06
-6.8389e-07
-7.6624e-06
-1.02586e-06
-7.47714e-06
-1.41259e-06
-7.23254e-06
-1.84439e-06
-6.91875e-06
-2.31687e-06
-6.52552e-06
-2.81929e-06
-6.0433e-06
-3.3327e-06
-5.46509e-06
-3.82802e-06
-4.78912e-06
-4.26465e-06
-4.02246e-06
-4.58998e-06
-3.18541e-06
-4.74101e-06
-2.316e-06
-4.64906e-06
-1.47339e-06
-4.24853e-06
-7.38675e-07
-3.48945e-06
-2.11264e-07
-2.35293e-06
-8.70178e-07
-2.01169e-07
9.24325e-07
-6.89312e-07
2.41594e-06
-1.35343e-06
3.50281e-06
-2.10028e-06
4.1984e-06
-2.86017e-06
4.55558e-06
-3.58627e-06
4.64268e-06
-4.25084e-06
4.52953e-06
-4.84048e-06
4.27945e-06
-5.35166e-06
3.94514e-06
-5.78706e-06
3.56764e-06
-6.15284e-06
3.17698e-06
-6.45677e-06
2.79373e-06
-6.70698e-06
2.43072e-06
-6.91127e-06
2.09478e-06
-7.07662e-06
1.78813e-06
-7.20906e-06
1.50961e-06
-7.31356e-06
1.25557e-06
-7.39405e-06
1.02054e-06
-7.4534e-06
7.97772e-07
-7.49349e-06
5.79511e-07
-7.5152e-06
3.57343e-07
-7.51835e-06
1.22396e-07
-7.5017e-06
-1.34403e-07
-7.46277e-06
-4.22024e-07
-7.39775e-06
-7.4891e-07
-7.30123e-06
-1.12239e-06
-7.166e-06
-1.54782e-06
-6.98289e-06
-2.0275e-06
-6.74072e-06
-2.55904e-06
-6.42652e-06
-3.13348e-06
-6.02639e-06
-3.73283e-06
-5.52711e-06
-4.32731e-06
-4.91904e-06
-4.87272e-06
-4.20057e-06
-5.30845e-06
-3.38411e-06
-5.55747e-06
-2.50316e-06
-5.53001e-06
-1.61892e-06
-5.13277e-06
-8.23834e-07
-4.28454e-06
-2.38747e-07
-2.93801e-06
-1.10893e-06
-2.25403e-07
1.14973e-06
-7.61247e-07
2.95178e-06
-1.47062e-06
4.21219e-06
-2.24238e-06
4.97015e-06
-2.99888e-06
5.31209e-06
-3.69313e-06
5.33693e-06
-4.30186e-06
5.13826e-06
-4.81817e-06
4.79576e-06
-5.24526e-06
4.37224e-06
-5.59176e-06
3.91414e-06
-5.86855e-06
3.45377e-06
-6.08684e-06
3.01202e-06
-6.2571e-06
2.60098e-06
-6.38853e-06
2.22621e-06
-6.48892e-06
1.88852e-06
-6.56466e-06
1.58535e-06
-6.62086e-06
1.31177e-06
-6.66152e-06
1.06121e-06
-6.68965e-06
8.25895e-07
-6.70736e-06
5.97227e-07
-6.71599e-06
3.65972e-07
-6.71605e-06
1.22454e-07
-6.70718e-06
-1.4327e-07
-6.68802e-06
-4.41186e-07
-6.65593e-06
-7.80997e-07
-6.60669e-06
-1.17163e-06
-6.53401e-06
-1.6205e-06
-6.42912e-06
-2.13239e-06
-6.28024e-06
-2.70792e-06
-6.07239e-06
-3.34134e-06
-5.78758e-06
-4.01763e-06
-5.40605e-06
-4.70884e-06
-4.90891e-06
-5.36986e-06
-4.28308e-06
-5.93428e-06
-3.52886e-06
-6.31168e-06
-2.67015e-06
-6.38872e-06
-1.76559e-06
-6.03733e-06
-9.17316e-07
-5.13281e-06
-2.71125e-07
-3.58421e-06
-1.38005e-06
-2.55646e-07
1.40537e-06
-8.4404e-07
3.54017e-06
-1.5925e-06
4.96065e-06
-2.36903e-06
5.74669e-06
-3.09033e-06
6.03338e-06
-3.71363e-06
5.96023e-06
-4.22471e-06
5.64934e-06
-4.6268e-06
5.19785e-06
-4.93221e-06
4.67765e-06
-5.15677e-06
4.1387e-06
-5.31652e-06
3.61351e-06
-5.426e-06
3.12149e-06
-5.49756e-06
2.67255e-06
-5.54128e-06
2.26993e-06
-5.56513e-06
1.91236e-06
-5.57529e-06
1.59551e-06
-5.57652e-06
1.313e-06
-5.57245e-06
1.05714e-06
-5.56588e-06
8.19321e-07
-5.55893e-06
5.90279e-07
-5.55322e-06
3.60257e-07
-5.54986e-06
1.19099e-07
-5.54946e-06
-1.43672e-07
-5.55191e-06
-4.38737e-07
-5.55612e-06
-7.76787e-07
-5.55957e-06
-1.16818e-06
-5.55769e-06
-1.62238e-06
-5.54308e-06
-2.147e-06
-5.50462e-06
-2.74638e-06
-5.42659e-06
-3.41937e-06
-5.28813e-06
-4.1561e-06
-5.06347e-06
-4.9335e-06
-4.72386e-06
-5.70946e-06
-4.24226e-06
-6.41589e-06
-3.60197e-06
-6.95197e-06
-2.81017e-06
-7.18052e-06
-1.91531e-06
-6.93218e-06
-1.02453e-06
-6.02359e-06
-3.11691e-07
-4.29705e-06
-1.69174e-06
-2.97115e-07
1.70249e-06
-9.46729e-07
4.18979e-06
-1.72509e-06
5.73901e-06
-2.47729e-06
6.49889e-06
-3.11986e-06
6.67595e-06
-3.6219e-06
6.46227e-06
-3.98471e-06
6.01216e-06
-4.22604e-06
5.43918e-06
-4.36965e-06
4.82125e-06
-4.4393e-06
4.20836e-06
-4.45596e-06
3.63017e-06
-4.43671e-06
3.10224e-06
-4.39482e-06
2.63065e-06
-4.3402e-06
2.21532e-06
-4.28009e-06
1.85225e-06
-4.21966e-06
1.53508e-06
-4.16265e-06
1.25598e-06
-4.11179e-06
1.00629e-06
-4.06924e-06
7.7677e-07
-4.0368e-06
5.57845e-07
-4.01615e-06
3.39604e-07
-4.00887e-06
1.11823e-07
-4.01648e-06
-1.36065e-07
-4.04024e-06
-4.14977e-07
-4.08089e-06
-7.36139e-07
-4.13813e-06
-1.11094e-06
-4.20993e-06
-1.55058e-06
-4.29147e-06
-2.06545e-06
-4.37391e-06
-2.66394e-06
-4.4428e-06
-3.35048e-06
-4.47656e-06
-4.12233e-06
-4.44538e-06
-4.96468e-06
-4.31154e-06
-5.84331e-06
-4.03267e-06
-6.69475e-06
-3.57026e-06
-7.41437e-06
-2.90577e-06
-7.84502e-06
-2.06548e-06
-7.77247e-06
-1.15131e-06
-6.93776e-06
-3.65336e-07
-5.08302e-06
-2.05708e-06
-3.58277e-07
2.06077e-06
-1.0807e-06
4.91221e-06
-1.87054e-06
6.52885e-06
-2.55228e-06
7.18062e-06
-3.0543e-06
7.17797e-06
-3.36964e-06
6.77761e-06
-3.52368e-06
6.16619e-06
-3.55317e-06
5.46867e-06
-3.49471e-06
4.76279e-06
-3.37957e-06
4.09321e-06
-3.23216e-06
3.48276e-06
-3.07039e-06
2.94047e-06
-2.90672e-06
2.46698e-06
-2.74942e-06
2.05801e-06
-2.60373e-06
1.70656e-06
-2.47287e-06
1.40421e-06
-2.35876e-06
1.14187e-06
-2.26267e-06
9.10202e-07
-2.18566e-06
6.99758e-07
-2.12886e-06
5.01048e-07
-2.09373e-06
3.04471e-07
-2.08213e-06
1.00224e-07
-2.09637e-06
-1.21826e-07
-2.13908e-06
-3.72268e-07
-2.21296e-06
-6.62254e-07
-2.32035e-06
-1.00355e-06
-2.46246e-06
-1.40848e-06
-2.63829e-06
-1.88962e-06
-2.84311e-06
-2.45913e-06
-3.06631e-06
-3.12728e-06
-3.28888e-06
-3.89976e-06
-3.48064e-06
-4.77292e-06
-3.59808e-06
-5.72586e-06
-3.58477e-06
-6.70807e-06
-3.37724e-06
-7.6219e-06
-2.92143e-06
-8.30084e-06
-2.20439e-06
-8.4895e-06
-1.30317e-06
-7.83899e-06
-4.39808e-07
-5.94638e-06
-2.49689e-06
-4.5284e-07
2.51361e-06
-1.25777e-06
5.71714e-06
-2.01832e-06
7.2894e-06
-2.5532e-06
7.7155e-06
-2.82603e-06
7.4508e-06
-2.87131e-06
6.8229e-06
-2.7478e-06
6.04268e-06
-2.51408e-06
5.23495e-06
-2.21858e-06
4.46729e-06
-1.89725e-06
3.77189e-06
-1.5748e-06
3.16031e-06
-1.26695e-06
2.63263e-06
-9.82916e-07
2.18295e-06
-7.27404e-07
1.8025e-06
-5.02263e-07
1.48142e-06
-3.07683e-07
1.20963e-06
-1.43076e-07
9.77266e-07
-7.70429e-09
7.74831e-07
9.88731e-08
5.93181e-07
1.76493e-07
4.23428e-07
2.2418e-07
2.56785e-07
2.40018e-07
8.43867e-08
2.21103e-07
-1.02911e-07
1.63585e-07
-3.14751e-07
6.28333e-08
-5.61502e-07
-8.62298e-08
-8.54486e-07
-2.88525e-07
-1.20618e-06
-5.47826e-07
-1.63032e-06
-8.65209e-07
-2.14175e-06
-1.23671e-06
-2.75578e-06
-1.65e-06
-3.48647e-06
-2.07998e-06
-4.34294e-06
-2.48375e-06
-5.32209e-06
-2.79631e-06
-6.39551e-06
-2.93075e-06
-7.48745e-06
-2.78996e-06
-8.44163e-06
-2.30071e-06
-8.97875e-06
-1.4817e-06
-8.658e-06
-5.47225e-07
-6.88085e-06
-3.04411e-06
-6.01269e-07
3.11488e-06
-1.48105e-06
6.59692e-06
-2.12323e-06
7.93158e-06
-2.38519e-06
7.97746e-06
-2.30579e-06
7.3714e-06
-1.98202e-06
6.49913e-06
-1.51196e-06
5.57262e-06
-9.73636e-07
4.69663e-06
-4.21482e-07
3.91514e-06
1.10091e-07
3.24032e-06
6.01519e-07
2.66888e-06
1.04337e-06
2.19077e-06
1.4327e-06
1.79362e-06
1.77038e-06
1.46483e-06
2.05927e-06
1.19253e-06
2.30304e-06
9.65865e-07
2.5053e-06
7.75005e-07
2.66911e-06
6.11018e-07
2.79662e-06
4.65675e-07
2.88881e-06
3.31237e-07
2.94536e-06
2.00231e-07
2.96453e-06
6.52194e-08
2.94306e-06
-8.14455e-08
2.87619e-06
-2.47881e-07
2.75766e-06
-4.42969e-07
2.57987e-06
-6.767e-07
2.33426e-06
-9.60562e-07
2.01191e-06
-1.30797e-06
1.60485e-06
-1.73468e-06
1.10808e-06
-2.25901e-06
5.23054e-07
-2.90145e-06
-1.3697e-07
-3.68292e-06
-8.39248e-07
-4.61982e-06
-1.52183e-06
-5.71293e-06
-2.08448e-06
-6.9248e-06
-2.38818e-06
-8.13793e-06
-2.28021e-06
-9.08672e-06
-1.67172e-06
-9.26649e-06
-7.03852e-07
-7.84872e-06
-3.74796e-06
-8.24708e-07
3.93958e-06
-1.71187e-06
7.48409e-06
-2.05327e-06
8.27298e-06
-1.84576e-06
7.76995e-06
-1.25952e-06
6.78516e-06
-4.68405e-07
5.70801e-06
3.96514e-07
4.7077e-06
1.251e-06
3.84214e-06
2.04762e-06
3.11852e-06
2.76376e-06
2.52418e-06
3.39217e-06
2.04046e-06
3.93439e-06
1.64855e-06
4.39648e-06
1.33153e-06
4.78642e-06
1.07489e-06
5.11252e-06
8.66422e-07
5.38256e-06
6.95827e-07
5.6032e-06
5.54369e-07
5.77972e-06
4.34497e-07
5.91586e-06
3.2953e-07
6.01372e-06
2.33376e-07
6.07367e-06
1.40289e-07
6.09426e-06
4.46239e-08
6.07221e-06
-5.93898e-08
6.00223e-06
-1.77908e-07
5.87703e-06
-3.17764e-07
5.68716e-06
-4.86836e-07
5.42111e-06
-6.94511e-07
5.06544e-06
-9.52294e-07
4.60534e-06
-1.27459e-06
4.02597e-06
-1.67963e-06
3.31497e-06
-2.19045e-06
2.46744e-06
-2.83538e-06
1.49451e-06
-3.64689e-06
4.37355e-07
-4.65577e-06
-6.13175e-07
-5.87427e-06
-1.496e-06
-7.25511e-06
-1.97661e-06
-8.60611e-06
-1.80292e-06
-9.44018e-06
-9.19123e-07
-8.73252e-06
-4.66709e-06
-1.10869e-06
5.04827e-06
-1.77218e-06
8.14758e-06
-1.47472e-06
7.97552e-06
-5.3121e-07
6.82644e-06
7.11306e-07
5.54265e-06
2.02063e-06
4.39869e-06
3.26593e-06
3.4624e-06
4.38586e-06
2.72221e-06
5.36032e-06
2.14407e-06
6.19098e-06
1.69351e-06
6.88975e-06
1.34169e-06
7.47236e-06
1.06594e-06
7.95504e-06
8.48855e-07
8.35287e-06
6.77057e-07
8.67911e-06
5.40188e-07
8.94485e-06
4.30081e-07
9.15907e-06
3.40156e-07
9.32859e-06
2.64971e-07
9.45824e-06
1.99878e-07
9.55086e-06
1.40758e-07
9.60735e-06
8.38067e-08
9.62663e-06
2.53377e-08
9.60564e-06
-3.83984e-08
9.53914e-06
-1.11411e-07
9.41958e-06
-1.98203e-07
9.23681e-06
-3.04068e-07
8.97781e-06
-4.35503e-07
8.6263e-06
-6.00787e-07
8.16254e-06
-8.10827e-07
7.56329e-06
-1.08038e-06
6.80264e-06
-1.4298e-06
5.8546e-06
-1.88735e-06
4.69947e-06
-2.49176e-06
3.3375e-06
-3.29379e-06
1.81482e-06
-4.3516e-06
2.65517e-07
-5.7058e-06
-1.03683e-06
-7.30376e-06
-1.65351e-06
-8.8235e-06
-1.15011e-06
-9.23592e-06
-5.81719e-06
-1.2783e-06
6.32657e-06
-1.09193e-06
7.96121e-06
3.78504e-07
6.50508e-06
2.3065e-06
4.89844e-06
4.23206e-06
3.61709e-06
5.96342e-06
2.66732e-06
7.44211e-06
1.98371e-06
8.67124e-06
1.49308e-06
9.67837e-06
1.13694e-06
1.04974e-05
8.74486e-07
1.11609e-05
6.78202e-07
1.16973e-05
5.2949e-07
1.21306e-05
4.1556e-07
1.24803e-05
3.27407e-07
1.2762e-05
2.58514e-07
1.2988e-05
2.04015e-07
1.3168e-05
1.60161e-07
1.3309e-05
1.23961e-07
1.3416e-05
9.29362e-08
1.34918e-05
6.49421e-08
1.35376e-05
3.80323e-08
1.35526e-05
1.03437e-08
1.35342e-05
-2.00091e-08
1.34778e-05
-5.50461e-08
1.33767e-05
-9.70547e-08
1.32213e-05
-1.48766e-07
1.29994e-05
-2.13606e-07
1.26947e-05
-2.96078e-07
1.22863e-05
-4.02358e-07
1.17471e-05
-5.41259e-07
1.10432e-05
-7.25816e-07
1.01317e-05
-9.7591e-07
8.96254e-06
-1.32257e-06
7.48343e-06
-1.81468e-06
5.65931e-06
-2.52748e-06
3.51868e-06
-3.56517e-06
1.24932e-06
-5.0344e-06
-6.33993e-07
-6.94019e-06
-1.17264e-06
-8.69727e-06
-6.98983e-06
-4.29265e-07
6.75584e-06
2.01576e-06
5.51619e-06
5.13246e-06
3.38838e-06
7.90696e-06
2.12395e-06
1.01464e-05
1.37761e-06
1.18938e-05
9.19918e-07
1.3243e-05
6.3457e-07
1.42842e-05
4.5184e-07
1.50909e-05
3.30297e-07
1.5719e-05
2.46357e-07
1.62107e-05
1.86536e-07
1.65973e-05
1.42841e-07
1.69026e-05
1.10315e-07
1.71442e-05
8.57362e-08
1.73358e-05
6.69139e-08
1.74876e-05
5.22894e-08
1.7607e-05
4.07055e-08
1.76997e-05
3.12663e-08
1.77694e-05
2.32469e-08
1.78183e-05
1.60316e-08
1.78473e-05
9.0691e-09
1.78558e-05
1.83596e-09
1.7842e-05
-6.19588e-09
1.78025e-05
-1.55932e-08
1.77325e-05
-2.70019e-08
1.76249e-05
-4.12019e-08
1.74705e-05
-5.91876e-08
1.72567e-05
-8.22957e-08
1.69668e-05
-1.12417e-07
1.65779e-05
-1.5237e-07
1.60586e-05
-2.06581e-07
1.53651e-05
-2.82392e-07
1.44352e-05
-3.92679e-07
1.31817e-05
-5.61133e-07
1.14867e-05
-8.32492e-07
9.21193e-06
-1.29042e-06
6.26439e-06
-2.08686e-06
2.81643e-06
-3.49224e-06
-7.20195e-08
-5.80882e-06
-7.06185e-06
6.75584e-06
1.2272e-05
1.56604e-05
1.77843e-05
1.9162e-05
2.00819e-05
2.07164e-05
2.11683e-05
2.14986e-05
2.17449e-05
2.19315e-05
2.20743e-05
2.21846e-05
2.22704e-05
2.23373e-05
2.23896e-05
2.24303e-05
2.24615e-05
2.24848e-05
2.25008e-05
2.25099e-05
2.25117e-05
2.25055e-05
2.24899e-05
2.24629e-05
2.24217e-05
2.23625e-05
2.22802e-05
2.21678e-05
2.20155e-05
2.18089e-05
2.15265e-05
2.11338e-05
2.05727e-05
1.97402e-05
1.84498e-05
1.63629e-05
1.28707e-05
7.06185e-06
)
;

boundaryField
{
    movingWall
    {
        type            calculated;
        value           uniform 0;
    }
    fixedWalls
    {
        type            calculated;
        value           uniform 0;
    }
    frontAndBack
    {
        type            empty;
        value           nonuniform 0();
    }
}


// ************************************************************************* //
