1.45 	0 	0 	-0.307995
2.35 	0 	0 	-0.126506
