/*--------------------------------*- C++ -*----------------------------------*\
  =========                 |
  \\      /  F ield         | OpenFOAM: The Open Source CFD Toolbox
   \\    /   O peration     | Website:  https://openfoam.org
    \\  /    A nd           | Version:  6.0
     \\/     M anipulation  |
\*---------------------------------------------------------------------------*/
FoamFile
{
    version     2.0;
    format      ascii;
    class       volScalarField;
    location    "19";
    object      p;
}
// * * * * * * * * * * * * * * * * * * * * * * * * * * * * * * * * * * * * * //

dimensions      [0 2 -2 0 0 0 0];

internalField   nonuniform List<scalar> 
2000
(
-0.350339
-0.356239
-0.357942
-0.357274
-0.355413
-0.352736
-0.349523
-0.346059
-0.342618
-0.338922
-0.353055
-0.358539
-0.359901
-0.358931
-0.356782
-0.35383
-0.350353
-0.34663
-0.342937
-0.339116
-0.358508
-0.363139
-0.363808
-0.362228
-0.359498
-0.35599
-0.351977
-0.347717
-0.343502
-0.339426
-0.366739
-0.370039
-0.369644
-0.367137
-0.363525
-0.35917
-0.354331
-0.349229
-0.344175
-0.339692
-0.377809
-0.379238
-0.377377
-0.373618
-0.368821
-0.363322
-0.357347
-0.351048
-0.344758
-0.339655
-0.391785
-0.390723
-0.38697
-0.381631
-0.375355
-0.368422
-0.360995
-0.353093
-0.34504
-0.338985
-0.4087
-0.404452
-0.398363
-0.391136
-0.383121
-0.374513
-0.365368
-0.355481
-0.345024
-0.337423
-0.428502
-0.420327
-0.411464
-0.402073
-0.392107
-0.381639
-0.370581
-0.358346
-0.344472
-0.333793
-0.450977
-0.438174
-0.426157
-0.414398
-0.40235
-0.38989
-0.376621
-0.361078
-0.341086
-0.323316
-0.475692
-0.457728
-0.442344
-0.428263
-0.414475
-0.400762
-0.386375
-0.368735
-0.343738
-0.319103
-0.501958
-0.478563
-0.459755
-0.443578
-0.428851
-0.415935
-0.405186
-0.397243
-0.397243
-0.416381
-0.52895
-0.500098
-0.47777
-0.45923
-0.442899
-0.429222
-0.418693
-0.41235
-0.415206
-0.432517
-0.555941
-0.521873
-0.496114
-0.475101
-0.456744
-0.441389
-0.42942
-0.421535
-0.420758
-0.428676
-0.582284
-0.543417
-0.514478
-0.49102
-0.47039
-0.452753
-0.438282
-0.427215
-0.420975
-0.419725
-0.607229
-0.564062
-0.532236
-0.506343
-0.483136
-0.462575
-0.444631
-0.429173
-0.416595
-0.407023
-0.629787
-0.582874
-0.548445
-0.520063
-0.493925
-0.469853
-0.447733
-0.427257
-0.408256
-0.391485
-0.648672
-0.598641
-0.561872
-0.530896
-0.501468
-0.473413
-0.446703
-0.421044
-0.396039
-0.373364
-0.662324
-0.609906
-0.571053
-0.537357
-0.504334
-0.471998
-0.440575
-0.409932
-0.37966
-0.352422
-0.668975
-0.615028
-0.574366
-0.537851
-0.501045
-0.464351
-0.428384
-0.393255
-0.358653
-0.32816
-0.666758
-0.612266
-0.570113
-0.530762
-0.490168
-0.449298
-0.409243
-0.370374
-0.332504
-0.299985
-0.653814
-0.599874
-0.55662
-0.514562
-0.470409
-0.425833
-0.38242
-0.340762
-0.300762
-0.267357
-0.628404
-0.576208
-0.532351
-0.487909
-0.440707
-0.393195
-0.347409
-0.304079
-0.263135
-0.229901
-0.589056
-0.539859
-0.496024
-0.449763
-0.400324
-0.350933
-0.303981
-0.260231
-0.219557
-0.187479
-0.53467
-0.489766
-0.446727
-0.399472
-0.348903
-0.298948
-0.252217
-0.209397
-0.17023
-0.140234
-0.464644
-0.42533
-0.384012
-0.33684
-0.286502
-0.237493
-0.192493
-0.152028
-0.115631
-0.0886009
-0.378978
-0.346517
-0.307973
-0.262158
-0.213582
-0.16713
-0.125414
-0.0887462
-0.0564018
-0.0332134
-0.278365
-0.253936
-0.219294
-0.176228
-0.131002
-0.0887027
-0.0517541
-0.0202561
0.00673148
0.0250925
-0.164247
-0.148877
-0.119261
-0.0803402
-0.0399997
-0.00335246
0.0274289
0.0523284
0.0722455
0.0842766
-0.0388418
-0.0333174
-0.00972946
0.02383
0.0580412
0.0878702
0.111288
0.127837
0.137697
0.140625
0.0948905
0.0900936
0.106884
0.134248
0.161794
0.184787
0.201263
0.209616
0.208586
0.202152
0.233367
0.218085
0.227469
0.248014
0.268792
0.28591
0.298144
0.303771
0.302655
0.315168
0.372687
0.347004
0.348409
0.361263
0.374314
0.3843
0.390404
0.391797
0.390608
0.402435
0.508906
0.473176
0.466289
0.470873
0.475555
0.477648
0.476634
0.472129
0.466311
0.470565
0.638176
0.592991
0.577819
0.573944
0.570072
0.564095
0.5558
0.545054
0.533684
0.530179
0.756841
0.70301
0.679906
0.667817
0.655675
0.641935
0.626653
0.60988
0.593123
0.582681
0.861518
0.800067
0.769732
0.750102
0.730415
0.709641
0.688073
0.665904
0.644336
0.627845
0.949195
0.881355
0.844812
0.818687
0.792542
0.765792
0.738922
0.712237
0.686644
0.665098
1.01732
0.944509
0.903054
0.871786
0.840557
0.809128
0.778131
0.747957
0.719252
0.69377
1.06389
0.987676
0.942823
0.907996
0.873263
0.838624
0.804809
0.772263
0.741438
0.713259
1.08753
1.00958
0.962995
0.926349
0.88983
0.853558
0.818315
0.78457
0.752671
0.723119
1.08753
1.00958
0.962995
0.926349
0.88983
0.853558
0.818315
0.784569
0.752671
0.723119
1.06389
0.987675
0.942823
0.907996
0.873263
0.838623
0.804809
0.772263
0.741438
0.713258
1.01732
0.944508
0.903054
0.871786
0.840556
0.809127
0.778131
0.747957
0.719251
0.69377
0.949195
0.881355
0.844811
0.818687
0.792542
0.765792
0.738921
0.712236
0.686644
0.665097
0.861518
0.800067
0.769731
0.750102
0.730414
0.70964
0.688072
0.665903
0.644335
0.627844
0.75684
0.70301
0.679905
0.667817
0.655674
0.641934
0.626652
0.609879
0.593122
0.58268
0.638175
0.59299
0.577818
0.573943
0.570071
0.564094
0.555799
0.545053
0.533683
0.530178
0.508904
0.473175
0.466288
0.470872
0.475554
0.477647
0.476633
0.472127
0.46631
0.470564
0.372686
0.347003
0.348407
0.361262
0.374313
0.384298
0.390403
0.391795
0.390607
0.402434
0.233366
0.218083
0.227468
0.248013
0.26879
0.285908
0.298142
0.30377
0.302654
0.315166
0.0948889
0.0900921
0.106882
0.134247
0.161792
0.184786
0.201262
0.209615
0.208584
0.20215
-0.0388434
-0.0333191
-0.00973111
0.0238283
0.0580395
0.0878685
0.111286
0.127835
0.137695
0.140623
-0.164249
-0.148879
-0.119263
-0.0803419
-0.0400014
-0.0033542
0.0274271
0.0523267
0.0722437
0.0842749
-0.278367
-0.253938
-0.219295
-0.17623
-0.131004
-0.0887046
-0.0517559
-0.0202579
0.00672966
0.0250907
-0.37898
-0.346519
-0.307975
-0.26216
-0.213584
-0.167132
-0.125416
-0.0887481
-0.0564037
-0.0332153
-0.464646
-0.425332
-0.384014
-0.336842
-0.286504
-0.237495
-0.192495
-0.15203
-0.115633
-0.0886028
-0.534672
-0.489768
-0.446729
-0.399474
-0.348905
-0.29895
-0.252219
-0.209399
-0.170232
-0.140236
-0.589058
-0.539861
-0.496026
-0.449765
-0.400326
-0.350935
-0.303983
-0.260233
-0.219559
-0.187481
-0.628407
-0.57621
-0.532353
-0.487911
-0.440709
-0.393197
-0.347411
-0.304081
-0.263137
-0.229903
-0.653816
-0.599876
-0.556623
-0.514564
-0.470411
-0.425835
-0.382422
-0.340764
-0.300764
-0.267359
-0.66676
-0.612268
-0.570115
-0.530765
-0.49017
-0.4493
-0.409245
-0.370376
-0.332506
-0.299987
-0.668977
-0.61503
-0.574368
-0.537853
-0.501047
-0.464353
-0.428386
-0.393257
-0.358655
-0.328162
-0.662326
-0.609908
-0.571055
-0.537359
-0.504336
-0.472
-0.440577
-0.409934
-0.379661
-0.352424
-0.648675
-0.598643
-0.561874
-0.530898
-0.50147
-0.473415
-0.446705
-0.421046
-0.396041
-0.373366
-0.629789
-0.582876
-0.548446
-0.520065
-0.493927
-0.469855
-0.447735
-0.427259
-0.408258
-0.391487
-0.607231
-0.564064
-0.532238
-0.506344
-0.483138
-0.462577
-0.444633
-0.429174
-0.416597
-0.407025
-0.582286
-0.543419
-0.514479
-0.491021
-0.470392
-0.452755
-0.438284
-0.427217
-0.420977
-0.419726
-0.555943
-0.521875
-0.496116
-0.475103
-0.456745
-0.441391
-0.429422
-0.421536
-0.420759
-0.428677
-0.528951
-0.5001
-0.477771
-0.459232
-0.4429
-0.429223
-0.418695
-0.412352
-0.415207
-0.432518
-0.50196
-0.478565
-0.459757
-0.443579
-0.428853
-0.415936
-0.405187
-0.397244
-0.397245
-0.416382
-0.475693
-0.45773
-0.442346
-0.428264
-0.414476
-0.400763
-0.386377
-0.368737
-0.34374
-0.319105
-0.450978
-0.438175
-0.426159
-0.4144
-0.402351
-0.389891
-0.376622
-0.361079
-0.341088
-0.323317
-0.428503
-0.420328
-0.411465
-0.402074
-0.392108
-0.38164
-0.370583
-0.358347
-0.344473
-0.333794
-0.408701
-0.404453
-0.398364
-0.391137
-0.383122
-0.374514
-0.365369
-0.355482
-0.345025
-0.337424
-0.391786
-0.390724
-0.386971
-0.381632
-0.375356
-0.368423
-0.360996
-0.353094
-0.345041
-0.338985
-0.37781
-0.379239
-0.377378
-0.373618
-0.368822
-0.363323
-0.357348
-0.351049
-0.344758
-0.339656
-0.36674
-0.37004
-0.369644
-0.367137
-0.363526
-0.359171
-0.354331
-0.349229
-0.344176
-0.339693
-0.358508
-0.363139
-0.363809
-0.362229
-0.359499
-0.355991
-0.351977
-0.347718
-0.343502
-0.339427
-0.353055
-0.358539
-0.359902
-0.358931
-0.356782
-0.353831
-0.350354
-0.34663
-0.342937
-0.339117
-0.350339
-0.356239
-0.357943
-0.357274
-0.355413
-0.352737
-0.349523
-0.346059
-0.342618
-0.338922
-0.292927
-0.128131
-0.0829978
-0.0317494
-0.0207221
-0.00878995
-0.00549715
-0.00135128
-0.00118798
0.00235653
-0.29416
-0.128682
-0.0832722
-0.0319508
-0.0207941
-0.00885262
-0.00553036
-0.00137495
-0.00120047
0.00233537
-0.296557
-0.129771
-0.0838153
-0.0323546
-0.0209377
-0.00897774
-0.00559652
-0.00142218
-0.00122511
0.00229328
-0.299974
-0.131371
-0.0846151
-0.0329626
-0.0211521
-0.00916469
-0.00569519
-0.00149278
-0.00126144
0.00223085
-0.304168
-0.13344
-0.0856458
-0.033773
-0.0214346
-0.00941193
-0.00582537
-0.00158641
-0.00130867
0.00214878
-0.308796
-0.135906
-0.0868599
-0.0347728
-0.0217789
-0.00971567
-0.00598524
-0.00170229
-0.0013658
0.00204805
-0.313715
-0.138831
-0.0882588
-0.0359561
-0.0221841
-0.0100723
-0.00617348
-0.00183886
-0.00143238
0.00193079
-0.31932
-0.142806
-0.0900766
-0.037412
-0.0226888
-0.0104929
-0.00639562
-0.00199567
-0.00150975
0.0018005
-0.323846
-0.148191
-0.0924791
-0.0392938
-0.0233435
-0.0110055
-0.0066617
-0.00217991
-0.00159599
0.00165437
-0.316798
-0.150871
-0.0937363
-0.0410425
-0.0238863
-0.0115314
-0.00692764
-0.00240045
-0.00166686
0.00146564
-0.249015
-0.142496
-0.0901184
-0.0444074
-0.0243852
-0.0129765
-0.00765229
-0.00327752
-0.00181435
0.000604303
-0.191063
-0.133919
-0.0841281
-0.0458338
-0.0260593
-0.0154056
-0.00948017
-0.00483529
-0.00254591
-0.000375019
-0.150129
-0.116224
-0.0745587
-0.044269
-0.0273578
-0.0175752
-0.0113226
-0.00643053
-0.00339564
-0.00105376
-0.110559
-0.0952462
-0.0649872
-0.0421894
-0.028283
-0.0193094
-0.0128717
-0.00783759
-0.00417823
-0.00146179
-0.0812159
-0.0778486
-0.0581192
-0.0408901
-0.0290205
-0.0205969
-0.0140745
-0.00895577
-0.00483748
-0.00170019
-0.0609794
-0.0648945
-0.0531411
-0.0398812
-0.029372
-0.0213971
-0.014925
-0.00977742
-0.00536001
-0.00185742
-0.0478399
-0.055552
-0.0492777
-0.0389137
-0.0294189
-0.0218449
-0.0155031
-0.0103593
-0.00575727
-0.00197663
-0.0395125
-0.0490333
-0.0463162
-0.0380664
-0.0293474
-0.0220929
-0.0158869
-0.0107562
-0.00604267
-0.00206783
-0.034639
-0.0448939
-0.0443106
-0.0374698
-0.0292762
-0.0222267
-0.0161203
-0.0110012
-0.00622666
-0.00212853
-0.0323776
-0.0428689
-0.0433004
-0.037177
-0.0292464
-0.022285
-0.0162304
-0.0111144
-0.00631875
-0.00215577
-0.221022
-0.249068
-0.275055
-0.299263
-0.322067
-0.343957
-0.365534
-0.387424
-0.4101
-0.434081
-0.0689799
-0.0790661
-0.0881505
-0.0964762
-0.104353
-0.112169
-0.120393
-0.129578
-0.140327
-0.154389
-0.046999
-0.0561649
-0.064943
-0.073306
-0.0812152
-0.0886232
-0.0954833
-0.101765
-0.10746
-0.112673
-0.0201999
-0.0259007
-0.0313944
-0.0366998
-0.0418385
-0.0468339
-0.0517092
-0.0564863
-0.0611616
-0.0655999
-0.014732
-0.0190837
-0.0233097
-0.0274065
-0.0313702
-0.0351966
-0.0388822
-0.0424237
-0.0457983
-0.0489619
-0.00963657
-0.0128511
-0.0160067
-0.0191024
-0.0221378
-0.0251122
-0.0280253
-0.0308758
-0.0336493
-0.0363394
-0.0085771
-0.0111151
-0.013617
-0.0160786
-0.0184964
-0.0208674
-0.0231891
-0.025459
-0.0276695
-0.0298274
-0.00777759
-0.00983675
-0.0118797
-0.0139024
-0.015901
-0.0178723
-0.0198131
-0.0217206
-0.0235902
-0.0254251
-0.0077054
-0.00948177
-0.0112504
-0.0130068
-0.0147468
-0.0164663
-0.018162
-0.0198307
-0.0214694
-0.023077
-0.00764964
-0.00927708
-0.010902
-0.0125208
-0.0141297
-0.0157255
-0.0173051
-0.0188656
-0.020405
-0.0219196
0.16495
0.123923
0.0790026
0.0360906
-0.00561565
-0.0464454
-0.0857829
-0.123079
-0.158086
-0.190728
0.116058
0.0902009
0.0636954
0.0409409
0.0207963
0.00209979
-0.0152137
-0.0309448
-0.0450705
-0.0577008
0.0714792
0.0557754
0.0409157
0.0280263
0.0161563
0.00467435
-0.00648047
-0.0172257
-0.0275427
-0.0374593
0.0514417
0.0424118
0.0338563
0.0261804
0.0189289
0.0118507
0.00495195
-0.00171095
-0.00811813
-0.0142768
0.0358795
0.0299418
0.0242311
0.0189487
0.0138564
0.00883351
0.00388881
-0.000947336
-0.00566304
-0.0102578
0.0256516
0.0217731
0.0179485
0.0143195
0.0107799
0.00726762
0.00378489
0.000347734
-0.00303601
-0.00636442
0.0179383
0.0152137
0.0124689
0.00979519
0.00714825
0.00449884
0.00184937
-0.000789406
-0.00340987
-0.00600719
0.0127591
0.0107676
0.0087293
0.00669817
0.00466022
0.00260424
0.000532906
-0.00154656
-0.003628
-0.00570651
0.00942305
0.00783102
0.00619149
0.00452824
0.00283871
0.00112151
-0.000619315
-0.00237785
-0.00414847
-0.005926
0.00782623
0.00640892
0.00494874
0.00345592
0.00193201
0.0003795
-0.00119717
-0.00279304
-0.00440338
-0.00602368
0.333328
0.332642
0.331006
0.32802
0.322918
0.314457
0.300867
0.279774
0.24855
0.203987
0.24358
0.242559
0.239906
0.235311
0.228461
0.218914
0.206096
0.189355
0.167947
0.141359
0.172857
0.171821
0.169124
0.164574
0.158088
0.14954
0.138728
0.125433
0.109239
0.0902481
0.121296
0.120482
0.118352
0.114766
0.109727
0.103248
0.0953114
0.0859278
0.0750196
0.0629353
0.0849952
0.0844029
0.0828439
0.0802134
0.0765334
0.0718466
0.0661795
0.0595692
0.0519949
0.0436706
0.0598352
0.0594094
0.0582862
0.056391
0.0537481
0.0504015
0.0463878
0.0417503
0.0365068
0.0308072
0.0426934
0.0423822
0.041561
0.0401758
0.038246
0.0358068
0.0328881
0.029522
0.0257278
0.0215913
0.0314121
0.031176
0.0305528
0.0295018
0.0280384
0.02619
0.0239805
0.0214347
0.018573
0.0154487
0.0245786
0.0243869
0.023881
0.0230278
0.0218397
0.0203385
0.0185431
0.0164721
0.0141431
0.0115885
0.0213565
0.0211851
0.0207337
0.0199727
0.0189127
0.017573
0.0159701
0.0141199
0.0120394
0.00975193
0.483914
0.485596
0.49198
0.503142
0.518995
0.539859
0.566195
0.598526
0.63738
0.682991
0.481671
0.483328
0.489632
0.500638
0.516244
0.536731
0.562504
0.593998
0.631603
0.67543
0.477236
0.47885
0.485002
0.495706
0.510827
0.530576
0.555239
0.585084
0.620215
0.660516
0.47071
0.472272
0.478214
0.488488
0.502911
0.521587
0.544633
0.572057
0.603538
0.638652
0.462231
0.463747
0.469441
0.479181
0.492723
0.510034
0.531006
0.555308
0.582039
0.610422
0.451966
0.45346
0.458889
0.468014
0.480522
0.496217
0.514722
0.535289
0.556293
0.576556
0.440109
0.44165
0.446836
0.455303
0.466666
0.480541
0.496245
0.512531
0.526971
0.537911
0.426863
0.428636
0.433708
0.441587
0.45183
0.463834
0.476536
0.488055
0.495058
0.495246
0.412307
0.414559
0.419711
0.427134
0.436372
0.4466
0.45631
0.462789
0.461556
0.448105
0.396117
0.398574
0.403349
0.409711
0.417218
0.42492
0.431019
0.432276
0.423839
0.396437
0.396116
0.398573
0.403348
0.40971
0.417217
0.424918
0.431017
0.432275
0.423838
0.396436
0.412306
0.414558
0.41971
0.427133
0.436371
0.446599
0.456308
0.462788
0.461554
0.448104
0.426862
0.428635
0.433707
0.441586
0.451829
0.463833
0.476535
0.488054
0.495057
0.495245
0.440108
0.441649
0.446835
0.455302
0.466665
0.48054
0.496244
0.51253
0.52697
0.537909
0.451965
0.453459
0.458889
0.468014
0.480522
0.496216
0.514721
0.535288
0.556292
0.576555
0.46223
0.463746
0.46944
0.47918
0.492722
0.510033
0.531005
0.555308
0.582039
0.610421
0.47071
0.472272
0.478213
0.488487
0.502911
0.521587
0.544632
0.572056
0.603538
0.638651
0.477236
0.47885
0.485001
0.495705
0.510827
0.530575
0.555239
0.585083
0.620214
0.660516
0.48167
0.483328
0.489632
0.500638
0.516244
0.536731
0.562504
0.593998
0.631603
0.67543
0.483914
0.485596
0.49198
0.503141
0.518995
0.539859
0.566195
0.598526
0.63738
0.682991
0.0213536
0.0211822
0.0207308
0.0199698
0.0189098
0.0175701
0.0159672
0.014117
0.0120365
0.00974904
0.0245757
0.0243839
0.023878
0.0230249
0.0218368
0.0203356
0.0185403
0.0164692
0.0141403
0.0115856
0.0314092
0.0311731
0.03055
0.029499
0.0280355
0.0261871
0.0239777
0.0214319
0.0185703
0.0154459
0.0426906
0.0423794
0.0415583
0.040173
0.0382432
0.0358041
0.0328854
0.0295193
0.0257251
0.0215887
0.0598325
0.0594067
0.0582835
0.0563884
0.0537454
0.0503989
0.0463852
0.0417476
0.0365041
0.0308045
0.0849927
0.0844004
0.0828415
0.0802109
0.0765309
0.0718441
0.0661771
0.0595667
0.0519925
0.0436682
0.121294
0.120479
0.118349
0.114763
0.109725
0.103245
0.0953091
0.0859255
0.0750173
0.062933
0.172855
0.171818
0.169122
0.164572
0.158086
0.149538
0.138726
0.12543
0.109237
0.090246
0.243578
0.242558
0.239905
0.235309
0.228459
0.218913
0.206094
0.189353
0.167946
0.141357
0.333326
0.33264
0.331005
0.328019
0.322917
0.314455
0.300866
0.279772
0.248549
0.203985
0.00782339
0.00640612
0.00494596
0.00345316
0.00192927
0.000376776
-0.00119988
-0.00279573
-0.00440604
-0.00602632
0.00942024
0.00782824
0.00618873
0.0045255
0.002836
0.00111882
-0.000621978
-0.00238049
-0.00415109
-0.00592859
0.0127564
0.0107648
0.00872659
0.00669548
0.00465755
0.00260158
0.000530275
-0.00154917
-0.00363059
-0.00570908
0.0179357
0.0152111
0.0124663
0.00979259
0.00714567
0.00449628
0.00184682
-0.000791944
-0.00341239
-0.0060097
0.025649
0.0217705
0.0179459
0.0143169
0.0107774
0.0072651
0.00378239
0.000345247
-0.00303848
-0.00636687
0.035877
0.0299393
0.0242286
0.0189462
0.0138539
0.00883109
0.0038864
-0.000949735
-0.00566543
-0.0102602
0.0514394
0.0424095
0.0338541
0.0261781
0.0189266
0.0118485
0.00494976
-0.00171312
-0.00812028
-0.0142789
0.0714771
0.0557733
0.0409136
0.0280242
0.0161543
0.00467227
-0.00648252
-0.0172277
-0.0275447
-0.0374613
0.116057
0.0901991
0.0636935
0.0409391
0.0207945
0.00209791
-0.0152156
-0.0309467
-0.0450724
-0.0577027
0.164949
0.123922
0.0790008
0.0360888
-0.00561748
-0.0464473
-0.0857848
-0.123081
-0.158088
-0.19073
-0.00765225
-0.00927967
-0.0109046
-0.0125233
-0.0141322
-0.0157279
-0.0173075
-0.0188679
-0.0204073
-0.0219219
-0.00770799
-0.00948438
-0.011253
-0.0130094
-0.0147492
-0.0164688
-0.0181644
-0.019833
-0.0214717
-0.0230793
-0.00778013
-0.00983926
-0.0118822
-0.0139048
-0.0159034
-0.0178747
-0.0198154
-0.0217229
-0.0235924
-0.0254273
-0.00857957
-0.0111176
-0.0136194
-0.016081
-0.0184988
-0.0208697
-0.0231913
-0.0254612
-0.0276717
-0.0298296
-0.00963898
-0.0128535
-0.016009
-0.0191047
-0.0221401
-0.0251144
-0.0280275
-0.0308779
-0.0336514
-0.0363415
-0.0147344
-0.019086
-0.0233119
-0.0274087
-0.0313724
-0.0351988
-0.0388842
-0.0424258
-0.0458003
-0.0489639
-0.020202
-0.0259028
-0.0313965
-0.0367018
-0.0418405
-0.0468358
-0.051711
-0.0564881
-0.0611634
-0.0656016
-0.047001
-0.0561668
-0.0649449
-0.0733079
-0.081217
-0.088625
-0.0954851
-0.101766
-0.107461
-0.112675
-0.0689818
-0.0790679
-0.0881523
-0.096478
-0.104355
-0.112171
-0.120394
-0.129579
-0.140328
-0.154391
-0.221024
-0.249069
-0.275057
-0.299265
-0.322069
-0.343959
-0.365536
-0.387425
-0.410101
-0.434082
-0.0323796
-0.0428705
-0.0433015
-0.0371778
-0.029247
-0.0222854
-0.0162307
-0.0111146
-0.00631886
-0.00215582
-0.0346409
-0.0448955
-0.0443118
-0.0374706
-0.0292767
-0.0222271
-0.0161206
-0.0110015
-0.00622677
-0.00212857
-0.0395144
-0.0490348
-0.0463173
-0.0380671
-0.029348
-0.0220933
-0.0158872
-0.0107565
-0.00604281
-0.00206787
-0.0478418
-0.0555534
-0.0492787
-0.0389144
-0.0294194
-0.0218454
-0.0155035
-0.0103596
-0.00575742
-0.00197665
-0.0609811
-0.0648958
-0.0531421
-0.0398819
-0.0293725
-0.0213976
-0.0149255
-0.00977778
-0.00536013
-0.00185742
-0.0812175
-0.0778498
-0.0581201
-0.0408906
-0.0290209
-0.0205975
-0.014075
-0.00895616
-0.00483754
-0.00170016
-0.110561
-0.0952472
-0.0649879
-0.0421897
-0.0282835
-0.01931
-0.0128724
-0.00783801
-0.00417818
-0.0014617
-0.15013
-0.116225
-0.0745592
-0.0442691
-0.0273582
-0.017576
-0.0113234
-0.00643095
-0.00339545
-0.0010536
-0.191065
-0.13392
-0.0841282
-0.0458335
-0.0260595
-0.0154065
-0.009481
-0.00483573
-0.00254563
-0.000374775
-0.249017
-0.142497
-0.0901182
-0.0444068
-0.0243852
-0.0129772
-0.00765305
-0.00327799
-0.00181414
0.000604601
-0.316799
-0.150871
-0.0937362
-0.041042
-0.0238863
-0.011532
-0.00692817
-0.00240082
-0.00166673
0.00146589
-0.323847
-0.148191
-0.092479
-0.0392933
-0.0233435
-0.011006
-0.00666219
-0.00218026
-0.00159588
0.00165459
-0.319321
-0.142807
-0.0900764
-0.0374115
-0.0226888
-0.0104934
-0.00639607
-0.00199599
-0.00150965
0.0018007
-0.313716
-0.138831
-0.0882586
-0.0359556
-0.022184
-0.0100727
-0.00617388
-0.00183914
-0.0014323
0.00193096
-0.308797
-0.135906
-0.0868597
-0.0347723
-0.0217788
-0.00971607
-0.00598558
-0.00170253
-0.00136572
0.0020482
-0.304169
-0.13344
-0.0856457
-0.0337726
-0.0214345
-0.00941228
-0.00582566
-0.00158661
-0.00130859
0.00214889
-0.299974
-0.131371
-0.084615
-0.0329622
-0.021152
-0.00916497
-0.0056954
-0.00149293
-0.00126136
0.00223093
-0.296557
-0.129771
-0.0838152
-0.0323543
-0.0209377
-0.00897796
-0.00559667
-0.00142228
-0.00122503
0.00229332
-0.29416
-0.128682
-0.0832722
-0.0319506
-0.0207941
-0.00885277
-0.00553044
-0.00137501
-0.00120039
0.00233537
-0.292927
-0.128131
-0.0829978
-0.0317493
-0.020722
-0.00879002
-0.00549719
-0.00135131
-0.00118795
0.00235655
)
;

boundaryField
{
    inlet
    {
        type            zeroGradient;
    }
    outlet
    {
        type            fixedValue;
        value           uniform 0;
    }
    cylinder
    {
        type            zeroGradient;
    }
    top
    {
        type            symmetryPlane;
    }
    bottom
    {
        type            symmetryPlane;
    }
    defaultFaces
    {
        type            empty;
    }
}


// ************************************************************************* //
