1.45 	0 	0 	0.839537 	-0.0106741 	1.25989e-21
2.35 	0 	0 	0.942097 	-0.00306285 	1.08149e-21
