1.45 	0 	0 	-0.296891
2.35 	0 	0 	-0.1314
