1.45 	0 	0 	-0.00754072 	-0.00260083 	3.84498e-21
2.35 	0 	0 	0.0627313 	-0.00667781 	2.37115e-21
