1.275 	2.15223e-18 	-2.76991e-20 	-0.0324496 	-0.000475679 	-2.04523e-22
1.825 	2.15223e-18 	-1.39322e-20 	-0.00736629 	-0.00301762 	1.81072e-21
2.375 	2.15223e-18 	-2.66896e-23 	0.133894 	-0.00389148 	-7.4595e-22
