1.275 	2.15223e-18 	-2.76991e-20 	-0.032517 	-0.000472328 	-2.05044e-22
1.825 	2.15223e-18 	-1.39322e-20 	-0.00705659 	-0.00309198 	1.80454e-21
2.375 	2.15223e-18 	-2.66896e-23 	0.138527 	-0.00406893 	-7.39886e-22
