1.45 	0 	0 	-0.00745572 	-0.00260683 	3.85298e-21
2.35 	0 	0 	0.0629907 	-0.00668695 	2.38098e-21
