1.45 	0 	0 	-0.00813322 	-0.00258495 	1.6535e-20
2.35 	0 	0 	0.0621545 	-0.00662773 	9.88785e-21
