/*--------------------------------*- C++ -*----------------------------------*\
  =========                 |
  \\      /  F ield         | OpenFOAM: The Open Source CFD Toolbox
   \\    /   O peration     | Website:  https://openfoam.org
    \\  /    A nd           | Version:  6.0
     \\/     M anipulation  |
\*---------------------------------------------------------------------------*/
FoamFile
{
    version     2.0;
    format      ascii;
    class       volScalarField;
    location    "49";
    object      p;
}
// * * * * * * * * * * * * * * * * * * * * * * * * * * * * * * * * * * * * * //

dimensions      [0 2 -2 0 0 0 0];

internalField   nonuniform List<scalar> 
2000
(
-0.348047
-0.353953
-0.355641
-0.354973
-0.353113
-0.350436
-0.347221
-0.343759
-0.340339
-0.336643
-0.350765
-0.356251
-0.3576
-0.356629
-0.354482
-0.35153
-0.348052
-0.34433
-0.340655
-0.336839
-0.35622
-0.360848
-0.361505
-0.359926
-0.357197
-0.35369
-0.349676
-0.345417
-0.341214
-0.337154
-0.364455
-0.367743
-0.367338
-0.364832
-0.361221
-0.356869
-0.352031
-0.346928
-0.341878
-0.337428
-0.375527
-0.376932
-0.375067
-0.371308
-0.366513
-0.361018
-0.355049
-0.348748
-0.342449
-0.337405
-0.389502
-0.388403
-0.384652
-0.379315
-0.373041
-0.366115
-0.358697
-0.350792
-0.342717
-0.336757
-0.406413
-0.402113
-0.396034
-0.388811
-0.380799
-0.3722
-0.36307
-0.353179
-0.34268
-0.335223
-0.426204
-0.417963
-0.409121
-0.399734
-0.389771
-0.379316
-0.368281
-0.356039
-0.342096
-0.331653
-0.448664
-0.435779
-0.423798
-0.412045
-0.399999
-0.387556
-0.374315
-0.358755
-0.33867
-0.321359
-0.473357
-0.455297
-0.439965
-0.425891
-0.412105
-0.398408
-0.384045
-0.36638
-0.34134
-0.317363
-0.499597
-0.476093
-0.457353
-0.441183
-0.426455
-0.413543
-0.402788
-0.394831
-0.394969
-0.414502
-0.526561
-0.497587
-0.475346
-0.456815
-0.440478
-0.426796
-0.416243
-0.409879
-0.412835
-0.430106
-0.553524
-0.519322
-0.493669
-0.472667
-0.454302
-0.438941
-0.426947
-0.419042
-0.418334
-0.426151
-0.579838
-0.540826
-0.51201
-0.488566
-0.467929
-0.450286
-0.435794
-0.424709
-0.418507
-0.417169
-0.604756
-0.561433
-0.529745
-0.503868
-0.480655
-0.46009
-0.442132
-0.426657
-0.414086
-0.40446
-0.627286
-0.580207
-0.54593
-0.517568
-0.491424
-0.467351
-0.445225
-0.424735
-0.405714
-0.388926
-0.646146
-0.59594
-0.559334
-0.52838
-0.498949
-0.470898
-0.44419
-0.418519
-0.393467
-0.370814
-0.659775
-0.607176
-0.568496
-0.534823
-0.5018
-0.469473
-0.43806
-0.407405
-0.37706
-0.349885
-0.666412
-0.612276
-0.571793
-0.535304
-0.498501
-0.461821
-0.425871
-0.39073
-0.356029
-0.325641
-0.664189
-0.609502
-0.567532
-0.52821
-0.487622
-0.446771
-0.406738
-0.367853
-0.32986
-0.297494
-0.651253
-0.59711
-0.554041
-0.512014
-0.467871
-0.423318
-0.379931
-0.338251
-0.298107
-0.26491
-0.625866
-0.573461
-0.529784
-0.485377
-0.438189
-0.390703
-0.344946
-0.301586
-0.260478
-0.227518
-0.586557
-0.537147
-0.493485
-0.44726
-0.397838
-0.348476
-0.301554
-0.257764
-0.216913
-0.185181
-0.532229
-0.487108
-0.44423
-0.397014
-0.346464
-0.296539
-0.249836
-0.206966
-0.167615
-0.138042
-0.462277
-0.422746
-0.381574
-0.33444
-0.284123
-0.235143
-0.190168
-0.149641
-0.113059
-0.0865274
-0.3767
-0.344027
-0.305607
-0.259831
-0.211275
-0.164849
-0.123151
-0.0864076
-0.0538812
-0.0312609
-0.276187
-0.251556
-0.217012
-0.173983
-0.128778
-0.086499
-0.0495577
-0.0179658
0.00919771
0.0269306
-0.162176
-0.14662
-0.117074
-0.0781885
-0.0378672
-0.00123385
0.0295564
0.0545669
0.0746362
0.0860171
-0.0368777
-0.0311918
-0.00764292
0.0258816
0.0600723
0.0898937
0.113332
0.129977
0.139911
0.142282
0.0967524
0.0920866
0.108868
0.136197
0.163718
0.186708
0.203195
0.211562
0.210528
0.203799
0.235139
0.21995
0.229355
0.249863
0.270613
0.287726
0.299931
0.305413
0.304366
0.318284
0.374386
0.348752
0.350207
0.363026
0.376046
0.38602
0.392073
0.393315
0.392237
0.405161
0.510551
0.474821
0.468014
0.472566
0.477219
0.479297
0.478234
0.473613
0.467921
0.473024
0.639786
0.59455
0.579484
0.575583
0.571684
0.565695
0.557359
0.546526
0.535267
0.532425
0.758431
0.704497
0.681524
0.669416
0.65725
0.643502
0.62819
0.611354
0.594684
0.584737
0.863098
0.801498
0.771315
0.751671
0.731963
0.711186
0.689599
0.667387
0.645872
0.629716
0.950774
0.882743
0.84637
0.820235
0.794072
0.767322
0.740443
0.713732
0.688157
0.666799
1.0189
0.945865
0.904595
0.873319
0.842073
0.810647
0.779651
0.749464
0.720743
0.695328
1.06548
0.989012
0.944353
0.909521
0.874772
0.840137
0.806328
0.773778
0.742912
0.714712
1.08912
1.01091
0.964519
0.927869
0.891335
0.855068
0.819833
0.786088
0.754137
0.724517
1.08912
1.01091
0.964519
0.927869
0.891335
0.855068
0.819833
0.786088
0.754137
0.724517
1.06548
0.989012
0.944353
0.909521
0.874772
0.840137
0.806328
0.773778
0.742912
0.714712
1.0189
0.945865
0.904595
0.873319
0.842073
0.810647
0.779651
0.749464
0.720743
0.695328
0.950773
0.882742
0.84637
0.820235
0.794072
0.767322
0.740443
0.713732
0.688157
0.666799
0.863098
0.801497
0.771315
0.751671
0.731963
0.711186
0.689599
0.667387
0.645872
0.629716
0.75843
0.704497
0.681524
0.669415
0.65725
0.643502
0.62819
0.611354
0.594684
0.584737
0.639786
0.594549
0.579484
0.575582
0.571683
0.565695
0.557359
0.546525
0.535267
0.532425
0.51055
0.474821
0.468013
0.472565
0.477218
0.479297
0.478234
0.473613
0.46792
0.473023
0.374386
0.348751
0.350206
0.363026
0.376046
0.38602
0.392073
0.393315
0.392237
0.405161
0.235138
0.219949
0.229355
0.249862
0.270612
0.287726
0.29993
0.305412
0.304365
0.318283
0.0967519
0.0920861
0.108867
0.136196
0.163718
0.186707
0.203195
0.211562
0.210528
0.203799
-0.0368782
-0.0311922
-0.00764337
0.0258812
0.0600719
0.0898934
0.113332
0.129977
0.13991
0.142281
-0.162176
-0.146621
-0.117074
-0.078189
-0.0378676
-0.0012342
0.0295561
0.0545666
0.0746359
0.0860169
-0.276187
-0.251557
-0.217012
-0.173984
-0.128778
-0.0864994
-0.049558
-0.0179661
0.00919743
0.0269303
-0.376701
-0.344028
-0.305607
-0.259831
-0.211275
-0.164849
-0.123152
-0.0864079
-0.0538815
-0.0312611
-0.462277
-0.422747
-0.381574
-0.334441
-0.284124
-0.235144
-0.190168
-0.149641
-0.113059
-0.0865277
-0.532229
-0.487108
-0.444231
-0.397014
-0.346465
-0.29654
-0.249836
-0.206966
-0.167615
-0.138043
-0.586558
-0.537147
-0.493485
-0.447261
-0.397839
-0.348477
-0.301554
-0.257764
-0.216913
-0.185181
-0.625867
-0.573462
-0.529785
-0.485377
-0.438189
-0.390703
-0.344946
-0.301586
-0.260479
-0.227518
-0.651253
-0.597111
-0.554041
-0.512014
-0.467871
-0.423319
-0.379932
-0.338251
-0.298107
-0.26491
-0.66419
-0.609502
-0.567532
-0.52821
-0.487623
-0.446772
-0.406738
-0.367854
-0.329861
-0.297495
-0.666412
-0.612276
-0.571794
-0.535304
-0.498502
-0.461822
-0.425871
-0.39073
-0.356029
-0.325641
-0.659775
-0.607176
-0.568496
-0.534824
-0.5018
-0.469473
-0.43806
-0.407406
-0.37706
-0.349885
-0.646146
-0.59594
-0.559335
-0.52838
-0.498949
-0.470898
-0.44419
-0.418519
-0.393467
-0.370814
-0.627286
-0.580208
-0.54593
-0.517568
-0.491425
-0.467351
-0.445225
-0.424735
-0.405714
-0.388926
-0.604756
-0.561433
-0.529745
-0.503868
-0.480655
-0.46009
-0.442132
-0.426657
-0.414086
-0.40446
-0.579839
-0.540826
-0.51201
-0.488566
-0.46793
-0.450286
-0.435794
-0.424709
-0.418507
-0.417169
-0.553524
-0.519322
-0.493669
-0.472667
-0.454302
-0.438941
-0.426947
-0.419042
-0.418334
-0.426151
-0.526561
-0.497587
-0.475346
-0.456815
-0.440478
-0.426796
-0.416243
-0.409879
-0.412834
-0.430106
-0.499597
-0.476093
-0.457353
-0.441183
-0.426455
-0.413543
-0.402788
-0.394831
-0.394969
-0.414502
-0.473357
-0.455297
-0.439965
-0.425891
-0.412105
-0.398408
-0.384045
-0.36638
-0.34134
-0.317363
-0.448664
-0.435779
-0.423798
-0.412045
-0.399999
-0.387556
-0.374315
-0.358755
-0.33867
-0.321358
-0.426204
-0.417963
-0.409121
-0.399734
-0.389771
-0.379316
-0.368281
-0.356039
-0.342096
-0.331653
-0.406413
-0.402113
-0.396034
-0.388811
-0.380799
-0.3722
-0.36307
-0.353179
-0.34268
-0.335223
-0.389502
-0.388403
-0.384652
-0.379315
-0.373041
-0.366115
-0.358697
-0.350792
-0.342716
-0.336757
-0.375527
-0.376932
-0.375067
-0.371308
-0.366513
-0.361018
-0.355049
-0.348748
-0.342449
-0.337405
-0.364455
-0.367743
-0.367338
-0.364832
-0.361221
-0.356869
-0.352031
-0.346928
-0.341878
-0.337428
-0.35622
-0.360848
-0.361505
-0.359926
-0.357197
-0.35369
-0.349676
-0.345417
-0.341214
-0.337154
-0.350765
-0.356251
-0.3576
-0.356629
-0.354482
-0.35153
-0.348052
-0.34433
-0.340655
-0.336839
-0.348047
-0.353953
-0.355641
-0.354973
-0.353113
-0.350436
-0.347221
-0.343759
-0.340339
-0.336643
-0.290433
-0.126295
-0.081226
-0.030324
-0.0192192
-0.00778553
-0.0043454
-0.000874665
-0.000457035
0.00217146
-0.291664
-0.126842
-0.0814963
-0.0305227
-0.0192872
-0.00784533
-0.00437504
-0.000895195
-0.000465917
0.00215562
-0.294055
-0.127924
-0.0820317
-0.0309212
-0.0194229
-0.00796458
-0.0044342
-0.000936443
-0.000483854
0.00212411
-0.297466
-0.129515
-0.0828207
-0.0315214
-0.0196261
-0.00814284
-0.00452273
-0.000998296
-0.000510688
0.00207724
-0.301652
-0.131571
-0.0838372
-0.0323217
-0.0198945
-0.00837874
-0.00464012
-0.00108056
-0.00054614
0.00201545
-0.306255
-0.134017
-0.0850318
-0.0333084
-0.0202225
-0.00866868
-0.00478516
-0.0011827
-0.000589855
0.0019394
-0.311148
-0.136921
-0.0864098
-0.0344766
-0.0206107
-0.00900992
-0.0049573
-0.00130376
-0.000642032
0.00185066
-0.31685
-0.140937
-0.0882341
-0.0359271
-0.0211023
-0.00941591
-0.00516261
-0.00144407
-0.000704202
0.00175202
-0.321628
-0.146442
-0.0906829
-0.037825
-0.021748
-0.00991371
-0.00541024
-0.00160902
-0.000774787
0.0016409
-0.313823
-0.148817
-0.0917937
-0.0395265
-0.0222504
-0.0104057
-0.00565498
-0.0017999
-0.000834316
0.00149435
-0.247292
-0.140719
-0.088173
-0.0427816
-0.0227492
-0.0117375
-0.00637142
-0.00253957
-0.000999842
0.000841281
-0.189196
-0.131711
-0.0821709
-0.0442402
-0.0244823
-0.0141296
-0.00822013
-0.00402333
-0.00176178
-8.57645e-07
-0.14778
-0.113853
-0.0727423
-0.0428095
-0.0259077
-0.0163355
-0.0101552
-0.00561522
-0.00269686
-0.000680958
-0.108188
-0.0929518
-0.0633226
-0.0408403
-0.0269571
-0.0181306
-0.0118299
-0.00705058
-0.0035882
-0.00115211
-0.07895
-0.0756794
-0.0565224
-0.0395851
-0.0277811
-0.0194759
-0.0131423
-0.0082048
-0.00433595
-0.00145076
-0.0588584
-0.0628323
-0.0515624
-0.0385854
-0.0281923
-0.0203229
-0.0140692
-0.00905927
-0.00491447
-0.00164444
-0.0458331
-0.0535713
-0.0477007
-0.0376152
-0.0282802
-0.0208043
-0.0146929
-0.00966754
-0.00534318
-0.00178115
-0.0375888
-0.047112
-0.0447387
-0.0367622
-0.0282353
-0.0210739
-0.0151011
-0.0100846
-0.00564597
-0.00188
-0.032767
-0.0430111
-0.0427312
-0.0361592
-0.028179
-0.0212204
-0.0153461
-0.0103439
-0.00583897
-0.00194461
-0.0305365
-0.0410096
-0.0417202
-0.0358622
-0.0281552
-0.0212852
-0.0154592
-0.0104659
-0.00593335
-0.00197489
-0.21859
-0.246487
-0.272266
-0.29621
-0.318704
-0.340254
-0.361478
-0.383022
-0.405388
-0.42923
-0.0679446
-0.0780872
-0.0872518
-0.0956818
-0.103684
-0.11164
-0.120006
-0.129322
-0.140168
-0.154335
-0.0451735
-0.0543553
-0.0631515
-0.0715354
-0.0794695
-0.0869088
-0.0938101
-0.100146
-0.105914
-0.111236
-0.0187503
-0.0244703
-0.029984
-0.0353103
-0.0404711
-0.0454897
-0.0503892
-0.0551918
-0.0598974
-0.0643853
-0.0130411
-0.0173971
-0.0216284
-0.0257316
-0.029703
-0.0335385
-0.0372346
-0.0407884
-0.0441802
-0.0473786
-0.00798676
-0.0112041
-0.014362
-0.0174596
-0.0204963
-0.0234714
-0.0263847
-0.0292345
-0.0320094
-0.0347126
-0.00686319
-0.0094001
-0.0119007
-0.014361
-0.0167773
-0.0191467
-0.0214666
-0.0237343
-0.0259441
-0.0281091
-0.00606222
-0.00812015
-0.0101616
-0.0121824
-0.0141788
-0.0161475
-0.0180854
-0.0199894
-0.0218562
-0.0236931
-0.00597463
-0.00774932
-0.0095161
-0.0112704
-0.0130081
-0.0147253
-0.0164184
-0.0180843
-0.0197207
-0.0213291
-0.00591863
-0.00754462
-0.00916802
-0.0107851
-0.0123922
-0.0139861
-0.0155637
-0.017122
-0.0186597
-0.020175
0.16801
0.127023
0.0816747
0.0386056
-0.00313288
-0.044012
-0.0834153
-0.12076
-0.155779
-0.188386
0.11754
0.0916256
0.0648337
0.0419949
0.0218747
0.00320093
-0.0141095
-0.0298455
-0.0439806
-0.0566301
0.0734203
0.0577223
0.0427693
0.0298572
0.0180059
0.0065392
-0.00461376
-0.0153651
-0.0256916
-0.0356199
0.0531645
0.0440916
0.0354625
0.0277521
0.0204858
0.0133932
0.00647656
-0.000205377
-0.00663135
-0.0128085
0.0376279
0.0316765
0.0259363
0.0206457
0.0155554
0.0105343
0.00558926
0.00075161
-0.00396614
-0.00856358
0.0273664
0.0234774
0.0196322
0.0159944
0.0124519
0.0089365
0.00544975
0.00200835
-0.00137937
-0.0047114
0.0196638
0.0169354
0.0141802
0.0115035
0.00885751
0.00620914
0.00356023
0.000921953
-0.00169783
-0.00429429
0.0144835
0.0124884
0.0104431
0.00840999
0.0063725
0.00431701
0.00224589
0.000166666
-0.00191431
-0.00399211
0.0111529
0.00955795
0.00791399
0.00625026
0.00456197
0.00284598
0.00110618
-0.000651277
-0.00242065
-0.00419676
0.00955678
0.00813615
0.00667219
0.00517913
0.00365637
0.00210495
0.000529196
-0.00106572
-0.00267495
-0.00429402
0.335425
0.334725
0.333176
0.330301
0.325317
0.316986
0.303537
0.282575
0.251468
0.206851
0.245527
0.244411
0.241775
0.237191
0.23032
0.220735
0.207864
0.191048
0.169541
0.142786
0.174696
0.173567
0.170901
0.166376
0.159886
0.151322
0.140496
0.127192
0.111004
0.0920172
0.123087
0.122201
0.120099
0.116536
0.111497
0.105005
0.0970557
0.0876574
0.0767326
0.0646163
0.0867531
0.0861086
0.0845697
0.0819566
0.0782766
0.0735822
0.0679075
0.0612906
0.0537119
0.0453801
0.0615741
0.0611107
0.0600021
0.05812
0.0554774
0.0521258
0.0481066
0.043464
0.0382154
0.0325072
0.0444228
0.0440843
0.0432741
0.0418989
0.0399701
0.0375281
0.0346066
0.0312384
0.0274429
0.023304
0.0331373
0.0328805
0.032266
0.0312229
0.0297606
0.0279106
0.0256996
0.0231527
0.0202903
0.0171644
0.0263016
0.0260931
0.0255944
0.024748
0.0235613
0.0220593
0.0202634
0.0181923
0.0158639
0.0133096
0.0230812
0.0228947
0.0224495
0.0216944
0.0206356
0.0192951
0.0176917
0.0158416
0.0137616
0.0114745
0.485399
0.487152
0.493485
0.504631
0.520483
0.541343
0.567677
0.600009
0.638876
0.684524
0.483158
0.484885
0.491138
0.502128
0.517731
0.538213
0.563983
0.595478
0.633097
0.676932
0.478727
0.480409
0.486509
0.497197
0.512314
0.532055
0.556714
0.586556
0.621706
0.661955
0.472208
0.473835
0.479724
0.48998
0.504396
0.523062
0.5461
0.573517
0.605024
0.640002
0.463737
0.465314
0.470955
0.480674
0.494206
0.511502
0.532462
0.556751
0.583518
0.611657
0.453484
0.455033
0.460407
0.469508
0.481999
0.497672
0.51616
0.536705
0.557757
0.577657
0.441646
0.443234
0.448361
0.4568
0.46814
0.481986
0.497664
0.513921
0.528419
0.53887
0.428427
0.430242
0.435257
0.443107
0.453322
0.46529
0.47796
0.48944
0.496504
0.496088
0.413897
0.416189
0.421283
0.428669
0.437864
0.448037
0.457688
0.464098
0.462887
0.448808
0.397695
0.400131
0.404798
0.411055
0.418434
0.425985
0.431933
0.433056
0.424591
0.396888
0.397695
0.400131
0.404798
0.411055
0.418434
0.425985
0.431933
0.433056
0.42459
0.396887
0.413897
0.416189
0.421283
0.428669
0.437864
0.448037
0.457688
0.464098
0.462887
0.448808
0.428427
0.430242
0.435257
0.443106
0.453322
0.46529
0.47796
0.48944
0.496504
0.496088
0.441645
0.443234
0.448361
0.4568
0.46814
0.481986
0.497664
0.513921
0.528419
0.53887
0.453484
0.455033
0.460407
0.469508
0.481999
0.497672
0.51616
0.536705
0.557757
0.577657
0.463737
0.465314
0.470955
0.480674
0.494206
0.511502
0.532462
0.556751
0.583518
0.611657
0.472208
0.473835
0.479724
0.48998
0.504396
0.523062
0.5461
0.573517
0.605024
0.640001
0.478727
0.480409
0.486509
0.497197
0.512313
0.532055
0.556714
0.586555
0.621706
0.661955
0.483158
0.484885
0.491138
0.502128
0.517731
0.538213
0.563983
0.595478
0.633097
0.676932
0.485399
0.487152
0.493485
0.504631
0.520483
0.541343
0.567677
0.600009
0.638876
0.684524
0.0230811
0.0228946
0.0224494
0.0216943
0.0206355
0.019295
0.0176917
0.0158415
0.0137615
0.0114744
0.0263015
0.026093
0.0255942
0.0247479
0.0235611
0.0220592
0.0202633
0.0181922
0.0158639
0.0133095
0.0331372
0.0328804
0.0322659
0.0312228
0.0297605
0.0279105
0.0256995
0.0231526
0.0202902
0.0171643
0.0444227
0.0440842
0.043274
0.0418988
0.03997
0.037528
0.0346065
0.0312383
0.0274428
0.0233039
0.0615739
0.0611105
0.060002
0.0581199
0.0554773
0.0521257
0.0481065
0.0434639
0.0382153
0.0325071
0.086753
0.0861085
0.0845696
0.0819565
0.0782765
0.0735821
0.0679074
0.0612905
0.0537118
0.04538
0.123087
0.122201
0.120099
0.116536
0.111497
0.105005
0.0970556
0.0876573
0.0767325
0.0646162
0.174696
0.173567
0.170901
0.166376
0.159886
0.151322
0.140496
0.127192
0.111004
0.0920171
0.245527
0.244411
0.241775
0.237191
0.23032
0.220735
0.207863
0.191048
0.16954
0.142786
0.335425
0.334725
0.333176
0.330301
0.325317
0.316986
0.303537
0.282575
0.251468
0.206851
0.00955671
0.00813608
0.00667213
0.00517907
0.0036563
0.00210489
0.000529134
-0.00106578
-0.00267501
-0.00429408
0.0111528
0.00955787
0.00791392
0.0062502
0.0045619
0.00284592
0.00110612
-0.00065134
-0.00242071
-0.00419682
0.0144834
0.0124883
0.010443
0.00840991
0.00637243
0.00431694
0.00224582
0.000166598
-0.00191438
-0.00399218
0.0196637
0.0169353
0.0141801
0.0115035
0.00885743
0.00620906
0.00356015
0.000921876
-0.00169791
-0.00429436
0.0273663
0.0234773
0.0196321
0.0159943
0.0124518
0.00893641
0.00544966
0.00200826
-0.00137946
-0.00471148
0.0376278
0.0316764
0.0259362
0.0206456
0.0155553
0.0105342
0.00558916
0.000751513
-0.00396624
-0.00856367
0.0531644
0.0440915
0.0354624
0.027752
0.0204856
0.0133931
0.00647645
-0.000205486
-0.00663146
-0.0128086
0.0734202
0.0577222
0.0427692
0.0298571
0.0180057
0.00653907
-0.00461388
-0.0153652
-0.0256917
-0.03562
0.11754
0.0916254
0.0648335
0.0419947
0.0218746
0.00320079
-0.0141096
-0.0298456
-0.0439807
-0.0566302
0.16801
0.127023
0.0816745
0.0386054
-0.00313307
-0.0440122
-0.0834154
-0.12076
-0.155779
-0.188386
-0.00591869
-0.00754468
-0.00916807
-0.0107851
-0.0123922
-0.0139862
-0.0155637
-0.0171221
-0.0186598
-0.020175
-0.00597468
-0.00774938
-0.00951615
-0.0112705
-0.0130082
-0.0147254
-0.0164185
-0.0180843
-0.0197208
-0.0213292
-0.00606228
-0.0081202
-0.0101616
-0.0121824
-0.0141789
-0.0161476
-0.0180855
-0.0199895
-0.0218563
-0.0236932
-0.00686326
-0.00940017
-0.0119008
-0.014361
-0.0167774
-0.0191468
-0.0214667
-0.0237344
-0.0259442
-0.0281092
-0.00798684
-0.0112042
-0.0143621
-0.0174597
-0.0204963
-0.0234715
-0.0263848
-0.0292346
-0.0320095
-0.0347128
-0.0130412
-0.0173971
-0.0216285
-0.0257317
-0.0297031
-0.0335386
-0.0372348
-0.0407885
-0.0441803
-0.0473787
-0.0187504
-0.0244705
-0.0299841
-0.0353104
-0.0404712
-0.0454898
-0.0503894
-0.0551919
-0.0598975
-0.0643855
-0.0451736
-0.0543555
-0.0631517
-0.0715356
-0.0794696
-0.086909
-0.0938103
-0.100147
-0.105915
-0.111236
-0.0679447
-0.0780873
-0.087252
-0.095682
-0.103684
-0.11164
-0.120006
-0.129322
-0.140169
-0.154335
-0.21859
-0.246487
-0.272266
-0.29621
-0.318704
-0.340254
-0.361478
-0.383022
-0.405388
-0.429231
-0.0305365
-0.0410096
-0.0417202
-0.0358622
-0.028155
-0.0212851
-0.0154594
-0.0104663
-0.00593377
-0.00197519
-0.032767
-0.0430111
-0.0427312
-0.0361591
-0.0281788
-0.0212203
-0.0153463
-0.0103444
-0.00583944
-0.00194494
-0.0375888
-0.047112
-0.0447387
-0.0367621
-0.028235
-0.0210738
-0.0151014
-0.010085
-0.00564654
-0.00188038
-0.0458331
-0.0535713
-0.0477008
-0.037615
-0.0282798
-0.0208041
-0.0146931
-0.00966813
-0.00534393
-0.00178161
-0.0588585
-0.0628324
-0.0515625
-0.0385851
-0.0281917
-0.0203227
-0.0140694
-0.00906004
-0.00491551
-0.00164501
-0.0789501
-0.0756795
-0.0565226
-0.0395846
-0.0277802
-0.0194755
-0.0131425
-0.00820585
-0.00433742
-0.00145147
-0.108188
-0.092952
-0.0633228
-0.0408396
-0.0269558
-0.01813
-0.0118301
-0.00705206
-0.0035903
-0.00115297
-0.147781
-0.113854
-0.0727425
-0.0428083
-0.0259059
-0.0163346
-0.0101553
-0.00561729
-0.00269976
-0.000681962
-0.189197
-0.131712
-0.0821714
-0.0442386
-0.0244798
-0.0141283
-0.00821999
-0.00402607
-0.00176554
-1.96585e-06
-0.247292
-0.140721
-0.088174
-0.0427798
-0.0227462
-0.0117356
-0.00637088
-0.00254275
-0.00100412
0.000840155
-0.313823
-0.148819
-0.0917948
-0.0395248
-0.0222478
-0.010404
-0.00565428
-0.00180297
-0.000838273
0.00149349
-0.321628
-0.146443
-0.0906839
-0.0378234
-0.0217456
-0.00991212
-0.00540959
-0.00161195
-0.000778479
0.00164014
-0.316851
-0.140938
-0.088235
-0.0359255
-0.0211
-0.00941449
-0.00516208
-0.00144674
-0.000707481
0.00175136
-0.311148
-0.136922
-0.0864106
-0.0344751
-0.0206087
-0.00900867
-0.00495687
-0.00130613
-0.000644888
0.0018501
-0.306256
-0.134018
-0.0850324
-0.0333071
-0.0202207
-0.0086676
-0.0047848
-0.00118477
-0.000592298
0.00193893
-0.301652
-0.131572
-0.0838378
-0.0323206
-0.0198931
-0.00837783
-0.00463983
-0.0010823
-0.000548163
0.00201507
-0.297466
-0.129515
-0.0828212
-0.0315205
-0.0196249
-0.00814212
-0.0045225
-0.000999681
-0.000512279
0.00207694
-0.294055
-0.127924
-0.082032
-0.0309205
-0.0194221
-0.00796404
-0.00443404
-0.000937455
-0.000485003
0.0021239
-0.291664
-0.126843
-0.0814966
-0.0305223
-0.0192867
-0.00784499
-0.00437494
-0.000895824
-0.000466616
0.00215551
-0.290433
-0.126295
-0.0812261
-0.0303239
-0.019219
-0.00778541
-0.00434538
-0.00087489
-0.000457277
0.00217143
)
;

boundaryField
{
    inlet
    {
        type            zeroGradient;
    }
    outlet
    {
        type            fixedValue;
        value           uniform 0;
    }
    cylinder
    {
        type            zeroGradient;
    }
    top
    {
        type            symmetryPlane;
    }
    bottom
    {
        type            symmetryPlane;
    }
    defaultFaces
    {
        type            empty;
    }
}


// ************************************************************************* //
