/*--------------------------------*- C++ -*----------------------------------*\
  =========                 |
  \\      /  F ield         | OpenFOAM: The Open Source CFD Toolbox
   \\    /   O peration     | Website:  https://openfoam.org
    \\  /    A nd           | Version:  6.0
     \\/     M anipulation  |
\*---------------------------------------------------------------------------*/
FoamFile
{
    version     2.0;
    format      ascii;
    class       surfaceScalarField;
    location    "49";
    object      phi;
}
// * * * * * * * * * * * * * * * * * * * * * * * * * * * * * * * * * * * * * //

dimensions      [0 3 -1 0 0 0 0];

internalField   nonuniform List<scalar> 
3880
(
-1.7976e-05
1.79757e-05
3.56908e-10
-5.34939e-05
3.5517e-05
8.92226e-10
-9.53864e-05
4.18912e-05
1.30293e-09
-0.000136589
4.12006e-05
1.61235e-09
-0.00017274
3.61498e-05
1.84589e-09
-0.00020143
2.8688e-05
2.02838e-09
-0.000221726
2.02934e-05
2.1823e-09
-0.000233865
1.21368e-05
2.32782e-09
-0.000239055
5.18734e-06
2.48352e-09
2.19496e-07
2.6676e-09
-0.000239277
-1.72975e-05
3.52731e-05
-5.08454e-05
6.90648e-05
-8.96149e-05
8.06607e-05
-0.000126654
7.82395e-05
-0.000157643
6.71388e-05
-0.000180137
5.11824e-05
-0.000193117
3.32736e-05
-0.000196722
1.57411e-05
-0.000192102
5.67615e-07
-1.0609e-05
-0.000181274
-1.59051e-05
5.11782e-05
-4.54317e-05
9.85914e-05
-7.78682e-05
0.000113097
-0.000106532
0.000106903
-0.000127229
8.78356e-05
-0.000137483
6.14368e-05
-0.000136118
3.19086e-05
-0.000123064
2.68762e-06
-9.93376e-05
-2.31592e-05
-4.29417e-05
-6.70049e-05
-1.37115e-05
6.48897e-05
-3.69708e-05
0.000121851
-5.96377e-05
0.000135764
-7.55367e-05
0.000122802
-8.07746e-05
9.30735e-05
-7.29307e-05
5.35929e-05
-5.06542e-05
9.63208e-06
-1.35603e-05
-3.44063e-05
3.76048e-05
-7.43244e-05
-0.000106088
0.000100751
-1.05536e-05
7.54433e-05
-2.49452e-05
0.000136242
-3.39537e-05
0.000144773
-3.22509e-05
0.000121099
-1.65509e-05
7.73735e-05
1.52727e-05
2.17693e-05
6.46298e-05
-3.97251e-05
0.000132283
-0.000102059
0.000217953
-0.000159994
-0.000207778
0.000319643
-6.17986e-06
8.16231e-05
-8.56613e-06
0.000138629
7.20954e-07
0.000135486
2.57465e-05
9.60736e-05
6.87373e-05
3.43828e-05
0.000131057
-4.05504e-05
0.00021379
-0.000122458
0.000317945
-0.000206215
0.000443944
-0.000285993
-0.000353892
0.000590058
-2.78664e-07
8.19018e-05
1.31417e-05
0.000125208
4.63784e-05
0.000102249
0.000101846
4.06062e-05
0.000180191
-4.39627e-05
0.000281301
-0.00014166
0.000405091
-0.000246248
0.000552116
-0.00035324
0.000723461
-0.000457338
-0.000548656
0.000918225
7.4337e-06
7.44681e-05
4.10609e-05
9.1581e-05
0.000104944
3.83657e-05
0.000199677
-5.41267e-05
0.000323967
-0.000168253
0.00047544
-0.000293134
0.000651482
-0.00042229
0.000850387
-0.000552145
0.00107262
-0.000679574
-0.000797592
0.00132156
1.70652e-05
5.74029e-05
7.55053e-05
3.31409e-05
0.000177309
-6.3438e-05
0.000321562
-0.00019838
0.000505317
-0.000352007
0.000723807
-0.000511624
0.000970759
-0.000669241
0.00123936
-0.000820746
0.00152585
-0.000966063
-0.00111589
0.00184415
2.83501e-05
2.90527e-05
0.00011556
-5.40688e-05
0.000261834
-0.000209712
0.000465769
-0.000402316
0.000724577
-0.000610815
0.00103379
-0.000820838
0.00138662
-0.00102207
0.00177226
-0.00120639
0.00217501
-0.00136882
-0.00151335
0.00257247
4.04746e-05
-1.14219e-05
0.000158374
-0.000171968
0.000352086
-0.000403424
0.000620348
-0.000670578
0.000962542
-0.000953009
0.00137936
-0.00123766
0.00187407
-0.00151677
0.00245575
-0.00178807
0.00314734
-0.00206042
-0.00237218
0.00400617
5.2359e-05
-6.37809e-05
0.000199953
-0.000319562
0.000438003
-0.000641474
0.000762998
-0.000995573
0.00117226
-0.00136227
0.00166392
-0.00172932
0.00223691
-0.00208976
0.00289038
-0.00244154
0.00361882
-0.00278886
-0.00314078
0.00438742
6.34846e-05
-0.000127266
0.00023825
-0.000494327
0.000514862
-0.000918086
0.00088531
-0.00136602
0.00134183
-0.00181879
0.0018763
-0.00226379
0.00247952
-0.00269297
0.00313969
-0.00310171
0.00383825
-0.00348742
-0.00384398
0.00454145
7.38713e-05
-0.000201137
0.000272988
-0.000693444
0.00058212
-0.00122722
0.000987485
-0.00177139
0.00147521
-0.00230652
0.0020307
-0.00281927
0.00263815
-0.00330043
0.00327987
-0.00374342
0.00393458
-0.00414213
-0.00448536
0.00457596
8.36625e-05
-0.000284799
0.000304313
-0.000914094
0.000640047
-0.00156295
0.00107069
-0.00220203
0.00157622
-0.00281205
0.00213646
-0.00337951
0.0027312
-0.00389518
0.00334036
-0.00435258
0.0039438
-0.00474557
-0.00506325
0.00452169
9.2848e-05
-0.000377647
0.000331966
-0.00115321
0.000688071
-0.00191906
0.00113437
-0.00264833
0.00164513
-0.00332281
0.00219582
-0.0039302
0.00276372
-0.00446308
0.00332854
-0.0049174
0.00387285
-0.00528988
-0.00557322
0.00438282
0.000101184
-0.000478832
0.000355066
-0.00140709
0.000724484
-0.00228847
0.00117614
-0.00309998
0.00167935
-0.00382603
0.00220662
-0.00445746
0.00273444
-0.00499089
0.00324398
-0.00542694
0.00372141
-0.00576732
-0.00601042
0.00415861
0.000108241
-0.000587073
0.000372269
-0.00167112
0.000746862
-0.00266307
0.0011927
-0.00354582
0.00167529
-0.00430862
0.00216569
-0.00494787
0.00264125
-0.00546645
0.0030859
-0.00587159
0.00349007
-0.00617148
-0.00637123
0.00385088
0.000113496
-0.000700569
0.00038206
-0.00193969
0.000752694
-0.0030337
0.00118098
-0.00397411
0.00163007
-0.00475771
0.00207123
-0.00538903
0.00248414
-0.00587936
0.00285648
-0.00624392
0.00318316
-0.00649817
-0.00665404
0.00346597
0.000116416
-0.000816984
0.000383025
-0.00220629
0.000739894
-0.00339057
0.0011389
-0.00437312
0.00154253
-0.00516133
0.00192389
-0.00577039
0.00226619
-0.00622166
0.00256142
-0.00653916
0.00280888
-0.00674562
-0.00685928
0.00301412
0.000116537
-0.000933521
0.00037406
-0.00246382
0.000707144
-0.00372366
0.00106577
-0.00473174
0.00141354
-0.00550911
0.00172689
-0.00608374
0.00199335
-0.00648812
0.00220937
-0.00675518
0.00237812
-0.00691437
-0.00698915
0.002508
0.000113457
-0.00104698
0.000354398
-0.00270476
0.000653935
-0.00402319
0.000962217
-0.00504002
0.00124578
-0.00579268
0.00148545
-0.00632341
0.00167352
-0.00667618
0.0018106
-0.00689226
0.00190303
-0.00700681
-0.00704716
0.00196104
0.000106917
-0.00115389
0.000323755
-0.0029216
0.000580684
-0.00428012
0.000830232
-0.00528957
0.00104342
-0.00600587
0.00120625
-0.00648624
0.0013157
-0.00678563
0.001376
-0.00695256
0.00139579
-0.0070266
-0.0070376
0.00138624
9.67702e-05
-0.00125067
0.000282254
-0.00310708
0.000488542
-0.00448641
0.000672711
-0.00547374
0.000811536
-0.00614469
0.000896523
-0.00657123
0.000928984
-0.00681809
0.000915978
-0.00693956
0.000867563
-0.00697818
-0.00696517
0.000795128
8.29983e-05
-0.00133366
0.000230411
-0.00325449
0.000379273
-0.00463527
0.000493178
-0.00558764
0.000555544
-0.00620706
0.000563393
-0.00657908
0.000521775
-0.00677647
0.000439701
-0.00685748
0.00032782
-0.0068663
-0.00683459
0.000197247
6.57186e-05
-0.00139938
0.00016911
-0.00335789
0.000255133
-0.00472129
0.00029552
-0.00562803
0.00028084
-0.00619238
0.000213372
-0.00651161
0.000101239
-0.00666434
-4.5437e-05
-0.00671081
-0.000216164
-0.00669557
-0.00665045
-0.000400306
4.52018e-05
-0.00144458
9.96137e-05
-0.0034123
0.000118829
-0.00474051
8.38905e-05
-0.00559309
-7.36804e-06
-0.00610112
-0.000147835
-0.00637114
-0.000326934
-0.00648524
-0.000534093
-0.00650365
-0.000759588
-0.00647008
-0.00641654
-0.000993504
2.18975e-05
-0.00146648
2.35913e-05
-0.00341399
-2.64508e-05
-0.00469047
-0.000137247
-0.00548229
-0.000303966
-0.0059344
-0.000515213
-0.0061599
-0.000758418
-0.00624203
-0.00102295
-0.00623912
-0.00130036
-0.00619266
-0.00613332
-0.00158358
-3.52383e-06
-0.00146296
-5.67995e-05
-0.00336072
-0.000176918
-0.00457035
-0.000362961
-0.00529625
-0.000603849
-0.00569351
-0.000884693
-0.00587905
-0.00119127
-0.00593546
-0.00151273
-0.00591766
-0.00184204
-0.00586335
-0.00579383
-0.00218153
-3.01076e-05
-0.00143285
-0.000138738
-0.00325208
-0.000327726
-0.00438136
-0.000586877
-0.0050371
-0.00090037
-0.00538002
-0.0012516
-0.00552782
-0.00162603
-0.00556103
-0.00201327
-0.00553043
-0.00240933
-0.00546728
-0.00540647
-0.00279669
-5.66203e-05
-0.00137623
-0.000218705
-0.00309
-0.000472465
-0.0041276
-0.00079908
-0.00471049
-0.00117942
-0.00499968
-0.00159758
-0.00510967
-0.00204225
-0.00511636
-0.00250616
-0.00506651
-0.00298843
-0.00498502
-0.00486994
-0.00352496
-8.19861e-05
-0.00129424
-0.000293656
-0.00287833
-0.000605384
-0.00381587
-0.000989448
-0.00432642
-0.00142231
-0.00456682
-0.00188592
-0.00464606
-0.00236727
-0.004635
-0.00285739
-0.00457639
-0.00335011
-0.00449231
-0.00439084
-0.0038292
-0.000105567
-0.00118868
-0.00036221
-0.00262169
-0.000725122
-0.00345296
-0.0011583
-0.00389324
-0.00163423
-0.00409089
-0.00213319
-0.0041471
-0.00264174
-0.00412645
-0.0031509
-0.00406724
-0.00365346
-0.00398974
-0.00390445
-0.00413984
-0.000127019
-0.00106166
-0.000423779
-0.00232493
-0.000831571
-0.00304517
-0.00130721
-0.0034176
-0.00182015
-0.00357795
-0.00234994
-0.00361731
-0.00288351
-0.00359288
-0.00341269
-0.00353806
-0.00393191
-0.00347052
-0.00339976
-0.0044366
-0.000146081
-0.000915576
-0.00047793
-0.00199308
-0.00092455
-0.00259855
-0.00143676
-0.0029054
-0.0019818
-0.0030329
-0.00253907
-0.00306004
-0.00309627
-0.00303569
-0.00364639
-0.00298793
-0.00418547
-0.00293145
-0.00287403
-0.0047112
-0.000162504
-0.000753072
-0.000524205
-0.00163138
-0.00100363
-0.00211913
-0.00154671
-0.00236232
-0.00211914
-0.00246047
-0.00270043
-0.00247875
-0.00327912
-0.00245699
-0.0038493
-0.00241775
-0.00440816
-0.00237259
-0.00232762
-0.00495457
-0.000176039
-0.000577033
-0.000562094
-0.00124532
-0.00106815
-0.00161307
-0.00163633
-0.00179414
-0.00223122
-0.00186558
-0.00283257
-0.00187741
-0.00342968
-0.00185988
-0.00401747
-0.00182995
-0.00459391
-0.00179615
-0.00176296
-0.00515857
-0.000186443
-0.00039059
-0.000591077
-0.000840688
-0.00111738
-0.00108677
-0.00170467
-0.00120685
-0.00231678
-0.00125346
-0.0029337
-0.00126049
-0.00354531
-0.00124828
-0.00414715
-0.00122812
-0.00473767
-0.00120563
-0.00118374
-0.00531689
-0.000193509
-0.000197082
-0.000610691
-0.000423506
-0.00115064
-0.00054682
-0.00175082
-0.00060667
-0.0023746
-0.000629677
-0.00300215
-0.000632939
-0.00362375
-0.000626682
-0.00423532
-0.000616546
-0.00483563
-0.000605314
-0.000594446
-0.00542493
-0.000197082
3.0887e-10
-0.000620589
6.73708e-10
-0.00116741
8.67814e-10
-0.00177408
9.55117e-10
-0.00240376
9.79991e-10
-0.0030367
9.69248e-10
-0.00366338
9.38751e-10
-0.00427993
8.97519e-10
-0.00488524
8.48783e-10
7.91676e-10
-0.00547969
-0.000197082
0.000197082
-0.000620589
0.000423508
-0.00116741
0.000546821
-0.00177408
0.000606672
-0.00240376
0.000629679
-0.0030367
0.000632941
-0.00366338
0.000626684
-0.00427993
0.000616548
-0.00488524
0.000605316
0.000594448
-0.00547969
-0.000193509
0.000390591
-0.000610691
0.00084069
-0.00115064
0.00108677
-0.00175082
0.00120685
-0.0023746
0.00125346
-0.00300215
0.00126049
-0.00362375
0.00124828
-0.00423532
0.00122812
-0.00483563
0.00120563
0.00118375
-0.00542493
-0.000186443
0.000577034
-0.000591077
0.00124532
-0.00111738
0.00161308
-0.00170467
0.00179414
-0.00231678
0.00186558
-0.0029337
0.00187741
-0.00354531
0.00185989
-0.00414715
0.00182996
-0.00473767
0.00179615
0.00176296
-0.00531689
-0.000176039
0.000753072
-0.000562094
0.00163138
-0.00106815
0.00211913
-0.00163633
0.00236232
-0.00223122
0.00246047
-0.00283257
0.00247876
-0.00342968
0.00245699
-0.00401747
0.00241775
-0.00459391
0.00237259
0.00232762
-0.00515857
-0.000162504
0.000915576
-0.000524205
0.00199308
-0.00100363
0.00259855
-0.00154671
0.0029054
-0.00211914
0.0030329
-0.00270043
0.00306004
-0.00327912
0.00303569
-0.0038493
0.00298793
-0.00440816
0.00293145
0.00287403
-0.00495457
-0.000146081
0.00106166
-0.00047793
0.00232493
-0.00092455
0.00304517
-0.00143675
0.00341761
-0.0019818
0.00357795
-0.00253907
0.00361731
-0.00309627
0.00359288
-0.00364639
0.00353806
-0.00418547
0.00347053
0.00339976
-0.0047112
-0.000127019
0.00118868
-0.000423779
0.00262169
-0.000831571
0.00345296
-0.00130721
0.00389325
-0.00182015
0.00409089
-0.00234994
0.0041471
-0.00288351
0.00412645
-0.00341269
0.00406724
-0.00393191
0.00398975
0.00390446
-0.0044366
-0.000105567
0.00129424
-0.00036221
0.00287833
-0.000725121
0.00381587
-0.0011583
0.00432642
-0.00163423
0.00456682
-0.00213319
0.00464606
-0.00264174
0.004635
-0.0031509
0.00457639
-0.00365346
0.00449231
0.00439084
-0.00413984
-8.1986e-05
0.00137623
-0.000293655
0.00309
-0.000605383
0.0041276
-0.000989448
0.00471049
-0.00142231
0.00499968
-0.00188592
0.00510967
-0.00236727
0.00511636
-0.00285739
0.00506651
-0.0033501
0.00498502
0.00486994
-0.0038292
-5.66202e-05
0.00143285
-0.000218705
0.00325209
-0.000472465
0.00438136
-0.000799079
0.0050371
-0.00117942
0.00538002
-0.00159758
0.00552782
-0.00204225
0.00556103
-0.00250616
0.00553043
-0.00298843
0.00546729
0.00540647
-0.00352496
-3.01076e-05
0.00146296
-0.000138738
0.00336072
-0.000327726
0.00457035
-0.000586877
0.00529625
-0.000900369
0.00569351
-0.0012516
0.00587905
-0.00162603
0.00593546
-0.00201326
0.00591766
-0.00240933
0.00586335
0.00579383
-0.00279669
-3.52379e-06
0.00146648
-5.67994e-05
0.00341399
-0.000176918
0.00469047
-0.00036296
0.0054823
-0.000603849
0.0059344
-0.000884693
0.0061599
-0.00119127
0.00624203
-0.00151272
0.00623912
-0.00184204
0.00619267
0.00613332
-0.00218153
2.18976e-05
0.00144458
2.35914e-05
0.0034123
-2.64506e-05
0.00474051
-0.000137247
0.00559309
-0.000303966
0.00610112
-0.000515213
0.00637114
-0.000758418
0.00648524
-0.00102295
0.00650365
-0.00130036
0.00647008
0.00641654
-0.00158358
4.52018e-05
0.00139938
9.96139e-05
0.00335789
0.000118829
0.0047213
8.38908e-05
0.00562803
-7.36762e-06
0.00619238
-0.000147835
0.00651161
-0.000326934
0.00666434
-0.000534092
0.00671081
-0.000759588
0.00669557
0.00665045
-0.000993503
6.57187e-05
0.00133366
0.000169111
0.00325449
0.000255133
0.00463527
0.00029552
0.00558764
0.00028084
0.00620706
0.000213373
0.00657908
0.000101239
0.00677647
-4.54363e-05
0.00685749
-0.000216163
0.0068663
0.00683459
-0.000400305
8.29983e-05
0.00125067
0.000230411
0.00310708
0.000379273
0.00448641
0.000493178
0.00547374
0.000555544
0.00614469
0.000563393
0.00657123
0.000521776
0.00681809
0.000439702
0.00693956
0.00032782
0.00697818
0.00696517
0.000197248
9.67703e-05
0.00115389
0.000282254
0.0029216
0.000488542
0.00428012
0.000672711
0.00528957
0.000811536
0.00600587
0.000896524
0.00648624
0.000928984
0.00678563
0.000915979
0.00695256
0.000867563
0.0070266
0.0070376
0.000795129
0.000106917
0.00104698
0.000323755
0.00270476
0.000580684
0.00402319
0.000830232
0.00504002
0.00104342
0.00579268
0.00120625
0.00632341
0.0013157
0.00667618
0.001376
0.00689226
0.00139579
0.00700681
0.00704716
0.00138624
0.000113457
0.000933521
0.000354398
0.00246382
0.000653936
0.00372366
0.000962217
0.00473174
0.00124578
0.00550911
0.00148546
0.00608374
0.00167352
0.00648812
0.0018106
0.00675518
0.00190303
0.00691437
0.00698915
0.00196104
0.000116537
0.000816984
0.00037406
0.00220629
0.000707145
0.00339057
0.00106577
0.00437312
0.00141354
0.00516134
0.00172689
0.00577039
0.00199335
0.00622166
0.00220937
0.00653916
0.00237812
0.00674562
0.00685928
0.002508
0.000116416
0.000700569
0.000383026
0.00193969
0.000739894
0.0030337
0.0011389
0.00397411
0.00154253
0.00475771
0.00192389
0.00538903
0.00226619
0.00587936
0.00256143
0.00624393
0.00280888
0.00649817
0.00665404
0.00301412
0.000113496
0.000587073
0.00038206
0.00167112
0.000752695
0.00266307
0.00118098
0.00354582
0.00163007
0.00430862
0.00207123
0.00494787
0.00248414
0.00546645
0.00285648
0.00587159
0.00318316
0.00617148
0.00637123
0.00346597
0.000108241
0.000478832
0.000372269
0.00140709
0.000746862
0.00228847
0.0011927
0.00309998
0.00167529
0.00382603
0.00216569
0.00445747
0.00264125
0.00499089
0.0030859
0.00542694
0.00349007
0.00576732
0.00601042
0.00385088
0.000101184
0.000377647
0.000355066
0.00115321
0.000724484
0.00191906
0.00117614
0.00264833
0.00167935
0.00332281
0.00220662
0.0039302
0.00273444
0.00446308
0.00324398
0.0049174
0.00372141
0.00528988
0.00557322
0.00415861
9.28481e-05
0.000284799
0.000331966
0.000914093
0.000688071
0.00156295
0.00113437
0.00220203
0.00164513
0.00281205
0.00219582
0.00337951
0.00276372
0.00389518
0.00332855
0.00435258
0.00387285
0.00474557
0.00506325
0.00438282
8.36626e-05
0.000201137
0.000304313
0.000693443
0.000640047
0.00122722
0.00107069
0.00177139
0.00157622
0.00230652
0.00213646
0.00281927
0.0027312
0.00330043
0.00334036
0.00374342
0.0039438
0.00414213
0.00448536
0.00452169
7.38713e-05
0.000127265
0.000272988
0.000494327
0.00058212
0.000918085
0.000987485
0.00136602
0.00147521
0.00181879
0.0020307
0.00226379
0.00263815
0.00269297
0.00327987
0.00310171
0.00393458
0.00348742
0.00384398
0.00457596
6.34846e-05
6.37807e-05
0.00023825
0.000319562
0.000514862
0.000641474
0.000885311
0.000995572
0.00134183
0.00136227
0.0018763
0.00172932
0.00247952
0.00208976
0.00313969
0.00244154
0.00383825
0.00278886
0.00314078
0.00454145
5.2359e-05
1.14217e-05
0.000199953
0.000171967
0.000438003
0.000403423
0.000762998
0.000670577
0.00117226
0.000953009
0.00166392
0.00123766
0.00223691
0.00151677
0.00289038
0.00178807
0.00361882
0.00206042
0.00237218
0.00438742
4.04746e-05
-2.90529e-05
0.000158374
5.40683e-05
0.000352086
0.000209711
0.000620348
0.000402315
0.000962543
0.000610814
0.00137937
0.000820838
0.00187407
0.00102207
0.00245575
0.00120639
0.00314735
0.00136882
0.00151335
0.00400617
2.83502e-05
-5.74031e-05
0.00011556
-3.31415e-05
0.000261834
6.34371e-05
0.00046577
0.000198379
0.000724578
0.000352006
0.00103379
0.000511623
0.00138662
0.00066924
0.00177226
0.000820745
0.00217502
0.000966062
0.00111589
0.00257248
1.70653e-05
-7.44684e-05
7.55054e-05
-9.15817e-05
0.000177309
-3.83668e-05
0.000321563
5.41254e-05
0.000505318
0.000168251
0.000723808
0.000293133
0.00097076
0.000422288
0.00123936
0.000552144
0.00152585
0.000679573
0.00079759
0.00184415
7.43375e-06
-8.19021e-05
4.10611e-05
-0.000125209
0.000104944
-0.00010225
0.000199677
-4.06077e-05
0.000323968
4.3961e-05
0.000475442
0.000141659
0.000651484
0.000246246
0.00085039
0.000353238
0.00107263
0.000457336
0.000548654
0.00132156
-2.78599e-07
-8.16235e-05
1.31419e-05
-0.00013863
4.63789e-05
-0.000135487
0.000101847
-9.60754e-05
0.000180192
-3.43849e-05
0.000281303
4.05482e-05
0.000405093
0.000122456
0.000552119
0.000206212
0.000723464
0.000285991
0.000353889
0.000918229
-6.17979e-06
-7.54438e-05
-8.56588e-06
-0.000136243
7.21468e-07
-0.000144774
2.57474e-05
-0.000121101
6.87385e-05
-7.7376e-05
0.000131059
-2.1772e-05
0.000213792
3.97222e-05
0.000317948
0.000102056
0.000443948
0.000159991
0.000207775
0.000590062
-1.05535e-05
-6.48903e-05
-2.49449e-05
-0.000121852
-3.39532e-05
-0.000135766
-3.22501e-05
-0.000122804
-1.65497e-05
-9.30764e-05
1.52743e-05
-5.3596e-05
6.46319e-05
-9.63544e-06
0.000132286
3.44027e-05
0.000217956
7.43206e-05
0.000106084
0.000319647
-1.37115e-05
-5.11788e-05
-3.69706e-05
-9.8593e-05
-5.96373e-05
-0.0001131
-7.5536e-05
-0.000106906
-8.07736e-05
-8.78388e-05
-7.29293e-05
-6.14403e-05
-5.06524e-05
-3.19123e-05
-1.3558e-05
-2.69163e-06
3.76076e-05
2.3155e-05
4.29371e-05
0.000100754
-1.5905e-05
-3.52738e-05
-4.54315e-05
-6.90665e-05
-7.78679e-05
-8.06632e-05
-0.000106531
-7.82425e-05
-0.000127228
-6.71423e-05
-0.000137482
-5.11862e-05
-0.000136116
-3.32777e-05
-0.000123063
-1.57454e-05
-9.93354e-05
-5.72269e-07
1.0604e-05
-6.70023e-05
-1.72974e-05
-1.79764e-05
-5.08452e-05
-3.55187e-05
-8.96146e-05
-4.18938e-05
-0.000126653
-4.12038e-05
-0.000157642
-3.61535e-05
-0.000180137
-2.8692e-05
-0.000193116
-2.02977e-05
-0.000196721
-1.21414e-05
-0.000192101
-5.19222e-06
-2.24748e-07
-0.000181272
-1.7976e-05
-5.34939e-05
-9.53863e-05
-0.000136589
-0.00017274
-0.00020143
-0.000221726
-0.000233865
-0.000239054
-0.000239277
0.000183652
-0.000423015
8.64404e-08
0.00132172
-0.00113802
-4.13854e-08
0.00248545
-0.00116344
-2.94269e-07
0.00323247
-0.000746783
-2.36649e-07
0.0038522
-0.000619845
1.17505e-07
0.00428047
-0.00042859
3.18834e-07
0.00462444
-0.000344561
5.95912e-07
0.00485627
-0.000232257
4.26976e-07
0.00506556
-0.000208914
-3.79217e-07
-0.000123819
-4.153e-07
0.00029533
-0.000899618
0.00140412
-0.00224681
0.00254157
-0.00230089
0.00327203
-0.00147725
0.00388021
-0.00122803
0.00430184
-0.000850221
0.00464165
-0.000684372
0.0048717
-0.000462313
0.00508023
-0.000417437
-0.000249104
0.000511528
-0.00147815
0.00156325
-0.00329854
0.00264959
-0.00338722
0.00334817
-0.00217583
0.00393416
-0.00181402
0.00434313
-0.00125919
0.00467509
-0.00101633
0.00490191
-0.000689135
0.00510913
-0.000624655
-0.000376619
0.000818389
-0.00219579
0.00178823
-0.00426838
0.00280146
-0.00440045
0.00345522
-0.00282959
0.0040101
-0.0023689
0.0044016
-0.0016507
0.00472287
-0.00133759
0.0049456
-0.000911864
0.00515143
-0.000830489
-0.000507812
0.00119634
-0.00307249
0.00206376
-0.0051358
0.00298589
-0.00532258
0.00358518
-0.00342888
0.00410245
-0.00288617
0.00447333
-0.00202158
0.00478229
-0.00164655
0.00500091
-0.00113049
0.00520593
-0.0010355
-0.000644497
0.00162132
-0.00410375
0.00237127
-0.00588574
0.00318924
-0.00614055
0.00372839
-0.00396803
0.00420441
-0.00336219
0.00455353
-0.0023707
0.00485001
-0.00194303
0.00506553
-0.001346
0.00527108
-0.00124105
-0.000788937
0.00206528
-0.0052508
0.00268958
-0.00651005
0.0033963
-0.00684728
0.00387409
-0.00444582
0.00430844
-0.00379654
0.00463682
-0.00269908
0.00492226
-0.00222847
0.00513679
-0.00156054
0.00534509
-0.00144934
-0.000943898
0.00249788
-0.00642712
0.00299562
-0.00700779
0.0035911
-0.00744276
0.0040111
-0.00486582
0.00440666
-0.0041921
0.00471755
-0.00300997
0.004995
-0.00250591
0.00521182
-0.00177737
0.00542597
-0.00166349
-0.00111266
0.00290155
-0.00748452
0.00327047
-0.00737671
0.00375958
-0.00793186
0.00412895
-0.0052352
0.00449159
-0.00455473
0.00479019
-0.00330857
0.0050642
-0.00277993
0.00528765
-0.00200082
0.00551163
-0.00188746
-0.00129901
0.00328105
-0.0081931
0.00351246
-0.00760812
0.00389089
-0.00831029
0.00422035
-0.00556467
0.00455649
-0.00489087
0.00484982
-0.00360189
0.00512587
-0.00305598
0.00536156
-0.00223651
0.00559958
-0.00212548
-0.00150769
0.0432804
-0.00091495
-0.0505586
0.0390639
-0.00339163
0.0369859
-0.00623228
0.0367999
-0.0053786
0.0366529
-0.00474392
0.0368184
-0.00376733
0.0370083
-0.00324588
0.0372615
-0.0024898
0.0374717
-0.00233567
-0.00179612
0.0523393
0.00331335
-0.0565676
0.050143
-0.0011953
0.0475496
-0.00363888
0.0460087
-0.00383777
0.0448013
-0.00353652
0.0439753
-0.00294127
0.0433278
-0.00259843
0.0429098
-0.00207173
0.0425081
-0.00193404
-0.00160332
0.0539042
0.00452433
-0.0551151
0.0526219
8.69177e-05
0.0510056
-0.0020226
0.0496962
-0.00252835
0.0485976
-0.00243795
0.0477379
-0.00208154
0.0469854
-0.00184596
0.0464229
-0.00150921
0.0458665
-0.00137763
-0.0012214
0.0520607
0.00437458
-0.051911
0.0516518
0.000495899
0.0508184
-0.00118923
0.0499789
-0.00168886
0.0492357
-0.00169472
0.0486346
-0.00148045
0.0480834
-0.00129479
0.0476472
-0.001073
0.0472089
-0.000939335
-0.000871638
0.0500075
0.00369123
-0.0493241
0.04988
0.000623356
0.049457
-0.000766191
0.048954
-0.00118593
0.0484825
-0.00122316
0.0480979
-0.0010959
0.047748
-0.000944825
0.0474632
-0.000788197
0.0471857
-0.00066188
-0.000622725
0.0483083
0.00289058
-0.0475076
0.0483335
0.000598152
0.048082
-0.000514721
0.0477506
-0.000854534
0.0474258
-0.000898345
0.0471562
-0.000826294
0.0469222
-0.000710875
0.0467301
-0.000596046
0.0465577
-0.000489497
-0.000455591
0.0470996
0.00210092
-0.0463099
0.0471934
0.000504302
0.0470188
-0.000340042
0.0467671
-0.000602873
0.0465112
-0.000642417
0.0462894
-0.000604511
0.0461031
-0.000524591
0.0459494
-0.000442345
0.0458222
-0.000362267
-0.000331152
0.0462851
0.00136199
-0.0455462
0.0464294
0.000360073
0.0462959
-0.000206524
0.0460799
-0.000386915
0.0458537
-0.000416228
0.0456481
-0.00039893
0.0454741
-0.000350564
0.0453292
-0.000297415
0.0452118
-0.000244925
-0.000220909
0.0457885
0.0006686
-0.0450952
0.0459648
0.000183847
0.0458571
-9.88502e-05
0.0456577
-0.00018754
0.045444
-0.000202552
0.0452433
-0.000198145
0.0450689
-0.000176167
0.0449221
-0.000150628
0.0448013
-0.00012414
-0.000111692
0.0455539
-0.0448853
0.0457378
0.0456389
0.0454514
0.0452489
0.0450507
0.0448745
0.0447239
0.0445998
0.0567753
0.00230159
-0.0560628
0.0573297
0.00291155
0.0576775
0.00350309
0.0577689
0.00406718
0.0575572
0.00459457
0.0570024
0.00507648
0.0560732
0.00550516
0.0547401
0.00587452
0.0529479
0.00617966
0.00639547
0.0513979
0.0016929
-0.0507892
0.0520516
0.00225784
0.0527363
0.00281842
0.0534339
0.00336955
0.054123
0.0039055
0.0547794
0.00442007
0.0553778
0.00490679
0.055893
0.00535932
0.0563007
0.00577189
0.00612861
0.0480918
0.001218
-0.0476169
0.0486477
0.00170197
0.0492813
0.00218477
0.0499873
0.00266352
0.0507578
0.00313508
0.0515819
0.00359596
0.0524463
0.00404234
0.0533356
0.00447004
0.054233
0.00487455
0.00524643
0.0454945
0.000891388
-0.0451679
0.0459013
0.00129521
0.0463888
0.00169728
0.0469569
0.00209538
0.0476048
0.00248723
0.0483302
0.00287049
0.0491298
0.00324277
0.0499983
0.00360155
0.0509288
0.00394404
0.00426425
0.0439058
0.000651555
-0.043666
0.0442197
0.000981276
0.0446079
0.00130912
0.0450701
0.00163321
0.0456056
0.0019517
0.0462134
0.0022627
0.0468918
0.00256437
0.0476385
0.0028548
0.0484507
0.00313191
0.00339081
0.0428101
0.000469381
-0.0426279
0.0430622
0.00072912
0.0433843
0.000987089
0.0437757
0.00124177
0.0442357
0.00149166
0.0447632
0.00173527
0.0453564
0.00197112
0.0460135
0.00219774
0.0467319
0.00241351
0.00261507
0.0421162
0.000324609
-0.0419714
0.0423279
0.000517448
0.0426061
0.000708873
0.0429501
0.000897732
0.0433589
0.00108288
0.043831
0.00126319
0.0443646
0.00143753
0.0449575
0.00160482
0.0456072
0.00176384
0.00191231
0.0416643
0.000203997
-0.0415437
0.04185
0.000331706
0.0421004
0.000458459
0.0424147
0.000583482
0.0427916
0.000706007
0.0432295
0.000825274
0.0437265
0.000940536
0.0442802
0.00105105
0.044888
0.00115604
0.00125414
0.0413996
9.81595e-05
-0.0412938
0.0415695
0.000161807
0.041803
0.000224995
0.0420991
0.000287333
0.0424567
0.000348437
0.0428741
0.000407921
0.0433492
0.00046541
0.0438797
0.000520532
0.0444629
0.000572894
0.000621855
0.0412742
-0.041176
0.041436
0.041661
0.0419483
0.0422967
0.0427047
0.0431701
0.0436906
0.0442635
0.0481094
-0.00335374
-0.0475524
0.0488228
-0.0028949
0.0496454
-0.00240622
0.0505376
-0.00188565
0.0514714
-0.00133414
0.0524282
-0.000759598
0.0533899
-0.000166529
0.0543348
0.000441376
0.0552364
0.00105937
0.00168168
0.0479852
-0.00340684
-0.0479321
0.0480815
-0.0029912
0.0482205
-0.00254526
0.0484082
-0.0020733
0.0486505
-0.00157645
0.0489517
-0.0010608
0.0493152
-0.000530092
0.0497433
1.33552e-05
0.0502356
0.000567051
0.00112803
0.046897
-0.0031475
-0.0471564
0.0466931
-0.00278731
0.0465499
-0.00240198
0.0464725
-0.00199591
0.0464672
-0.00157118
0.0465376
-0.0011312
0.046686
-0.000678484
0.0469144
-0.000215037
0.0472244
0.000257055
0.000735531
0.0455818
-0.00277137
-0.0459579
0.0452636
-0.00246906
0.0450067
-0.0021451
0.0448147
-0.00180392
0.0446909
-0.00144742
0.0446377
-0.00107801
0.044657
-0.000697773
0.0447507
-0.000308668
0.0449204
8.72974e-05
0.000488033
0.0446599
-0.0023496
-0.0450817
0.044292
-0.00210111
0.0439823
-0.00183548
0.0437342
-0.00155579
0.0435504
-0.00126363
0.0434333
-0.000960851
0.0433847
-0.0006492
0.0434064
-0.000330368
0.0434998
-6.0969e-06
0.000321822
0.0439897
-0.00190031
-0.0444389
0.0435923
-0.0017038
0.0432508
-0.00149397
0.0429681
-0.00127309
0.0427469
-0.00104239
0.0425893
-0.000803272
0.0424973
-0.000557124
0.0424722
-0.000305338
0.0425155
-4.93438e-05
0.000209395
0.043559
-0.00143593
-0.0440234
0.043145
-0.00128981
0.042785
-0.00113398
0.0424818
-0.000969929
0.042238
-0.000798573
0.0420557
-0.000620927
0.0419366
-0.000438029
0.0418822
-0.00025093
0.0418936
-6.07143e-05
0.00013151
0.0432802
-0.00096146
-0.0437547
0.0428551
-0.000864766
0.0424828
-0.000761684
0.0421661
-0.000653144
0.0419072
-0.000539752
0.0417085
-0.000422168
0.0415715
-0.000301077
0.0414978
-0.000177182
0.0414883
-5.12072e-05
7.61058e-05
0.0431193
-0.000481536
-0.0435992
0.042688
-0.000433515
0.0423086
-0.000382322
0.0419839
-0.000328399
0.0417162
-0.000272044
0.0415076
-0.00021358
0.0413599
-0.000153344
0.0412744
-9.16867e-05
0.0412521
-2.89681e-05
3.44405e-05
0.0430454
-0.043527
0.0426119
0.0422296
0.0419012
0.0416291
0.0414156
0.0412622
0.0411705
0.0411416
0.0429475
0.000174631
-0.000193169
0.0429914
0.000521277
-0.0005652
0.0430658
0.000872672
-0.000947118
0.0431884
0.001237
-0.00135953
0.043389
0.00161961
-0.00182026
0.0437114
0.00202475
-0.0023471
0.0442143
0.00245453
-0.0029574
0.0449695
0.00291137
-0.00366664
0.0460712
0.00337131
-0.00447302
0.00392367
-0.00540479
0.0429657
0.000137881
0.0430729
0.000414036
0.043254
0.000691549
0.0435194
0.000971604
0.043884
0.00125501
0.0443668
0.00154202
0.0449896
0.00183167
0.0457769
0.00212407
0.0467446
0.00240364
0.00273618
0.0429665
0.000100273
0.0430779
0.000302718
0.0432627
0.000506706
0.0435251
0.000709228
0.0438707
0.000909386
0.0443068
0.00110588
0.0448419
0.00129664
0.045486
0.00147994
0.0462438
0.00164581
0.00182364
0.0429586
7.05596e-05
0.0430476
0.000213752
0.043196
0.000358308
0.0434046
0.000500638
0.0436744
0.000639537
0.0440066
0.00077371
0.0444017
0.000901585
0.0448597
0.00102196
0.0453756
0.00112982
0.00124134
0.0429506
4.88963e-05
0.0430161
0.000148279
0.0431258
0.000248594
0.0432795
0.000346946
0.0434767
0.000442276
0.0437169
0.000533534
0.0439989
0.000619578
0.0443214
0.00069948
0.0446808
0.000770447
0.000840429
0.0429445
3.33082e-05
0.0429918
0.00010102
0.043071
0.000169336
0.0431818
0.000236202
0.0433232
0.000300844
0.0434942
0.000362523
0.0436933
0.000420496
0.0439186
0.00047417
0.044167
0.000522072
0.000568469
0.0429403
2.19176e-05
0.0429749
6.64643e-05
0.0430328
0.000111389
0.0431137
0.000155332
0.0432168
0.000197772
0.0433411
0.000238219
0.0434854
0.000276196
0.0436482
0.000311314
0.0438276
0.000342743
0.000372649
0.0429376
1.32771e-05
0.0429638
4.02498e-05
0.0430077
6.74382e-05
0.043069
9.40334e-05
0.0431471
0.000119721
0.0432411
0.000144211
0.0433501
0.000167225
0.0434728
0.000188539
0.0436079
0.000207717
0.000225865
0.0429359
6.2614e-06
0.0429572
1.89823e-05
0.0429929
3.17944e-05
0.0430426
4.43276e-05
0.0431058
5.64356e-05