/*--------------------------------*- C++ -*----------------------------------*\
  =========                 |
  \\      /  F ield         | OpenFOAM: The Open Source CFD Toolbox
   \\    /   O peration     | Website:  https://openfoam.org
    \\  /    A nd           | Version:  6.0
     \\/     M anipulation  |
\*---------------------------------------------------------------------------*/
FoamFile
{
    version     2.0;
    format      ascii;
    class       volVectorField;
    location    "49";
    object      U;
}
// * * * * * * * * * * * * * * * * * * * * * * * * * * * * * * * * * * * * * //

dimensions      [0 1 -1 0 0 0 0];

internalField   nonuniform List<vector> 
2000
(
(-0.00199123 0.00173829 5.72905e-20)
(-0.00762161 0.00330238 6.80435e-20)
(-0.0153302 0.00366156 -6.48686e-20)
(-0.0223325 0.00333717 -1.32366e-19)
(-0.0276805 0.00263947 -9.24646e-20)
(-0.0312215 0.00177158 1.23182e-19)
(-0.0330529 0.000878904 7.17501e-20)
(-0.0334438 6.81253e-05 -2.90252e-20)
(-0.0328263 -0.000581629 -7.24576e-20)
(-0.0314953 -0.00100648 5.28312e-20)
(-0.0024897 0.00512126 -1.42007e-19)
(-0.00837069 0.00968531 1.96038e-19)
(-0.0157252 0.0106972 1.95486e-20)
(-0.0220251 0.00969696 -1.13553e-19)
(-0.0264595 0.00759765 5.43362e-19)
(-0.0289518 0.00499611 -2.3914e-19)
(-0.0296477 0.00232065 -2.58719e-19)
(-0.0288425 -0.000110436 3.12047e-19)
(-0.0269847 -0.00205542 -3.07752e-19)
(-0.0244467 -0.00332185 1.55256e-19)
(-0.00343575 0.00822484 2.35849e-20)
(-0.0097281 0.0154094 8.3883e-21)
(-0.0163015 0.0168858 5.87521e-19)
(-0.0211437 0.0151398 2.06097e-19)
(-0.0237176 0.0116328 4.08758e-20)
(-0.0240982 0.0073163 3.38024e-19)
(-0.0225238 0.00287626 -6.42033e-19)
(-0.0193385 -0.00116456 1.39246e-20)
(-0.0150201 -0.00438938 -3.79653e-19)
(-0.0101029 -0.00647461 4.18233e-19)
(-0.00472404 0.010868 -4.43656e-20)
(-0.0114034 0.0200601 2.55243e-19)
(-0.0166177 0.0217187 -7.4366e-19)
(-0.0191362 0.0191488 -9.6125e-20)
(-0.018832 0.014267 -5.47359e-19)
(-0.0160035 0.00831109 5.66879e-19)
(-0.0110227 0.00217565 -6.01282e-19)
(-0.00429639 -0.00343019 4.22271e-19)
(0.00366297 -0.00789668 1.77524e-19)
(0.0120634 -0.0107647 -2.00599e-19)
(-0.00618706 0.0128748 -4.93791e-19)
(-0.0129399 0.0232572 4.45595e-21)
(-0.0159822 0.0247662 9.16082e-19)
(-0.0151343 0.0213424 2.74638e-19)
(-0.0108145 0.0152248 -8.73251e-19)
(-0.00361573 0.00783498 5.43006e-19)
(0.00591834 0.000195897 6.15487e-19)
(0.017314 -0.00683904 -5.48754e-19)
(0.0300357 -0.0124525 3.91258e-19)
(0.0429237 -0.0160469 9.60781e-20)
(-0.00758376 0.0140743 6.74979e-20)
(-0.0136957 0.0246648 1.25189e-20)
(-0.0134291 0.0257004 -1.17121e-18)
(-0.00792061 0.0215112 -6.55227e-19)
(0.00173575 0.0144918 7.8163e-19)
(0.0145788 0.00611518 -9.15322e-19)
(0.0298497 -0.00259 1.04886e-18)
(0.047009 -0.0107145 -9.05991e-20)
(0.0655397 -0.017249 -2.95079e-19)
(0.0837995 -0.0214704 -8.57628e-19)
(-0.00858781 0.014304 -1.46872e-19)
(-0.0128317 0.0240055 -2.6825e-19)
(-0.00771323 0.0243086 -3.2956e-19)
(0.00407948 0.0196267 7.0304e-19)
(0.0206598 0.0123267 1.30414e-18)
(0.040618 0.00378445 -2.69547e-19)
(0.0629145 -0.00513241 -6.56029e-19)
(0.0869295 -0.0136323 2.0009e-19)
(0.11225 -0.0206147 -1.26008e-18)
(0.136674 -0.025283 1.38409e-18)
(-0.00878373 0.0134242 8.9828e-19)
(-0.00932797 0.0210859 -4.90324e-19)
(0.00264624 0.0205022 9.57261e-19)
(0.0227358 0.0158173 -1.56397e-18)
(0.0481737 0.00920541 -7.47289e-19)
(0.0770144 0.00182599 -1.03509e-18)
(0.10783 -0.00579433 3.00723e-19)
(0.139843 -0.0132488 -8.37273e-19)
(0.172877 -0.0195733 1.8233e-18)
(0.204273 -0.02408 5.10397e-19)
(-0.00768222 0.0113475 6.61299e-20)
(-0.00204456 0.015839 7.98699e-19)
(0.0192556 0.0143224 1.5872e-18)
(0.0500649 0.0103 4.85014e-19)
(0.0867023 0.00565908 1.43556e-18)
(0.126594 0.00135978 7.86859e-20)
(0.167733 -0.00240751 -7.09512e-22)
(0.20892 -0.00569277 5.7876e-19)
(0.250233 -0.00783913 4.68112e-19)
(0.289115 -0.00926291 -1.51929e-18)
(-0.00477043 0.00808575 -5.32105e-19)
(0.010147 0.00838443 -8.91198e-19)
(0.0436438 0.00593772 -1.29539e-18)
(0.0879964 0.0032089 3.06111e-20)
(0.13875 0.00175662 -6.60377e-19)
(0.192805 0.00254256 1.04083e-18)
(0.247587 0.00588901 -2.86552e-18)
(0.301161 0.0120148 1.28649e-18)
(0.352882 0.0215146 4.83556e-19)
(0.40003 0.0302472 1.51715e-18)
(0.000388735 0.00380848 2.66176e-19)
(0.0281181 -0.000874528 -1.01895e-18)
(0.0768097 -0.00427302 9.09826e-19)
(0.137563 -0.00546166 -3.52982e-19)
(0.205554 -0.00344273 3.83947e-19)
(0.27782 0.00270746 8.35878e-19)
(0.352528 0.0137254 -1.12226e-18)
(0.429274 0.0305526 1.45811e-19)
(0.509036 0.0524527 -5.37774e-19)
(0.594171 0.069453 1.09111e-18)
(0.00806027 -0.00110798 3.81368e-19)
(0.0522603 -0.0110932 -9.23814e-19)
(0.118756 -0.0153296 1.25869e-18)
(0.197749 -0.015019 -7.83875e-19)
(0.284049 -0.0102797 -2.8756e-19)
(0.374604 -0.000972264 1.70249e-19)
(0.467606 0.0128148 8.80222e-20)
(0.562488 0.0307696 1.19396e-18)
(0.658903 0.0501765 3.43714e-19)
(0.754559 0.0623396 1.46943e-18)
(0.0183521 -0.00610199 -3.40402e-19)
(0.0826128 -0.0209187 1.19444e-18)
(0.169007 -0.0252639 -9.96648e-19)
(0.267055 -0.0228313 -1.16886e-18)
(0.371088 -0.015101 1.63537e-18)
(0.477615 -0.00286607 -1.24344e-18)
(0.584239 0.0129428 3.2845e-19)
(0.689405 0.0312134 -1.94711e-18)
(0.791333 0.0492636 1.45851e-18)
(0.886041 0.0617488 7.28731e-20)
(0.0312703 -0.0105458 -4.43626e-19)
(0.118977 -0.0287938 -4.28435e-19)
(0.226869 -0.0317844 -9.12319e-19)
(0.344063 -0.0258915 1.10584e-18)
(0.464447 -0.0140396 -5.58549e-20)
(0.58406 0.00207589 7.14927e-19)
(0.699968 0.0208538 1.30423e-18)
(0.809929 0.0407962 -4.00794e-19)
(0.911577 0.0598086 -1.41762e-18)
(1.0009 0.0748777 2.81452e-18)
(0.0467453 -0.0138317 -2.29307e-19)
(0.160911 -0.0332169 -2.73517e-19)
(0.291339 -0.0327802 4.92217e-19)
(0.427114 -0.0216648 -9.149e-19)
(0.561884 -0.00426186 1.56306e-19)
(0.691441 0.0168801 1.39096e-19)
(0.812663 0.0396125 6.10007e-20)
(0.9232 0.0622298 -9.85866e-21)
(1.02086 0.0832289 -1.49428e-19)
(1.10226 0.100991 -2.37941e-18)
(0.0646185 -0.0153976 9.30823e-19)
(0.207683 -0.0328633 -6.49611e-19)
(0.360982 -0.0265373 8.30774e-21)
(0.514053 -0.00833856 -9.89352e-19)
(0.660653 0.0159066 -3.53962e-19)
(0.796701 0.0428754 3.30959e-19)
(0.91936 0.0699939 2.57018e-19)
(1.02673 0.0954713 -9.15874e-19)
(1.11735 0.118342 7.48597e-19)
(1.18885 0.137792 -9.81516e-19)
(0.0846111 -0.0147325 4.01748e-19)
(0.258228 -0.0266432 -3.57047e-19)
(0.433899 -0.0118355 1.48302e-18)
(0.602224 0.0151008 1.51205e-19)
(0.75755 0.0470191 3.47497e-19)
(0.896412 0.0799693 1.54881e-18)
(1.01678 0.111131 -2.36814e-19)
(1.11772 0.138798 2.15773e-19)
(1.19888 0.162564 8.93484e-20)
(1.25919 0.182096 -1.0997e-19)
(0.106293 -0.0113861 2.80678e-19)
(0.311141 -0.0137428 6.74816e-19)
(0.50778 0.012012 -7.2289e-19)
(0.688608 0.0488894 -2.44724e-19)
(0.849158 0.0886659 -3.02311e-19)
(0.987143 0.127018 4.68416e-19)
(1.10185 0.161148 -2.43647e-19)
(1.19374 0.189674 6.55504e-19)
(1.26384 0.212846 2.20584e-19)
(1.31249 0.230666 -3.59621e-19)
(0.129071 -0.00499457 -3.02466e-19)
(0.364701 0.00632846 2.68844e-19)
(0.580015 0.045137 -5.73661e-19)
(0.770038 0.0925429 2.47449e-19)
(0.932158 0.139656 -2.5676e-19)
(1.06584 0.182157 -3.20447e-19)
(1.17213 0.217628 -2.57331e-19)
(1.25319 0.245301 2.87584e-19)
(1.3115 0.266204 -5.42207e-19)
(1.34885 0.280637 3.27674e-19)
(0.152192 0.00468203 -1.07815e-19)
(0.416946 0.0336823 -2.10898e-19)
(0.647853 0.0871017 1.00429e-19)
(0.843431 0.144924 6.19182e-21)
(1.0036 0.198186 8.33298e-20)
(1.13007 0.243068 1.14321e-19)
(1.22601 0.277937 1.0595e-19)
(1.29535 0.302934 -1.40495e-19)
(1.34201 0.31998 1.19607e-19)
(1.36911 0.329675 -1.8718e-19)
(0.174775 0.017719 -6.24095e-20)
(0.465773 0.0680015 -2.34116e-20)
(0.708578 0.1369 9.31621e-20)
(0.906007 0.204326 -4.28885e-20)
(1.0611 0.262007 1.1431e-19)
(1.17821 0.307192 -1.47594e-19)
(1.26274 0.33945 3.42083e-20)
(1.32037 0.360077 3.67049e-20)
(1.35627 0.371951 -1.53846e-20)
(1.37465 0.375986 5.82073e-20)
(0.195856 0.0339917 -6.73282e-20)
(0.50907 0.10851 -3.04679e-19)
(0.759689 0.192986 -2.11025e-20)
(0.955468 0.268575 6.27152e-21)
(1.10299 0.328579 -3.96274e-19)
(1.20943 0.371907 5.23878e-20)
(1.28239 0.399693 -4.46005e-20)
(1.3291 0.414556 -1.07577e-19)
(1.35567 0.420329 2.24279e-19)
(1.36715 0.418231 -4.08928e-19)
(0.214444 0.0531505 -3.25172e-20)
(0.544851 0.15397 6.17061e-19)
(0.799063 0.253335 9.94251e-20)
(0.990133 0.335148 -5.43242e-19)
(1.12837 0.395217 -4.40517e-20)
(1.22372 0.434653 -5.20576e-19)
(1.28574 0.456424 3.81591e-19)
(1.32289 0.464538 -1.38448e-19)
(1.34191 0.463703 2.45599e-19)
(1.34841 0.45542 -1.79444e-19)
(0.229587 0.0746121 -2.05052e-19)
(0.571393 0.202718 1.95839e-19)
(0.825092 0.315541 -1.41353e-19)
(1.00902 0.401307 1.06545e-18)
(1.13708 0.459222 5.25832e-19)
(1.22172 0.493027 -1.21915e-19)
(1.27409 0.507671 4.10721e-19)
(1.30345 0.508498 -2.70256e-19)
(1.31688 0.500956 -7.52888e-20)
(1.32028 0.486798 4.93981e-19)
(0.240436 0.0975684 -3.54918e-19)
(0.587355 0.252731 4.51652e-19)
(0.836773 0.376931 -8.8862e-19)
(1.01185 0.464233 1.24793e-19)
(1.12967 0.51799 2.78867e-19)
(1.20469 0.544843 -4.27654e-19)
(1.24914 0.551725 -4.9792e-19)
(1.27272 0.545172 2.1856e-19)
(1.28252 0.531184 -2.63172e-19)
(1.28453 0.511755 3.15955e-19)
(0.246312 0.121013 -8.96752e-20)
(0.591872 0.301725 -4.5957e-19)
(0.833754 0.434708 2.54253e-19)
(0.99903 0.521159 4.26369e-19)
(1.10725 0.569097 -2.56405e-19)
(1.17428 0.588156 -1.91028e-19)
(1.21287 0.587119 -1.04307e-19)
(1.23273 0.573484 -5.15655e-20)
(1.24077 0.553598 1.07847e-20)
(1.24291 0.529719 1.07524e-19)
(0.246759 0.143785 6.58196e-20)
(0.584617 0.347278 -3.85625e-19)
(0.81634 0.486098 6.43177e-19)
(0.971581 0.569494 -3.81074e-19)
(1.07145 0.610386 1.06481e-19)
(1.13247 0.621291 -1.51058e-19)
(1.16741 0.612602 1.62621e-19)
(1.18559 0.592496 3.11527e-20)
(1.19356 0.567431 -7.80025e-20)
(1.19711 0.540021 1.51502e-19)
(0.241593 0.164636 -1.7303e-19)
(0.565833 0.386974 3.38042e-19)
(0.785448 0.528508 -1.52031e-20)
(0.931025 0.60695 -7.32258e-20)
(1.02419 0.640034 -2.0131e-19)
(1.08145 0.642882 2.48066e-20)
(1.11501 0.627183 6.15236e-20)
(1.1335 0.601458 -1.51515e-19)
(1.14302 0.571983 1.7696e-19)
(1.1492 0.541879 1.50323e-19)
(0.230935 0.18231 3.84345e-20)
(0.536325 0.418562 -8.09297e-20)
(0.742531 0.559669 2.42425e-20)
(0.879239 0.631621 1.24555e-20)
(0.967553 0.656554 7.7964e-20)
(1.02334 0.651785 -1.44061e-19)
(1.05788 0.629967 -3.01345e-19)
(1.07891 0.599657 -1.22929e-19)
(1.09213 0.566623 -1.57123e-19)
(1.10255 0.534701 1.33126e-19)
(0.21523 0.195653 1.10781e-19)
(0.49743 0.44013 -1.71716e-19)
(0.689467 0.577805 1.65742e-19)
(0.818263 0.64211 -3.14827e-19)
(0.903421 0.658818 7.63831e-20)
(0.959695 0.646834 5.16195e-19)
(0.997278 0.619363 -1.58292e-19)
(1.02316 0.584702 1.88168e-19)
(1.04271 0.548005 2.75475e-19)
(1.05903 0.515028 1.00197e-18)
(0.195249 0.203726 6.80454e-19)
(0.450967 0.450296 -4.63013e-19)
(0.628513 0.581864 1.12681e-18)
(0.750268 0.637905 -1.9298e-19)
(0.833389 0.646758 9.66763e-19)
(0.891057 0.628052 6.06539e-19)
(0.93231 0.594737 -1.42497e-18)
(0.96357 0.55388 2.16349e-18)
(0.989456 0.507899 -4.5721e-19)
(1.00632 0.461006 8.9967e-19)
(0.17205 0.205874 -3.75356e-19)
(0.399204 0.448254 -2.67605e-19)
(0.562391 0.571529 2.58804e-19)
(0.677928 0.619481 -6.41007e-19)
(0.759661 0.622009 -2.00215e-18)
(0.818699 0.598991 -8.05193e-19)
(0.862692 0.563188 -7.25743e-19)
(0.897113 0.521741 3.5122e-19)
(0.925117 0.478159 2.92724e-18)
(0.942605 0.437392 -6.08902e-19)
(0.146894 0.201721 1.97536e-19)
(0.344727 0.433649 -7.99425e-19)
(0.494241 0.546774 1.75832e-19)
(0.604666 0.587133 -1.28047e-18)
(0.686058 0.585016 2.80346e-18)
(0.747292 0.559929 -3.24923e-19)
(0.794584 0.52408 1.52764e-18)
(0.832423 0.484256 -2.18833e-18)
(0.863342 0.443962 6.86534e-19)
(0.884648 0.407477 1.06207e-19)
(0.121118 0.191156 1.45618e-19)
(0.290163 0.40655 8.81723e-19)
(0.427119 0.507894 -2.58994e-18)
(0.533587 0.541229 1.26028e-18)
(0.615632 0.535982 -4.16036e-21)
(0.679887 0.510616 -4.25285e-19)
(0.731204 0.476429 5.35225e-19)
(0.773236 0.439624 -5.31931e-19)
(0.808165 0.403351 -1.8285e-18)
(0.834247 0.370865 -5.01003e-19)
(0.0960486 0.174334 4.76478e-19)
(0.238033 0.367474 5.3462e-19)
(0.363854 0.455615 2.20821e-18)
(0.467419 0.482513 -1.22844e-18)
(0.550831 0.4755 2.53212e-18)
(0.618565 0.451352 -5.45423e-19)
(0.674213 0.420139 -5.76531e-19)
(0.720699 0.387299 6.81303e-19)
(0.759931 0.355514 4.44206e-19)
(0.790869 0.327124 1.61059e-18)
(0.0729448 0.15167 -4.83558e-19)
(0.190664 0.317376 1.57842e-19)
(0.306988 0.391111 4.26869e-20)
(0.408535 0.41215 1.25235e-18)
(0.493702 0.404588 -3.12606e-18)
(0.56499 0.382953 5.31051e-19)
(0.624864 0.35582 1.17262e-18)
(0.675617 0.327751 -1.41764e-18)
(0.718933 0.30091 4.99427e-19)
(0.754394 0.276897 -2.31787e-18)
(0.0529468 0.123826 1.03049e-19)
(0.150114 0.257626 5.55918e-19)
(0.258722 0.315974 2.16215e-19)
(0.358945 0.331692 2.93021e-19)
(0.445941 0.324635 5.61472e-19)
(0.520504 0.306609 1.67168e-18)
(0.584154 0.284488 -2.04676e-18)
(0.638655 0.261882 -1.15279e-18)
(0.685522 0.240441 1.91038e-19)
(0.724903 0.221195 1.50298e-18)
(0.0370318 0.0916908 -6.23149e-19)
(0.118111 0.189953 -7.4131e-20)
(0.220874 0.23216 -6.20978e-19)
(0.320288 0.243022 8.84365e-20)
(0.408909 0.237333 -5.31591e-19)
(0.486184 0.2238 -6.06907e-19)
(0.55289 0.207442 -9.04446e-19)
(0.610384 0.190868 2.43723e-18)
(0.660066 0.175233 4.20483e-19)
(0.702561 0.161149 -6.40953e-19)
(0.0259729 0.0563423 3.35845e-19)
(0.0960029 0.116392 4.4391e-19)
(0.194847 0.141927 1.74893e-19)
(0.293812 0.148292 -9.43899e-19)
(0.38364 0.144613 -4.39427e-19)
(0.462844 0.136226 -9.46236e-20)
(0.531693 0.126185 1.84897e-19)
(0.591264 0.116066 1.48464e-19)
(0.642892 0.106552 -1.14803e-18)
(0.687548 0.0979585 6.58764e-19)
(0.0203063 0.0190051 -1.74895e-19)
(0.084714 0.0392055 -1.98971e-19)
(0.181592 0.0477519 1.58584e-19)
(0.280362 0.0498475 1.40794e-19)
(0.370831 0.0485766 1.44294e-19)
(0.451036 0.0457359 2.20674e-19)
(0.520987 0.0423506 -1.16023e-20)
(0.581621 0.0389482 -2.89466e-19)
(0.634242 0.0357541 2.74961e-19)
(0.680003 0.0328651 -4.1369e-19)
(0.0203063 -0.0190053 -1.76045e-19)
(0.084714 -0.0392057 -1.89615e-19)
(0.181592 -0.0477522 1.74744e-19)
(0.280362 -0.0498479 3.42133e-19)
(0.370831 -0.048577 2.27967e-19)
(0.451036 -0.0457363 -3.00377e-19)
(0.520987 -0.042351 -1.63222e-19)
(0.581621 -0.0389485 7.11803e-20)
(0.634242 -0.0357544 1.60032e-19)
(0.680003 -0.0328654 -9.52966e-20)
(0.0259729 -0.0563425 4.2012e-19)
(0.0960029 -0.116392 -5.33928e-19)
(0.194847 -0.141927 -4.44094e-20)
(0.293812 -0.148292 2.95833e-19)
(0.38364 -0.144614 -1.33752e-18)
(0.462844 -0.136227 5.71505e-19)
(0.531693 -0.126185 5.89957e-19)
(0.591264 -0.116066 -6.96471e-19)
(0.642892 -0.106552 6.65295e-19)
(0.687548 -0.0979588 -2.92004e-19)
(0.0370318 -0.0916909 -7.26356e-20)
(0.118111 -0.189953 -9.26696e-21)
(0.220874 -0.23216 -1.44218e-18)
(0.320288 -0.243022 -4.58785e-19)
(0.408909 -0.237333 -4.83717e-20)
(0.486184 -0.2238 -7.54743e-19)
(0.55289 -0.207442 1.40629e-18)
(0.610384 -0.190868 -4.94208e-20)
(0.660066 -0.175233 8.03018e-19)
(0.702562 -0.161149 -7.0608e-19)
(0.0529469 -0.123826 1.22673e-19)
(0.150114 -0.257626 -5.67944e-19)
(0.258722 -0.315974 1.74757e-18)
(0.358945 -0.331692 2.47298e-19)
(0.445941 -0.324635 1.21577e-18)
(0.520504 -0.306609 -1.18858e-18)
(0.584154 -0.284488 1.24778e-18)
(0.638655 -0.261882 -8.99609e-19)
(0.685522 -0.240441 -3.95064e-19)
(0.724903 -0.221195 3.35613e-19)
(0.0729448 -0.15167 1.09541e-18)
(0.190664 -0.317377 2.80498e-21)
(0.306988 -0.391112 -1.84177e-18)
(0.408535 -0.412151 -5.34356e-19)
(0.493703 -0.404589 1.77428e-18)
(0.56499 -0.382954 -1.03984e-18)
(0.624864 -0.355821 -1.20379e-18)
(0.675617 -0.327751 1.08311e-18)
(0.718933 -0.300911 -7.37378e-19)
(0.754394 -0.276898 -1.58973e-19)
(0.0960487 -0.174334 -1.63516e-19)
(0.238033 -0.367474 -7.75577e-21)
(0.363854 -0.455616 1.99877e-18)
(0.467419 -0.482513 1.14607e-18)
(0.550831 -0.4755 -1.3515e-18)
(0.618565 -0.451352 1.63637e-18)
(0.674213 -0.420139 -1.77565e-18)
(0.720699 -0.387299 1.767e-19)
(0.759931 -0.355515 5.28876e-19)
(0.790869 -0.327125 1.22377e-18)
(0.121118 -0.191156 1.87438e-19)
(0.290163 -0.40655 3.01844e-19)
(0.427119 -0.507894 3.28336e-19)
(0.533587 -0.541229 -1.05558e-18)
(0.615632 -0.535983 -1.88029e-18)
(0.679887 -0.510616 3.95963e-19)
(0.731204 -0.47643 1.14584e-18)
(0.773236 -0.439624 -3.27994e-19)
(0.808165 -0.403352 1.97469e-18)
(0.834247 -0.370865 -1.92478e-18)
(0.146894 -0.201721 -1.06106e-18)
(0.344727 -0.433649 4.07724e-19)
(0.494241 -0.546774 -1.10092e-18)
(0.604666 -0.587133 1.7798e-18)
(0.686058 -0.585016 8.89975e-19)
(0.747292 -0.559929 1.25655e-18)
(0.794584 -0.52408 -2.90791e-19)
(0.832423 -0.484257 1.14573e-18)
(0.863342 -0.443962 -2.42573e-18)
(0.884648 -0.407477 -6.32405e-19)
(0.17205 -0.205874 6.24631e-20)
(0.399204 -0.448254 -7.12834e-19)
(0.562391 -0.571529 -1.14139e-18)
(0.677928 -0.619482 -4.83601e-19)
(0.759661 -0.622009 -1.36658e-18)
(0.818699 -0.598991 -1.38991e-19)
(0.862692 -0.563188 1.18832e-19)
(0.897113 -0.521741 -5.34013e-19)
(0.925117 -0.478159 -5.96794e-19)
(0.942605 -0.437392 1.57389e-18)
(0.195249 -0.203726 3.35414e-19)
(0.450967 -0.450296 4.68408e-19)
(0.628514 -0.581864 8.39143e-19)
(0.750268 -0.637905 3.72163e-20)
(0.833389 -0.646759 5.59886e-19)
(0.891057 -0.628052 -7.66681e-19)
(0.93231 -0.594737 2.34076e-18)
(0.963571 -0.553881 -1.03349e-18)
(0.989456 -0.507899 -5.07566e-19)
(1.00632 -0.461007 -1.53052e-18)
(0.21523 -0.195653 -1.32113e-19)
(0.49743 -0.44013 2.33395e-19)
(0.689467 -0.577805 -2.39172e-19)
(0.818263 -0.64211 1.28944e-19)
(0.903422 -0.658818 -1.52375e-19)
(0.959696 -0.646834 -3.90796e-19)
(0.997278 -0.619363 5.14071e-19)
(1.02316 -0.584703 -1.68153e-19)
(1.04271 -0.548005 2.60867e-19)
(1.05903 -0.515028 -5.69248e-19)
(0.230935 -0.18231 -7.38938e-21)
(0.536325 -0.418562 -1.06468e-19)
(0.742532 -0.559669 2.11818e-20)
(0.879239 -0.631621 1.44567e-19)
(0.967553 -0.656554 -6.53337e-20)
(1.02334 -0.651785 1.7541e-20)
(1.05788 -0.629967 -1.71889e-20)
(1.07891 -0.599657 -3.83356e-19)
(1.09213 -0.566623 -1.77957e-19)
(1.10255 -0.534701 -5.59976e-19)
(0.241593 -0.164636 -9.6131e-20)
(0.565833 -0.386974 3.39243e-19)
(0.785448 -0.528508 -2.10762e-19)
(0.931025 -0.60695 -7.59632e-20)
(1.02419 -0.640034 3.39253e-20)
(1.08145 -0.642882 7.15118e-20)
(1.11501 -0.627184 -7.0204e-21)
(1.1335 -0.601458 2.92447e-19)
(1.14303 -0.571983 -2.52713e-19)
(1.1492 -0.541879 -3.57992e-21)
(0.246759 -0.143785 -2.36708e-19)
(0.584617 -0.347278 -1.48241e-19)
(0.81634 -0.486098 -3.68103e-19)
(0.971581 -0.569494 4.1873e-19)
(1.07145 -0.610386 -3.07026e-20)
(1.13247 -0.621291 1.36107e-19)
(1.16741 -0.612602 1.53601e-19)
(1.18559 -0.592496 -5.58754e-20)
(1.19356 -0.567431 5.0488e-20)
(1.19711 -0.540022 -1.59865e-19)
(0.246312 -0.121013 -1.61018e-19)
(0.591872 -0.301725 -2.06834e-19)
(0.833754 -0.434708 3.11659e-19)
(0.99903 -0.521159 -4.68262e-19)
(1.10725 -0.569097 8.22585e-20)
(1.17428 -0.588156 4.15747e-20)
(1.21287 -0.587119 9.19873e-20)
(1.23273 -0.573484 -6.04728e-20)
(1.24077 -0.553598 -7.24219e-20)
(1.24291 -0.52972 -2.35894e-19)
(0.240436 -0.0975684 6.71303e-19)
(0.587355 -0.252731 -5.25374e-19)
(0.836773 -0.376931 2.45463e-20)
(1.01185 -0.464234 -6.73204e-19)
(1.12967 -0.51799 -1.95429e-19)
(1.20469 -0.544843 1.56346e-19)
(1.24914 -0.551725 1.14546e-19)
(1.27272 -0.545172 -3.8207e-19)
(1.28252 -0.531184 1.67691e-19)
(1.28453 -0.511755 -3.02437e-19)
(0.229587 -0.0746121 3.3315e-19)
(0.571393 -0.202718 -3.2972e-19)
(0.825092 -0.315541 1.18317e-18)
(1.00902 -0.401307 9.43474e-20)
(1.13708 -0.459223 2.68325e-19)
(1.22172 -0.493028 9.57164e-19)
(1.27409 -0.507671 -1.98963e-19)
(1.30345 -0.508499 4.83163e-20)
(1.31688 -0.500956 -2.84378e-20)
(1.32028 -0.486799 -4.95295e-20)
(0.214444 -0.0531505 2.56807e-19)
(0.544851 -0.15397 5.83533e-19)
(0.799063 -0.253335 -5.94782e-19)
(0.990134 -0.335148 -1.80663e-19)
(1.12837 -0.395217 -1.9127e-19)
(1.22372 -0.434653 3.76548e-19)
(1.28574 -0.456425 -1.77684e-19)
(1.32289 -0.464538 4.18939e-19)
(1.34191 -0.463703 1.00806e-19)
(1.34841 -0.45542 -1.77288e-19)
(0.195856 -0.0339917 -2.77404e-19)
(0.50907 -0.10851 2.57425e-19)
(0.759689 -0.192986 -5.28496e-19)
(0.955468 -0.268575 2.21268e-19)
(1.10299 -0.328579 -2.21764e-19)
(1.20943 -0.371907 -2.63699e-19)
(1.2824 -0.399693 -2.04604e-19)
(1.3291 -0.414556 2.25742e-19)
(1.35567 -0.42033 -3.92364e-19)
(1.36715 -0.418231 2.48391e-19)
(0.174775 -0.017719 -1.03926e-19)
(0.465773 -0.0680015 -2.03937e-19)
(0.708578 -0.1369 9.59362e-20)
(0.906007 -0.204326 7.0831e-21)
(1.0611 -0.262007 7.63537e-20)
(1.17821 -0.307192 1.09397e-19)
(1.26274 -0.33945 9.31503e-20)
(1.32037 -0.360077 -1.26031e-19)
(1.35627 -0.371951 1.02737e-19)
(1.37465 -0.375986 -1.62288e-19)
(0.152192 -0.00468204 -6.54863e-20)
(0.416946 -0.0336823 -2.63954e-20)
(0.647853 -0.0871017 9.83502e-20)
(0.843431 -0.144924 -4.43699e-20)
(1.0036 -0.198186 1.24171e-19)
(1.13007 -0.243068 -1.56953e-19)
(1.22601 -0.277937 4.0322e-20)
(1.29535 -0.302934 3.46036e-20)
(1.34201 -0.31998 -1.23617e-20)
(1.36911 -0.329676 5.67355e-20)
(0.129071 0.00499456 -7.85614e-20)
(0.364701 -0.00632848 -3.33064e-19)
(0.580015 -0.0451371 -2.68244e-20)
(0.770038 -0.0925429 1.07069e-20)
(0.932159 -0.139656 -4.61994e-19)
(1.06584 -0.182157 4.87861e-20)
(1.17213 -0.217628 -5.1688e-20)
(1.25319 -0.245301 -1.40587e-19)
(1.3115 -0.266204 3.11074e-19)
(1.34885 -0.280637 -5.65939e-19)
(0.106293 0.0113861 -4.45387e-20)
(0.311141 0.0137428 7.1437e-19)
(0.50778 -0.012012 9.528e-20)
(0.688608 -0.0488894 -6.45316e-19)
(0.849159 -0.088666 -7.72724e-20)
(0.987143 -0.127018 -7.2771e-19)
(1.10185 -0.161148 5.65842e-19)
(1.19374 -0.189674 -2.29659e-19)
(1.26384 -0.212846 4.35304e-19)
(1.31249 -0.230666 -3.84024e-19)
(0.0846111 0.0147325 -2.51898e-19)
(0.258228 0.0266432 2.93299e-19)
(0.433899 0.0118355 -2.04871e-19)
(0.602224 -0.0151008 1.41613e-18)
(0.75755 -0.0470191 7.49602e-19)
(0.896412 -0.0799693 -1.96288e-19)
(1.01678 -0.111131 7.63249e-19)
(1.11772 -0.138798 -4.9904e-19)
(1.19888 -0.162564 -1.60484e-19)
(1.25919 -0.182097 1.15952e-18)
(0.0646185 0.0153976 -4.6567e-19)
(0.207683 0.0328632 6.95272e-19)
(0.360982 0.0265373 -1.31853e-18)
(0.514053 0.00833852 2.28234e-19)
(0.660653 -0.0159066 5.69054e-19)
(0.796701 -0.0428755 -7.15106e-19)
(0.91936 -0.0699939 -1.26654e-18)
(1.02673 -0.0954713 6.78969e-19)
(1.11735 -0.118342 -8.83013e-19)
(1.18885 -0.137793 1.4131e-18)
(0.0467453 0.0138316 -1.15117e-19)
(0.160911 0.0332168 -6.99812e-19)
(0.291339 0.0327802 3.45456e-19)
(0.427114 0.0216647 8.64161e-19)
(0.561884 0.0042618 -4.64185e-19)
(0.691441 -0.0168802 -4.58082e-19)
(0.812663 -0.0396126 -7.76657e-19)
(0.9232 -0.0622299 -3.55882e-19)
(1.02086 -0.083229 -8.54676e-20)
(1.10226 -0.100991 1.41222e-18)
(0.0312703 0.0105458 1.93285e-19)
(0.118977 0.0287938 -9.50662e-19)
(0.226869 0.0317844 1.62606e-18)
(0.344063 0.0258915 -9.05449e-19)
(0.464447 0.0140396 5.86639e-19)
(0.584061 -0.00207597 -7.29956e-19)
(0.699968 -0.0208539 8.12995e-19)
(0.809929 -0.0407963 7.10036e-19)
(0.911577 -0.0598087 1.55134e-18)
(1.0009 -0.0748778 -2.56472e-18)
(0.018352 0.00610197 -6.00585e-19)
(0.0826128 0.0209186 1.20599e-18)
(0.169007 0.0252638 1.60939e-20)
(0.267055 0.0228312 -4.34382e-19)
(0.371088 0.0151009 -2.30676e-19)
(0.477615 0.00286598 1.84369e-19)
(0.584239 -0.0129429 -1.30892e-18)
(0.689405 -0.0312135 1.01128e-18)
(0.791333 -0.0492637 -1.30334e-18)
(0.886041 -0.0617489 -5.94921e-19)
(0.00806024 0.00110796 1.03349e-18)
(0.0522603 0.0110931 -3.224e-19)
(0.118756 0.0153296 -6.04775e-19)
(0.197749 0.0150189 1.64255e-18)
(0.284048 0.0102796 -1.6135e-18)
(0.374604 0.000972138 9.01478e-19)
(0.467606 -0.0128149 9.60114e-19)
(0.562488 -0.0307698 2.62729e-19)
(0.658903 -0.0501766 2.73254e-19)
(0.754559 -0.0623397 -3.87629e-19)
(0.000388707 -0.00380851 -9.88397e-19)
(0.0281181 0.000874459 9.39457e-19)
(0.0768097 0.00427291 -8.31384e-19)
(0.137563 0.00546153 1.04309e-18)
(0.205554 0.00344257 -3.11637e-19)
(0.27782 -0.00270762 -1.08231e-18)
(0.352528 -0.0137256 3.10378e-19)
(0.429274 -0.0305528 -5.12096e-19)
(0.509037 -0.0524529 -6.06534e-19)
(0.594171 -0.0694533 -1.89222e-18)
(-0.00477045 -0.00808578 -1.23469e-18)
(0.010147 -0.00838452 9.81602e-19)
(0.0436437 -0.00593786 -1.92326e-18)
(0.0879963 -0.00320908 3.43911e-19)
(0.13875 -0.00175682 -1.33241e-18)
(0.192805 -0.00254278 -7.9911e-19)
(0.247587 -0.00588925 1.91236e-18)
(0.301161 -0.0120151 -2.61447e-18)
(0.352883 -0.0215149 5.03231e-19)
(0.40003 -0.0302476 -8.28676e-19)
(-0.00768225 -0.0113475 6.08191e-19)
(-0.00204463 -0.0158391 2.57333e-19)
(0.0192555 -0.0143226 -7.65402e-20)
(0.0500648 -0.0103002 7.30856e-19)
(0.0867023 -0.00565935 2.1461e-18)
(0.126594 -0.00136007 7.40712e-19)
(0.167733 0.00240718 7.65358e-19)
(0.208921 0.00569241 -2.64643e-19)
(0.250233 0.00783873 -2.46855e-18)
(0.289115 0.00926245 6.2605e-19)
(-0.00878376 -0.0134242 -1.71698e-19)
(-0.00932804 -0.021086 5.46481e-19)
(0.00264617 -0.0205024 -1.43159e-19)
(0.0227358 -0.0158176 1.01081e-18)
(0.0481736 -0.00920575 -2.33709e-18)
(0.0770144 -0.00182638 1.98372e-19)
(0.10783 0.00579391 -1.11228e-18)
(0.139843 0.0132483 1.63668e-18)
(0.172877 0.0195727 -4.78391e-19)
(0.204274 0.0240794 -6.83596e-20)
(-0.00858784 -0.0143041 -1.16886e-19)
(-0.0128318 -0.0240057 -6.57207e-19)
(-0.00771331 -0.0243089 1.65283e-18)
(0.00407942 -0.0196271 -8.7146e-19)
(0.0206598 -0.0123271 6.12491e-20)
(0.040618 -0.00378492 2.79666e-19)
(0.0629145 0.00513189 -2.55582e-19)
(0.0869296 0.0136318 3.32164e-19)
(0.11225 0.0206141 1.15099e-18)
(0.136674 0.0252823 3.01191e-19)
(-0.00758379 -0.0140744 -2.62167e-19)
(-0.0136958 -0.024665 -2.91604e-19)
(-0.0134292 -0.0257007 -1.29433e-18)
(-0.00792066 -0.0215117 6.89187e-19)
(0.00173573 -0.0144923 -1.42152e-18)
(0.0145788 -0.00611574 3.22939e-19)
(0.0298497 0.00258939 3.63122e-19)
(0.0470091 0.0107139 -3.83746e-19)
(0.0655399 0.0172483 -2.48276e-19)
(0.0837997 0.0214696 -1.11581e-18)
(-0.00618709 -0.0128749 2.04801e-19)
(-0.01294 -0.0232575 -4.81734e-20)
(-0.0159823 -0.0247666 9.78689e-22)
(-0.0151343 -0.0213429 -6.22006e-19)
(-0.0108145 -0.0152253 1.57458e-18)
(-0.00361572 -0.00783561 -2.45596e-19)
(0.00591839 -0.000196585 -6.12894e-19)
(0.0173141 0.0068383 7.50155e-19)
(0.0300358 0.0124517 -2.63618e-19)
(0.0429239 0.0160461 1.45711e-18)
(-0.00472407 -0.0108681 -3.844e-20)
(-0.0114034 -0.0200604 -2.25372e-19)
(-0.0166178 -0.0217191 -8.89478e-20)
(-0.0191362 -0.0191493 -1.13635e-19)
(-0.018832 -0.0142677 -2.44311e-19)
(-0.0160035 -0.00831179 -7.67227e-19)
(-0.0110226 -0.00217641 9.59706e-19)
(-0.00429631 0.00342937 5.60615e-19)
(0.00366308 0.0078958 -1.00428e-19)
(0.0120635 0.0107637 -8.93757e-19)
(-0.00343577 -0.00822497 2.18288e-19)
(-0.00972814 -0.0154097 3.8146e-20)
(-0.0163016 -0.0168863 2.58204e-19)
(-0.0211437 -0.0151404 -2.95524e-20)
(-0.0237176 -0.0116335 2.35113e-19)
(-0.0240982 -0.00731706 2.65263e-19)
(-0.0225238 -0.00287707 3.97681e-19)
(-0.0193384 0.00116369 -1.12656e-18)
(-0.01502 0.00438844 -2.07928e-19)
(-0.0101028 0.0064736 3.7265e-19)
(-0.00248971 -0.0051214 -1.10223e-19)
(-0.00837072 -0.00968565 -1.56662e-19)
(-0.0157253 -0.0106977 -7.53643e-20)
(-0.0220251 -0.00969758 3.68615e-19)
(-0.0264595 -0.00759837 1.78927e-19)
(-0.0289518 -0.0049969 3.66939e-20)
(-0.0296476 -0.0023215 -7.95553e-20)
(-0.0288424 0.000109525 -6.1713e-20)
(-0.0269847 0.00205445 5.2972e-19)
(-0.0244467 0.00332081 -3.60779e-19)
(-0.00199124 -0.00173843 5.61907e-20)
(-0.00762162 -0.00330274 6.99172e-20)
(-0.0153302 -0.00366208 -5.96177e-20)
(-0.0223325 -0.00333781 -5.45296e-20)
(-0.0276805 -0.00264021 -5.6539e-20)
(-0.0312215 -0.0017724 -9.02168e-20)
(-0.0330529 -0.000879776 2.89771e-21)
(-0.0334437 -6.90563e-05 1.25175e-19)
(-0.0328263 0.000580635 -1.25685e-19)
(-0.0314953 0.00100541 2.28674e-19)
(-0.00813465 -0.0025868 1.65344e-20)
(0.0621317 -0.00662683 9.8874e-21)
(0.277542 -0.00670743 1.33767e-21)
(0.376967 -0.00438612 -9.02444e-22)
(0.479667 -0.00368313 -6.35456e-23)
(0.553561 -0.00264146 1.48068e-22)
(0.606047 -0.00219028 1.66405e-22)
(0.660353 -0.00158472 -3.40307e-23)
(0.683582 -0.00145863 -2.48587e-24)
(0.733819 -0.00100519 2.43841e-22)
(0.00866507 -0.00806203 2.62208e-20)
(0.0773852 -0.0197187 1.25334e-21)
(0.289032 -0.0199737 -1.74808e-20)
(0.385724 -0.0130617 1.40453e-20)
(0.486376 -0.0109698 8.87258e-22)
(0.558796 -0.00786599 -5.94294e-22)
(0.610318 -0.00651869 6.89028e-22)
(0.663712 -0.00471776 6.97789e-23)
(0.686514 -0.00436217 1.40324e-22)
(0.736043 -0.00301153 -2.23459e-22)
(0.0419699 -0.0144175 2.68571e-20)
(0.107419 -0.0323297 -3.61026e-20)
(0.311586 -0.032781 1.78697e-20)
(0.402926 -0.0214365 -1.16354e-20)
(0.499559 -0.0180291 8.28371e-22)
(0.569099 -0.012939 -6.45557e-22)
(0.618735 -0.010732 -2.56924e-22)
(0.670343 -0.00777112 8.42636e-25)
(0.692311 -0.00719991 -1.07452e-22)
(0.740447 -0.00497832 -3.26255e-22)
(0.0911782 -0.0221316 -4.16273e-20)
(0.15131 -0.0441604 -5.01135e-20)
(0.344372 -0.0448443 -2.31233e-20)
(0.427965 -0.029327 1.21284e-20)
(0.518766 -0.0247214 -1.45382e-20)
(0.584146 -0.017767 3.84539e-21)
(0.631054 -0.0147588 -2.08961e-22)
(0.680076 -0.010695 1.20882e-22)
(0.70084 -0.00993026 -1.29015e-22)
(0.746953 -0.00688022 1.2108e-22)
(0.155359 -0.0314769 1.15129e-19)
(0.207733 -0.0549232 7.22379e-20)
(0.386204 -0.0558999 2.59805e-20)
(0.459974 -0.0365711 -2.35693e-20)
(0.543349 -0.0309226 1.19337e-20)
(0.603471 -0.0222674 3.16109e-21)
(0.646925 -0.0185347 2.21022e-21)
(0.692665 -0.0134444 2.39317e-22)
(0.71191 -0.012515 2.86528e-22)
(0.755439 -0.00869347 -6.42538e-22)
(0.23323 -0.042381 -5.08265e-20)
(0.275011 -0.0643031 3.90012e-20)
(0.4356 -0.0656946 4.82029e-21)
(0.497872 -0.0430253 2.62858e-20)
(0.572508 -0.036526 -5.94699e-21)
(0.626495 -0.0263695 -3.68416e-21)
(0.665909 -0.0220045 -2.28306e-21)
(0.707799 -0.0159806 -1.47609e-22)
(0.725276 -0.0149202 -1.55551e-22)
(0.765754 -0.0103965 6.89338e-22)
(0.323164 -0.0545636 -3.86783e-20)
(0.351174 -0.0720357 -1.00779e-19)
(0.490864 -0.0740252 -1.70473e-20)
(0.540424 -0.048574 -1.46394e-20)
(0.605327 -0.0414489 6.97305e-21)
(0.65255 -0.030018 -1.94226e-21)
(0.687498 -0.0251241 2.45601e-21)
(0.725114 -0.0182718 4.49607e-22)
(0.740654 -0.0171177 -4.65935e-23)