/*--------------------------------*- C++ -*----------------------------------*\
  =========                 |
  \\      /  F ield         | OpenFOAM: The Open Source CFD Toolbox
   \\    /   O peration     | Website:  https://openfoam.org
    \\  /    A nd           | Version:  6.0
     \\/     M anipulation  |
\*---------------------------------------------------------------------------*/
FoamFile
{
    version     2.0;
    format      ascii;
    class       volScalarField;
    location    "0.2";
    object      p;
}
// * * * * * * * * * * * * * * * * * * * * * * * * * * * * * * * * * * * * * //

dimensions      [0 2 -2 0 0 0 0];

internalField   nonuniform List<scalar> 
200
(
1.88351e-06
-0.0182283
-0.0267169
-0.0194325
0.00218697
0.0355075
0.0779394
0.127384
0.182381
0.242005
0.305624
0.372576
0.441736
0.510992
0.576708
0.633459
0.674512
0.693389
0.686969
0.664346
0.0183723
-0.00132512
-0.00680492
0.00227058
0.0229733
0.0536538
0.092727
0.138664
0.190202
0.246337
0.306213
0.368914
0.433173
0.496997
0.557277
0.609605
0.648719
0.669377
0.666468
0.642006
0.0277154
0.00155638
-0.00385213
0.0068576
0.0281946
0.0585328
0.096639
0.141214
0.191101
0.245314
0.302992
0.363276
0.425108
0.486915
0.546181
0.599114
0.640821
0.665411
0.663706
0.631614
0.0159943
-0.0159133
-0.0202629
-0.00621874
0.018049
0.0505814
0.0901638
0.135519
0.185526
0.23927
0.296031
0.355233
0.416302
0.478373
0.539785
0.597456
0.646595
0.679856
0.682924
0.645285
-0.0261114
-0.0590005
-0.0571785
-0.0355066
-0.00473445
0.0329686
0.0764294
0.124423
0.175933
0.230214
0.286814
0.345589
0.406636
0.470061
0.535444
0.600973
0.662557
0.711687
0.728421
0.693247
-0.111204
-0.134612
-0.116216
-0.0794218
-0.0369164
0.00956406
0.0592966
0.111459
0.165432
0.220867
0.277751
0.336494
0.397973
0.463438
0.534095
0.610201
0.68963
0.764167
0.80924
0.79293
-0.260493
-0.250023
-0.196035
-0.132932
-0.0720803
-0.0132118
0.044447
0.101349
0.157869
0.214403
0.271563
0.33039
0.392568
0.460554
0.537497
0.626652
0.729619
0.841333
0.937752
0.974153
-0.523006
-0.412215
-0.287314
-0.184159
-0.0991607
-0.0262766
0.0386956
0.0989483
0.156626
0.213173
0.269879
0.328351
0.390969
0.461347
0.544835
0.648676
0.780347
0.943355
1.13178
1.30053
-1.03737
-0.621065
-0.350522
-0.19819
-0.0939967
-0.0142971
0.0511552
0.109318
0.164223
0.218022
0.272202
0.32843
0.389231
0.458832
0.544423
0.657737
0.815262
1.04287
1.40699
1.92653
-1.93853
-0.817649
-0.313351
-0.129263
-0.0327639
0.0334843
0.0858173
0.133213
0.179912
0.227408
0.27631
0.327372
0.382216
0.44424
0.520372
0.62447
0.783374
1.06349
1.68559
2.92265
)
;

boundaryField
{
    movingWall
    {
        type            zeroGradient;
    }
    fixedWalls
    {
        type            zeroGradient;
    }
    frontAndBack
    {
        type            empty;
    }
}


// ************************************************************************* //
