/*--------------------------------*- C++ -*----------------------------------*\
  =========                 |
  \\      /  F ield         | OpenFOAM: The Open Source CFD Toolbox
   \\    /   O peration     | Website:  https://openfoam.org
    \\  /    A nd           | Version:  6.0
     \\/     M anipulation  |
\*---------------------------------------------------------------------------*/
FoamFile
{
    version     2.0;
    format      ascii;
    class       volScalarField;
    location    "0.2";
    object      p;
}
// * * * * * * * * * * * * * * * * * * * * * * * * * * * * * * * * * * * * * //

dimensions      [0 2 -2 0 0 0 0];

internalField   nonuniform List<scalar> 
800
(
7.92122e-06
-0.00679889
-0.0161882
-0.0248352
-0.0306324
-0.0325254
-0.0301609
-0.0236118
-0.013181
0.000726017
0.0176787
0.0372668
0.0591244
0.0829407
0.108461
0.135486
0.163863
0.193481
0.224259
0.256135
0.289058
0.322965
0.357771
0.393347
0.429498
0.465941
0.50228
0.537991
0.572405
0.604712
0.633977
0.659186
0.679322
0.693487
0.70105
0.701858
0.696482
0.68652
0.674923
0.666167
0.00679869
-0.00015345
-0.00746412
-0.0134771
-0.0171213
-0.0176147
-0.0146067
-0.0080662
0.00185241
0.0148951
0.0307642
0.0491557
0.069782
0.0923844
0.116739
0.142657
0.169983
0.19859
0.228373
0.259241
0.291103
0.323861
0.357392
0.391533
0.426063
0.460687
0.495015
0.528556
0.560705
0.590755
0.617911
0.641342
0.660245
0.673945
0.682017
0.684431
0.681735
0.675149
0.666287
0.657455
0.0164865
0.00691554
-0.000654001
-0.00580848
-0.00848227
-0.0082103
-0.00475699
0.00188321
0.0115923
0.0241815
0.0394238
0.0570792
0.0769119
0.0987005
0.122245
0.147368
0.173915
0.201754
0.230766
0.260843
0.291877
0.323749
0.356322
0.389419
0.422816
0.456223
0.489269
0.521497
0.552352
0.581194
0.607311
0.629962
0.648434
0.662129
0.670651
0.67393
0.672363
0.666789
0.657604
0.645593
0.0259001
0.0127398
0.00371483
-0.00162301
-0.00406879
-0.00345137
0.000307431
0.00712098
0.0168407
0.0292859
0.0442557
0.0615416
0.080937
0.102244
0.12528
0.149875
0.175881
0.203161
0.231593
0.261062
0.291455
0.32265
0.354507
0.386857
0.419486
0.452125
0.484433
0.515988
0.546279
0.57471
0.600608
0.623261
0.641962
0.656081
0.665144
0.668931
0.667637
0.661769
0.650759
0.634459
0.0326889
0.0159024
0.00512832
-0.000726481
-0.00319029
-0.00235107
0.00171023
0.00879615
0.0187022
0.0312298
0.0461815
0.0633613
0.0825781
0.103648
0.126398
0.150665
0.176303
0.203176
0.231162
0.260145
0.290013
0.32065
0.351926
0.383687
0.415746
0.447863
0.479737
0.51099
0.541155
0.569672
0.595894
0.619107
0.638566
0.653556
0.663461
0.667859
0.666716
0.660241
0.647104
0.626562
0.0351838
0.0149932
0.00247346
-0.00396292
-0.00647169
-0.00537035
-0.000893968
0.00664262
0.0169651
0.0298405
0.045058
0.0624201
0.0817392
0.102836
0.125542
0.149698
0.175159
0.201792
0.229476
0.2581
0.287562
0.317756
0.348572
0.379884
0.411537
0.443336
0.475029
0.50629
0.536703
0.565748
0.592798
0.61712
0.637905
0.654315
0.665544
0.67092
0.670147
0.663151
0.647969
0.623481
0.0321168
0.008783
-0.00533401
-0.0122266
-0.014618
-0.0130453
-0.00789957
0.000379915
0.0114383
0.0249961
0.0408168
0.0586904
0.0784238
0.0998364
0.122759
0.147035
0.17252
0.199085
0.226617
0.255012
0.284182
0.314042
0.344508
0.375489
0.406875
0.438524
0.470246
0.501779
0.532768
0.562745
0.591104
0.617094
0.63983
0.658325
0.671539
0.678502
0.678603
0.671454
0.654498
0.626341
0.0224063
-0.00386187
-0.0193268
-0.0263615
-0.0282622
-0.0258066
-0.0195598
-0.0100989
0.0021292
0.0167888
0.0336101
0.0523641
0.0728478
0.0948764
0.11828
0.142904
0.168608
0.195272
0.22279
0.251075
0.280056
0.309674
0.339879
0.370623
0.401848
0.433476
0.465388
0.497402
0.529241
0.560502
0.590621
0.618842
0.644207
0.665567
0.681619
0.691032
0.692805
0.686148
0.667831
0.636178
0.00497987
-0.0241222
-0.040592
-0.047237
-0.0480193
-0.0440213
-0.036022
-0.0247618
-0.0107926
0.00548664
0.0237704
0.0438107
0.0653967
0.0883423
0.112481
0.137666
0.163766
0.190673
0.218298
0.246572
0.275448
0.304899
0.334912
0.365488
0.39663
0.42833
0.460554
0.493211
0.526122
0.558975
0.591274
0.622288
0.651011
0.676139
0.696084
0.709093
0.713663
0.708447
0.689335
0.654233
-0.0214087
-0.0533818
-0.0703673
-0.0757809
-0.0744719
-0.0679483
-0.0572715
-0.0433802
-0.0269451
-0.00842791
0.0118366
0.0335917
0.0566294
0.0807742
0.105874
0.131798
0.158436
0.185699
0.213519
0.241855
0.270688
0.300025
0.329898
0.360357
0.391471
0.42331
0.455931
0.489352
0.523511
0.558218
0.593084
0.62745
0.660308
0.690235
0.715357
0.733441
0.742345
0.739934
0.720828
0.682219
-0.0584331
-0.0934439
-0.110162
-0.113005
-0.108128
-0.0976605
-0.083041
-0.0654447
-0.0456635
-0.024206
-0.00141235
0.0224771
0.0472821
0.072859
0.0990894
0.125875
0.153138
0.18082
0.208884
0.237319
0.266142
0.295397
0.32516
0.355537
0.386659
0.418679
0.451755
0.486023
0.521563
0.558337
0.596117
0.634378
0.672189
0.708078
0.739927
0.764985
0.780326
0.782707
0.76485
0.722649
-0.108619
-0.14686
-0.161915
-0.160016
-0.149344
-0.132932
-0.112697
-0.0900684
-0.0659311
-0.0407909
-0.0149414
0.0114423
0.038249
0.0654018
0.0928433
0.12053
0.148431
0.176531
0.204834
0.233365
0.262177
0.291354
0.321017
0.351324
0.382473
0.414697
0.448257
0.48342
0.520425
0.559428
0.600414
0.643081
0.686683
0.729828
0.770256
0.80473
0.829414
0.839558
0.825036
0.779348
-0.176135
-0.21745
-0.22818
-0.217975
-0.198178
-0.173062
-0.145083
-0.115874
-0.0863114
-0.0567917
-0.0274646
0.00163919
0.0305403
0.0592757
0.0878837
0.1164
0.14486
0.173301
0.201775
0.230347
0.259108
0.288181
0.317729
0.347959
0.37913
0.411555
0.445597
0.48166
0.52016
0.56148
0.605886
0.653401
0.703614
0.755413
0.806609
0.853633
0.891714
0.914173
0.906683
0.858371
-0.268391
-0.311128
-0.312258
-0.28788
-0.254062
-0.216574
-0.178296
-0.140855
-0.104889
-0.070481
-0.0374825
-0.00566351
0.0252106
0.0553472
0.0849179
0.114062
0.142893
0.171514
0.200024
0.228529
0.257157
0.286065
0.315452
0.345568
0.376726
0.409312
0.443787
0.480693
0.520635
0.564255
0.612165
0.664832
0.722377
0.784251
0.848715
0.912252
0.969388
1.01125
1.01763
0.969839
-0.399311
-0.437117
-0.418011
-0.3699
-0.315123
-0.260681
-0.209347
-0.162208
-0.119219
-0.0798263
-0.0433572
-0.00917484
0.0232612
0.0543839
0.0845292
0.113955
0.142863
0.171417
0.199762
0.228041
0.256411
0.285054
0.314196
0.344121
0.375185
0.407835
0.44262
0.480213
0.521411
0.567139
0.618414
0.676268
0.741584
0.814764
0.895116
0.979957
1.0639
1.13623
1.16945
1.13154
-0.59514
-0.609174
-0.548982
-0.462183
-0.377203
-0.300669
-0.233871
-0.176277
-0.12642
-0.0826473
-0.0434896
-0.00775211
0.0254893
0.0569277
0.0870745
0.116305
0.144898
0.173069
0.200998
0.228851
0.256799
0.285039
0.313811
0.343417
0.374242
0.406774
0.441637
0.479614
0.521684
0.569056
0.623188
0.685788
0.758738
0.843868
0.942384
1.05383
1.17469
1.29422
1.37829
1.3746
-0.904858
-0.845899
-0.706684
-0.559916
-0.433533
-0.330002
-0.246542
-0.179123
-0.12376
-0.0771514
-0.0367721
-0.000764783
0.0322047
0.0630802
0.0925242
0.121001
0.148841
0.176287
0.20353
0.23074
0.258085
0.28576
0.314002
0.343113
0.373484
0.405625
0.440203
0.478082
0.520386
0.568578
0.624553
0.690753
0.770269
0.866869
0.984799
1.12798
1.2979
1.48787
1.66458
1.75295
-1.43943
-1.17061
-0.88099
-0.648201
-0.470666
-0.3383
-0.240255
-0.166314
-0.108703
-0.0620462
-0.0226895
0.0118396
0.0432004
0.0725012
0.100481
0.127633
0.15429
0.180684
0.206987
0.233346
0.259908
0.286842
0.314362
0.342747
0.372373
0.403737
0.437505
0.474569
0.516126
0.563802
0.619826
0.687292
0.770533
0.875629
1.01111
1.18814
1.41792
1.70735
2.05486
2.38443
-2.49325
-1.59689
-1.0027
-0.663922
-0.444387
-0.296888
-0.197149
-0.126977
-0.0747034
-0.0334148
0.00108985
0.031434
0.0592662
0.0856234
0.111157
0.136273
0.161225
0.186172
0.211222
0.236463
0.261986
0.287908
0.314388
0.341655
0.370024
0.399931
0.431974
0.466972
0.506045
0.550762
0.603351
0.667078
0.746873
0.850474
0.990584
1.18749
1.46903
1.88323
2.56691
3.56847
-4.31678
-2.00847
-0.930882
-0.51443
-0.303053
-0.17916
-0.103931
-0.0545645
-0.0186079
0.0101985
0.0351787
0.0582166
0.0804008
0.102354
0.124422
0.146779
0.169502
0.192608
0.216089
0.239931
0.264136
0.288735
0.313803
0.339476
0.36597
0.393601
0.42282
0.454251
0.488758
0.527551
0.572359
0.625755
0.691792
0.777409
0.895713
1.07203
1.35377
1.86709
3.06005
5.4866
)
;

boundaryField
{
    movingWall
    {
        type            zeroGradient;
    }
    fixedWalls
    {
        type            zeroGradient;
    }
    frontAndBack
    {
        type            empty;
    }
}


// ************************************************************************* //
