/*--------------------------------*- C++ -*----------------------------------*\
  =========                 |
  \\      /  F ield         | OpenFOAM: The Open Source CFD Toolbox
   \\    /   O peration     | Website:  https://openfoam.org
    \\  /    A nd           | Version:  6.0
     \\/     M anipulation  |
\*---------------------------------------------------------------------------*/
FoamFile
{
    version     2.0;
    format      ascii;
    class       surfaceScalarField;
    location    "0.2";
    object      phi;
}
// * * * * * * * * * * * * * * * * * * * * * * * * * * * * * * * * * * * * * //

dimensions      [0 3 -1 0 0 0 0];

internalField   nonuniform List<scalar> 
370
(
-7.91862e-08
7.9157e-08
-5.96791e-07
5.17605e-07
-1.34894e-06
7.52145e-07
-2.13416e-06
7.85226e-07
-2.84462e-06
7.10453e-07
-3.43912e-06
5.94504e-07
-3.91359e-06
4.74469e-07
-4.28002e-06
3.66429e-07
-4.55243e-06
2.72411e-07
-4.73803e-06
1.85599e-07
-4.83174e-06
9.37122e-08
-4.81326e-06
-1.84769e-08
-4.64725e-06
-1.66014e-07
-4.28889e-06
-3.58358e-07
-3.69844e-06
-5.90448e-07
-2.86775e-06
-8.30695e-07
-1.85812e-06
-1.00963e-06
-8.4279e-07
-1.01533e-06
-1.26529e-07
-7.16261e-07
-1.26529e-07
-5.64779e-07
6.43936e-07
-1.91967e-06
1.8725e-06
-3.64694e-06
2.47942e-06
-5.40476e-06
2.54305e-06
-6.99137e-06
2.29706e-06
-8.32073e-06
1.92387e-06
-9.37864e-06
1.53238e-06
-1.01844e-05
1.1722e-06
-1.07632e-05
8.5125e-07
-1.11283e-05
5.50628e-07
-1.12698e-05
2.3526e-07
-1.11507e-05
-1.37603e-07
-1.07082e-05
-6.08502e-07
-9.86599e-06
-1.20057e-06
-8.56035e-06
-1.89609e-06
-6.78518e-06
-2.60587e-06
-4.65448e-06
-3.14032e-06
-2.4671e-06
-3.20271e-06
-7.23657e-07
-2.45971e-06
-8.50186e-07
-9.91474e-07
1.63541e-06
-3.02592e-06
3.90694e-06
-5.4197e-06
4.8732e-06
-7.74112e-06
4.86447e-06
-9.76848e-06
4.32441e-06
-1.14238e-05
3.57922e-06
-1.27106e-05
2.81911e-06
-1.36661e-05
2.12777e-06
-1.43305e-05
1.51564e-06
-1.4727e-05
9.47062e-07
-1.4851e-05
3.5928e-07
-1.46657e-05
-3.22902e-07
-1.4103e-05
-1.17114e-06
-1.30739e-05
-2.22972e-06
-1.14915e-05
-3.47844e-06
-9.31659e-06
-4.78081e-06
-6.62947e-06
-5.82744e-06
-3.72724e-06
-6.10494e-06
-1.21218e-06
-4.97477e-06
-2.06237e-06
-1.34373e-06
2.97914e-06
-3.87632e-06
6.43954e-06
-6.63279e-06
7.62966e-06
-9.12898e-06
7.36067e-06
-1.11833e-05
6.37878e-06
-1.27754e-05
5.17123e-06
-1.39559e-05
3.99969e-06
-1.47951e-05
2.96689e-06
-1.53537e-05
2.07429e-06
-1.56699e-05
1.26329e-06
-1.5752e-05
4.41388e-07
-1.55749e-05
-5.00018e-07
-1.50784e-05
-1.66767e-06
-1.41688e-05
-3.13934e-06
-1.27292e-05
-4.91798e-06
-1.0651e-05
-6.85901e-06
-7.9068e-06
-8.57169e-06
-4.6899e-06
-9.32185e-06
-1.62828e-06
-8.03639e-06
-3.69064e-06
-1.6842e-06
4.66334e-06
-4.51154e-06
9.26687e-06
-7.25402e-06
1.03721e-05
-9.47265e-06
9.5793e-06
-1.11094e-05
8.01555e-06
-1.22494e-05
6.31124e-06
-1.30111e-05
4.76134e-06
-1.35002e-05
3.45597e-06
-1.37953e-05
2.36944e-06
-1.39464e-05
1.41433e-06
-1.39755e-05
4.70545e-07
-1.38767e-05
-5.9879e-07
-1.36107e-05
-1.9337e-06
-1.30949e-05
-3.65516e-06
-1.21924e-05
-5.82049e-06
-1.07139e-05
-8.33744e-06
-8.4684e-06
-1.08172e-05
-5.4236e-06
-1.23667e-05
-2.06827e-06
-1.13917e-05
-5.75891e-06
-2.08094e-06
6.74428e-06
-4.9219e-06
1.21078e-05
-7.12417e-06
1.25744e-05
-8.50042e-06
1.09556e-05
-9.23198e-06
8.7471e-06
-9.54521e-06
6.62447e-06
-9.62129e-06
4.83742e-06
-9.58251e-06
3.4172e-06
-9.50482e-06
2.29174e-06
-9.43451e-06
1.34402e-06
-9.40027e-06
4.36306e-07
-9.41733e-06
-5.8173e-07
-9.48141e-06
-1.86962e-06
-9.54923e-06
-3.58735e-06
-9.5034e-06
-5.86631e-06
-9.10978e-06
-8.73107e-06
-8.0042e-06
-1.19228e-05
-5.80313e-06
-1.45677e-05
-2.56664e-06
-1.46282e-05
-8.32556e-06
-2.55046e-06
9.29474e-06
-4.85956e-06
1.44169e-05
-5.72036e-06
1.34352e-05
-5.56153e-06
1.07967e-05
-4.90895e-06
8.09453e-06
-4.1079e-06
5.82342e-06
-3.34663e-06
4.07615e-06
-2.71152e-06
2.78209e-06
-2.23649e-06
1.81671e-06
-1.93794e-06
1.04547e-06
-1.8355e-06
3.33866e-07
-1.96098e-06
-4.5625e-07
-2.35524e-06
-1.47536e-06
-3.04771e-06
-2.89488e-06
-4.00768e-06
-4.90635e-06
-5.0567e-06
-7.68205e-06
-5.75166e-06
-1.12278e-05
-5.31729e-06
-1.50021e-05
-2.99878e-06
-1.69467e-05
-1.13243e-05
-2.82756e-06
1.21223e-05
-3.31988e-06
1.49093e-05
-1.64668e-06
1.1762e-05
7.25998e-07
8.42404e-06
3.02108e-06
5.79944e-06
4.94948e-06
3.89501e-06
6.44896e-06
2.57668e-06
7.55041e-06
1.68064e-06
8.3072e-06
1.05992e-06
8.75803e-06
5.94639e-07
8.90837e-06
1.83524e-07
8.72136e-06
-2.69239e-07
8.11513e-06
-8.69131e-07
6.97082e-06
-1.75056e-06
5.16638e-06
-3.1019e-06
2.66941e-06
-5.18509e-06
-2.59162e-07
-8.29925e-06
-2.7032e-06
-1.25581e-05
-2.83152e-06
-1.68184e-05
-1.41559e-05
-1.18914e-06
1.33114e-05
3.02852e-06
1.06916e-05
8.36883e-06
6.4217e-06
1.29023e-05
3.89053e-06
1.63254e-05
2.37634e-06
1.87764e-05
1.44407e-06
2.04759e-05
8.77129e-07
2.16232e-05
5.33404e-07
2.23647e-05
3.18346e-07
2.27891e-05
1.70331e-07
2.29266e-05
4.59368e-08
2.27489e-05
-9.14962e-08
2.21617e-05
-2.81889e-07
2.09927e-05
-5.81612e-07
1.89778e-05
-1.08698e-06
1.5772e-05
-1.97929e-06
1.10771e-05
-3.6044e-06
5.09607e-06
-6.57699e-06
-1.89148e-07
-1.15332e-05
-1.4345e-05
1.33114e-05
2.4003e-05
3.04247e-05
3.43153e-05
3.66916e-05
3.81357e-05
3.90128e-05
3.95462e-05
3.98646e-05
4.00349e-05
4.00808e-05
3.99893e-05
3.97074e-05
3.91258e-05
3.80389e-05
3.60596e-05
3.24552e-05
2.58782e-05
1.4345e-05
)
;

boundaryField
{
    movingWall
    {
        type            calculated;
        value           uniform 0;
    }
    fixedWalls
    {
        type            calculated;
        value           uniform 0;
    }
    frontAndBack
    {
        type            empty;
        value           nonuniform 0();
    }
}


// ************************************************************************* //
