/*--------------------------------*- C++ -*----------------------------------*\
  =========                 |
  \\      /  F ield         | OpenFOAM: The Open Source CFD Toolbox
   \\    /   O peration     | Website:  https://openfoam.org
    \\  /    A nd           | Version:  6.0
     \\/     M anipulation  |
\*---------------------------------------------------------------------------*/
FoamFile
{
    version     2.0;
    format      ascii;
    class       volVectorField;
    location    "0.2";
    object      U;
}
// * * * * * * * * * * * * * * * * * * * * * * * * * * * * * * * * * * * * * //

dimensions      [0 1 -1 0 0 0 0];

internalField   nonuniform List<vector> 
200
(
(-9.23593e-05 -6.33257e-06 0)
(-0.00557553 0.00353434 0)
(-0.0188992 0.00559265 0)
(-0.0349145 0.00594126 0)
(-0.0501886 0.00538344 0)
(-0.063337 0.00450039 0)
(-0.0740179 0.00360159 0)
(-0.0823796 0.00281554 0)
(-0.0887284 0.00215544 0)
(-0.0933058 0.00156332 0)
(-0.0961491 0.000935808 0)
(-0.097008 0.000141434 0)
(-0.0953112 -0.000955891 0)
(-0.0902152 -0.00245145 0)
(-0.0807979 -0.00431925 0)
(-0.0664664 -0.00629987 0)
(-0.0475957 -0.00778976 0)
(-0.0264168 -0.007788 0)
(-0.00820425 -0.00514744 0)
(-0.000365027 -0.000301004 0)
(-0.00409252 0.00561451 0)
(-0.0222479 0.0206103 0)
(-0.0545811 0.0285997 0)
(-0.0909305 0.0297761 0)
(-0.125054 0.0270598 0)
(-0.154403 0.0227546 0)
(-0.178235 0.0182169 0)
(-0.196752 0.0140611 0)
(-0.210499 0.0103861 0)
(-0.219923 0.00695824 0)
(-0.225093 0.0033395 0)
(-0.225541 -0.001012 0)
(-0.220237 -0.0066195 0)
(-0.207702 -0.0137897 0)
(-0.186386 -0.0223009 0)
(-0.15537 -0.0309966 0)
(-0.115381 -0.0374159 0)
(-0.0701587 -0.0377272 0)
(-0.0287774 -0.0277651 0)
(-0.00530112 -0.00782508 0)
(-0.00789618 0.0213465 0)
(-0.0369699 0.0550807 0)
(-0.0834879 0.0708774 0)
(-0.132614 0.0720143 0)
(-0.176828 0.0647978 0)
(-0.213757 0.0541455 0)
(-0.243033 0.0430171 0)
(-0.265244 0.0327661 0)
(-0.281278 0.023608 0)
(-0.291835 0.0150252 0)
(-0.297136 0.00606186 0)
(-0.296771 -0.0044388 0)
(-0.289659 -0.0175654 0)
(-0.274148 -0.0339364 0)
(-0.248333 -0.0530883 0)
(-0.210717 -0.0726718 0)
(-0.161211 -0.0876691 0)
(-0.102821 -0.0901768 0)
(-0.0457572 -0.0711531 0)
(-0.00972031 -0.0273939 0)
(-0.0112897 0.0450019 0)
(-0.0490848 0.101855 0)
(-0.104823 0.124193 0)
(-0.159468 0.122383 0)
(-0.205447 0.107838 0)
(-0.241735 0.0886271 0)
(-0.269119 0.0693563 0)
(-0.288978 0.051989 0)
(-0.30271 0.0367108 0)
(-0.311349 0.0226062 0)
(-0.315377 0.00812409 0)
(-0.314633 -0.00857763 0)
(-0.308256 -0.0292654 0)
(-0.294672 -0.0550885 0)
(-0.271694 -0.0857185 0)
(-0.236877 -0.118104 0)
(-0.188247 -0.144993 0)
(-0.126237 -0.153893 0)
(-0.0600448 -0.128375 0)
(-0.0139027 -0.0561233 0)
(-0.0150822 0.0754237 0)
(-0.0598858 0.15659 0)
(-0.118718 0.181195 0)
(-0.170099 0.171846 0)
(-0.208536 0.146909 0)
(-0.235694 0.117738 0)
(-0.25413 0.0901487 0)
(-0.266186 0.0662449 0)
(-0.273727 0.0458719 0)
(-0.278029 0.0275851 0)
(-0.279807 0.00922996 0)
(-0.279226 -0.0116918 0)
(-0.275857 -0.037674 0)
(-0.268518 -0.0706675 0)
(-0.25505 -0.111118 0)
(-0.232133 -0.156324 0)
(-0.19536 -0.19799 0)
(-0.140884 -0.219389 0)
(-0.0736216 -0.194211 0)
(-0.0190433 -0.0932454 0)
(-0.020281 0.113231 0)
(-0.0704576 0.214995 0)
(-0.123494 0.233523 0)
(-0.159887 0.210698 0)
(-0.179913 0.172911 0)
(-0.189276 0.133909 0)
(-0.192429 0.0995949 0)
(-0.192345 0.0714036 0)
(-0.190912 0.0484251 0)
(-0.189279 0.0285918 0)
(-0.188153 0.00925197 0)
(-0.187968 -0.012565 0)
(-0.188881 -0.039956 0)
(-0.190526 -0.0757951 0)
(-0.191476 -0.121922 0)
(-0.188395 -0.177363 0)
(-0.17497 -0.234924 0)
(-0.142128 -0.275782 0)
(-0.0860091 -0.263004 0)
(-0.0258277 -0.140092 0)
(-0.0272364 0.161441 0)
(-0.0790402 0.270191 0)
(-0.111044 0.268289 0)
(-0.11635 0.22604 0)
(-0.106145 0.17559 0)
(-0.0903097 0.129935 0)
(-0.074063 0.0930503 0)
(-0.0598488 0.0646776 0)
(-0.0486619 0.0428218 0)
(-0.040874 0.024875 0)
(-0.0367738 0.00799646 0)
(-0.0368564 -0.0108384 0)
(-0.0418899 -0.0348974 0)
(-0.0527134 -0.0676912 0)
(-0.0696014 -0.112629 0)
(-0.090906 -0.171674 0)
(-0.110729 -0.241715 0)
(-0.116334 -0.306948 0)
(-0.0907712 -0.324352 0)
(-0.0328133 -0.199287 0)
(-0.0311364 0.224192 0)
(-0.072399 0.306471 0)
(-0.0559167 0.264181 0)
(-0.0103992 0.201467 0)
(0.0386838 0.145172 0)
(0.0816343 0.101085 0)
(0.115946 0.068857 0)
(0.141744 0.0459734 0)
(0.160091 0.0295317 0)
(0.172035 0.0168382 0)
(0.178084 0.00542024 0)
(0.177953 -0.00716813 0)
(0.170449 -0.0236239 0)
(0.153488 -0.0472309 0)
(0.12444 -0.0821644 0)
(0.0812808 -0.133291 0)
(0.025057 -0.20408 0)
(-0.0346838 -0.289717 0)
(-0.0678101 -0.355473 0)
(-0.0306665 -0.269109 0)
(0.00446906 0.274175 0)
(0.0078913 0.28254 0)
(0.109806 0.19727 0)
(0.216197 0.129778 0)
(0.296942 0.0838286 0)
(0.354795 0.0533707 0)
(0.39539 0.0337114 0)
(0.423143 0.021158 0)
(0.441515 0.0129589 0)
(0.452888 0.0071399 0)
(0.458466 0.00219876 0)
(0.458284 -0.00319487 0)
(0.451144 -0.0104989 0)
(0.434423 -0.0216956 0)
(0.403819 -0.0399261 0)
(0.353232 -0.0704436 0)
(0.274415 -0.121521 0)
(0.160377 -0.203067 0)
(0.0411038 -0.30755 0)
(0.0228006 -0.304172 0)
(0.296954 0.145167 0)
(0.388862 0.126605 0)
(0.541709 0.075653 0)
(0.652072 0.0430016 0)
(0.714809 0.0243197 0)
(0.751222 0.0136422 0)
(0.773307 0.00762503 0)
(0.786781 0.00427066 0)
(0.794918 0.00236578 0)
(0.799604 0.00118661 0)
(0.801716 0.000276212 0)
(0.801355 -0.000711933 0)
(0.797879 -0.00213857 0)
(0.789726 -0.00453565 0)
(0.773921 -0.00889883 0)
(0.74495 -0.0172973 0)
(0.690797 -0.0340737 0)
(0.58538 -0.0675645 0)
(0.422524 -0.125027 0)
(0.314022 -0.150261 0)
)
;

boundaryField
{
    movingWall
    {
        type            fixedValue;
        value           uniform (1 0 0);
    }
    fixedWalls
    {
        type            noSlip;
    }
    frontAndBack
    {
        type            empty;
    }
}


// ************************************************************************* //
