1.45 	0 	0 	-0.232492
2.35 	0 	0 	-0.00334041
