1.275 	2.15223e-18 	-2.76991e-20 	-0.0344885 	-0.000440548 	-1.89912e-22
1.825 	2.15223e-18 	-1.39322e-20 	-0.00951122 	-0.00275938 	1.67303e-21
2.375 	2.15223e-18 	-2.66896e-23 	0.115162 	-0.00323462 	-6.97731e-22
