1.45 	0 	0 	-0.23099
2.35 	0 	0 	-0.00250982
