1.45 	0 	0 	-0.00761465 	-0.00259594 	3.83746e-21
2.35 	0 	0 	0.0625188 	-0.00667015 	2.36148e-21
