1.45 	0 	0 	-0.00665987 	-0.00266636 	3.90118e-21
2.35 	0 	0 	0.0655946 	-0.00676004 	2.42888e-21
