1.45 	0 	0 	-0.00800782 	-0.00257534 	3.79473e-21
2.35 	0 	0 	0.0615542 	-0.00663957 	2.30309e-21
