1.275 	2.15223e-18 	-2.76991e-20 	-0.0325221 	-0.000472329 	-2.05073e-22
1.825 	2.15223e-18 	-1.39322e-20 	-0.00702964 	-0.00309687 	1.8041e-21
2.375 	2.15223e-18 	-2.66896e-23 	0.13882 	-0.00407978 	-7.3949e-22
