1.45 	0 	0 	-0.300048
2.35 	0 	0 	-0.0846467
