1.45 	0 	0 	-0.0028723 	-0.0029852 	3.96801e-21
2.35 	0 	0 	0.0794613 	-0.00723917 	2.3729e-21
