/*--------------------------------*- C++ -*----------------------------------*\
  =========                 |
  \\      /  F ield         | OpenFOAM: The Open Source CFD Toolbox
   \\    /   O peration     | Website:  https://openfoam.org
    \\  /    A nd           | Version:  6.0
     \\/     M anipulation  |
\*---------------------------------------------------------------------------*/
FoamFile
{
    version     2.0;
    format      ascii;
    class       volScalarField;
    location    "0.2";
    object      p;
}
// * * * * * * * * * * * * * * * * * * * * * * * * * * * * * * * * * * * * * //

dimensions      [0 2 -2 0 0 0 0];

internalField   nonuniform List<scalar> 
200
(
1.16862e-08
-0.00237061
-0.00422378
-0.00496909
-0.00470262
-0.00348466
-0.00125918
0.00214175
0.00700052
0.0137179
0.0228024
0.0348096
0.0501819
0.0689338
0.0901729
0.111608
0.129497
0.139673
0.13994
0.133709
0.00243158
-0.000148275
-0.00156128
-0.00193127
-0.00154844
-0.000367228
0.00175932
0.00502402
0.00967249
0.0160123
0.0244186
0.0353161
0.0490959
0.0658936
0.0851608
0.105118
0.122535
0.133426
0.134743
0.127885
0.00422388
0.000722927
-0.000734671
-0.00099119
-0.000650296
0.000368209
0.00225054
0.00517513
0.00932273
0.0149001
0.0221823
0.0315598
0.0435449
0.0586295
0.0768533
0.0970879
0.116418
0.1302
0.133161
0.124389
0.0034095
-0.00108656
-0.0027014
-0.0029477
-0.00270025
-0.00184078
-0.000179386
0.00239601
0.00594746
0.0105385
0.0163279
0.0236964
0.033353
0.0462867
0.0633683
0.0844983
0.107469
0.126912
0.134372
0.125433
-0.00179303
-0.00690373
-0.00829575
-0.00824241
-0.00781154
-0.00680414
-0.00504961
-0.0025499
0.000591076
0.00425809
0.00847194
0.0135891
0.0205
0.0306909
0.0459627
0.0676149
0.0949091
0.122564
0.138923
0.134507
-0.0134075
-0.018112
-0.0181003
-0.0168438
-0.0154962
-0.0136887
-0.0112688
-0.00836228
-0.00523063
-0.00213953
0.000828416
0.00401936
0.00846614
0.0160432
0.0293443
0.0510851
0.0825605
0.120021
0.150343
0.158404
-0.0344356
-0.0359069
-0.0317487
-0.0275555
-0.0241207
-0.0206706
-0.0169845
-0.0132284
-0.00971739
-0.00675163
-0.00440668
-0.00226848
0.000849763
0.00711909
0.0196977
0.0423693
0.0783543
0.126681
0.176272
0.207932
-0.0718453
-0.0609237
-0.0471024
-0.0374861
-0.0306746
-0.0249769
-0.0198427
-0.0152361
-0.0113177
-0.00825296
-0.00597323
-0.0038921
-0.000605096
0.0063685
0.0207004
0.0470708
0.0903759
0.153232
0.231398
0.305565
-0.148035
-0.0907235
-0.0553049
-0.038586
-0.0289373
-0.0219914
-0.0165649
-0.0121682
-0.00861781
-0.00586134
-0.00366729
-0.00128995
0.00285651
0.0115158
0.0288884
0.0608688
0.11512
0.200628
0.328537
0.49121
-0.308977
-0.11361
-0.0378668
-0.0193371
-0.0125179
-0.00812259
-0.0051791
-0.00303555
-0.0012788
0.00020225
0.00161367
0.00365743
0.00786926
0.0169592
0.0352498
0.0694603
0.130831
0.239853
0.434114
0.748961
)
;

boundaryField
{
    movingWall
    {
        type            zeroGradient;
    }
    fixedWalls
    {
        type            zeroGradient;
    }
    frontAndBack
    {
        type            empty;
    }
}


// ************************************************************************* //
