# Probe 0 (1 0 0)
# Probe 1 (7 0 0)
#       Probe             0             1
#        Time
         0.01       -19.593     -0.327322
         0.02     -0.789374      0.079266
         0.03     -0.539526   -0.00887786
         0.04     -0.173636    -0.0166362
         0.05     -0.169166   -0.00306602
         0.06     -0.169556   -0.00343666
         0.07     -0.165562   -0.00538584
         0.08     -0.149769   -0.00418369
         0.09     -0.134135   -0.00372156
          0.1     -0.119463   -0.00337206
         0.11     -0.106286   -0.00310224
         0.12    -0.0946757   -0.00287937
         0.13    -0.0845615   -0.00266305
         0.14    -0.0757372   -0.00250289
         0.15    -0.0681119   -0.00235892
         0.16    -0.0615337   -0.00223176
         0.17    -0.0551394   -0.00217397
         0.18    -0.0505452   -0.00200292
         0.19    -0.0464935   -0.00192065
          0.2    -0.0431019   -0.00184723
         0.21    -0.0403582   -0.00176718
         0.22    -0.0381785   -0.00169288
         0.23    -0.0365196   -0.00162363
         0.24    -0.0353411   -0.00155868
         0.25     -0.034607   -0.00148888
         0.26    -0.0342745   -0.00143308
         0.27    -0.0343243   -0.00138044
         0.28    -0.0347264   -0.00133116
         0.29    -0.0354539   -0.00128507
          0.3     -0.036471   -0.00123027
         0.31    -0.0376632   -0.00118464
         0.32    -0.0392318   -0.00114425
         0.33    -0.0410308   -0.00110772
         0.34    -0.0430362    -0.0010724
         0.35    -0.0452293   -0.00103865
         0.36    -0.0475917   -0.00100625
         0.37    -0.0501066  -0.000975413
         0.38    -0.0512736  -0.000869291
         0.39     -0.054413  -0.000958249
          0.4     -0.057227  -0.000912758
         0.41    -0.0601832  -0.000880419
         0.42    -0.0632231  -0.000855319
         0.43     -0.066339  -0.000831213
         0.44    -0.0695159  -0.000807726
         0.45    -0.0727429  -0.000784894
         0.46    -0.0760106  -0.000762752
         0.47    -0.0793101  -0.000741207
         0.48    -0.0826334  -0.000720223
         0.49    -0.0859731    -0.0006998
          0.5    -0.0893225  -0.000679868
         0.51    -0.0926754  -0.000660409
         0.52    -0.0960262  -0.000641394
         0.53    -0.0993698  -0.000622791
         0.54     -0.102701  -0.000604597
         0.55     -0.106017   -0.00058677
         0.56     -0.109313  -0.000569293
         0.57     -0.112585  -0.000552155
         0.58     -0.115832  -0.000535322
         0.59     -0.119049  -0.000518786
          0.6     -0.122235  -0.000502529
         0.61     -0.125388  -0.000486537
         0.62     -0.128505    -0.0004708
         0.63     -0.131585  -0.000455288
         0.64     -0.134627  -0.000440004
         0.65     -0.137629  -0.000424933
         0.66     -0.140591  -0.000410063
         0.67     -0.143512  -0.000395385
         0.68      -0.14639   -0.00038089
         0.69     -0.149226  -0.000366584
          0.7      -0.15202  -0.000352419
         0.71      -0.15477    -0.0003385
         0.72     -0.157476  -0.000324547
         0.73      -0.16014  -0.000310943
         0.74      -0.16276  -0.000297427
         0.75     -0.165337  -0.000284144
         0.76     -0.167871  -0.000270701
         0.77     -0.170362  -0.000257406
         0.78      -0.17281  -0.000244199
         0.79     -0.175217  -0.000231191
          0.8     -0.177582  -0.000218224
         0.81     -0.179905  -0.000205358
         0.82     -0.182188  -0.000192688
         0.83     -0.184431  -0.000180121
         0.84     -0.186583  -0.000157793
         0.85      -0.18638  -9.74062e-05
         0.86     -0.188522  -0.000101754
         0.87     -0.190476  -8.87526e-05
         0.88     -0.192536  -7.84794e-05
         0.89     -0.194473  -6.66081e-05
          0.9     -0.196465  -5.62937e-05
         0.91     -0.198341  -4.44485e-05
         0.92     -0.200268  -3.41068e-05
         0.93     -0.202084  -2.22997e-05
         0.94     -0.203957   -1.2437e-05
         0.95     -0.205713  -3.87677e-06
         0.96     -0.207519   9.78419e-06
         0.97     -0.209218   1.79506e-05
         0.98     -0.210965   3.19244e-05
         0.99     -0.212608   4.00638e-05
            1     -0.214298    5.3919e-05
         1.01     -0.215887   6.22073e-05
         1.02      -0.21752   7.59994e-05
         1.03     -0.219058   8.41315e-05
         1.04     -0.220639   9.79494e-05
         1.05     -0.222127   0.000105916
         1.06     -0.223656   0.000119861
         1.07     -0.225096   0.000127894
         1.08     -0.226577   0.000141749
         1.09     -0.227971   0.000149671
          1.1     -0.229404   0.000163666
         1.11     -0.230755    0.00017159
         1.12     -0.232143   0.000185551
         1.13     -0.233452   0.000193443
         1.14     -0.234797   0.000207461
         1.15     -0.236066   0.000215351
         1.16     -0.237371   0.000229337
         1.17     -0.238606   0.000235083
         1.18     -0.239867   0.000251293
         1.19     -0.241066   0.000257137
          1.2      -0.24229   0.000273288
         1.21     -0.243454   0.000279314
         1.22     -0.244643   0.000295282
         1.23     -0.245773    0.00030143
         1.24     -0.246928   0.000317341
         1.25     -0.248027   0.000323659
         1.26     -0.249154   0.000337869
         1.27      -0.25022   0.000345916
         1.28     -0.251315   0.000360066
         1.29     -0.252374   0.000372074
          1.3     -0.253396   0.000379616
         1.31     -0.254448   0.000393513
         1.32     -0.255465   0.000405483
         1.33     -0.256467   0.000416908
         1.34     -0.257457   0.000428163
         1.35     -0.258435   0.000439321
         1.36     -0.259401   0.000450515
         1.37     -0.260355    0.00046178
         1.38     -0.261297   0.000472961
         1.39     -0.262227   0.000484198
          1.4     -0.263146    0.00049547
         1.41     -0.264054   0.000506699
         1.42     -0.264951   0.000518018
         1.43     -0.265837    0.00052937
         1.44     -0.266714    0.00054067
         1.45      -0.26758   0.000552032
         1.46     -0.268436    0.00056343
         1.47     -0.269282   0.000574818
         1.48     -0.270119   0.000586262
         1.49     -0.270949   0.000596728
          1.5     -0.271765   0.000609081
         1.51     -0.272577    0.00061977
         1.52     -0.273377   0.000631254
         1.53     -0.274169   0.000642924
         1.54     -0.274952   0.000654532
         1.55     -0.275727   0.000666217
         1.56     -0.276493   0.000677969
         1.57     -0.277252   0.000689706
         1.58     -0.278002   0.000701529
         1.59     -0.278745   0.000713329
          1.6      -0.27948    0.00072519
         1.61     -0.280208   0.000737105
         1.62     -0.280928   0.000749002
         1.63     -0.281641   0.000760954
         1.64     -0.282347   0.000772968
         1.65     -0.283045   0.000784955
         1.66     -0.283737   0.000797008
         1.67     -0.284422   0.000809113
         1.68     -0.285101   0.000821207
         1.69     -0.285773   0.000833448
          1.7     -0.286438   0.000845561
         1.71     -0.287097   0.000857753
         1.72     -0.287749   0.000870001
         1.73     -0.288396   0.000882299
         1.74     -0.289035   0.000894562
         1.75     -0.289669   0.000906987
         1.76     -0.290297   0.000919383
         1.77     -0.290919   0.000931836
         1.78     -0.291535   0.000944307
         1.79     -0.292146   0.000956809
          1.8      -0.29275   0.000969353
         1.81     -0.293349    0.00098194
         1.82     -0.293943   0.000994556
         1.83     -0.294531     0.0010072
         1.84     -0.295113     0.0010199
         1.85      -0.29569    0.00103261
         1.86     -0.296262     0.0010454
         1.87     -0.296829    0.00105818
         1.88      -0.29739    0.00107104
         1.89     -0.297946    0.00108392
          1.9     -0.298497    0.00109682
         1.91     -0.299043     0.0011098
         1.92     -0.299584    0.00112281
         1.93      -0.30012    0.00113584
         1.94     -0.300651    0.00114892
         1.95     -0.301178    0.00116203
         1.96     -0.301699     0.0011752
         1.97     -0.302271    0.00118391
         1.98     -0.302789    0.00120432
         1.99     -0.303279    0.00121804
            2     -0.303764    0.00123149
         2.01     -0.304246    0.00124485
         2.02     -0.304726     0.0012583
         2.03     -0.305202    0.00127176
         2.04     -0.305675    0.00128533
         2.05     -0.306144    0.00129892
         2.06     -0.306609    0.00131254
         2.07     -0.307071    0.00132621
         2.08     -0.307528    0.00133992
         2.09     -0.307982    0.00135368
          2.1     -0.308433    0.00136747
         2.11     -0.308879     0.0013813
         2.12     -0.309322    0.00139518
         2.13     -0.309761     0.0014091
         2.14     -0.310196    0.00142307
         2.15     -0.310628    0.00143708
         2.16     -0.311055    0.00145113
         2.17     -0.311479    0.00146523
         2.18     -0.311899    0.00147938
         2.19     -0.312316    0.00149357
          2.2     -0.312728    0.00150781
         2.21     -0.313137    0.00152209
         2.22     -0.313542    0.00153642
         2.23     -0.313944     0.0015508
         2.24     -0.314341    0.00156523
         2.25     -0.314735     0.0015797
         2.26     -0.315125    0.00159422
         2.27     -0.315512    0.00160879
         2.28     -0.315895    0.00162337
         2.29     -0.316274    0.00163807
          2.3     -0.316649    0.00165278
         2.31     -0.317021    0.00166755
         2.32     -0.317391     0.0016824
         2.33     -0.317754    0.00169722
         2.34     -0.318114    0.00171214
         2.35     -0.318474    0.00172712
         2.36     -0.318827    0.00174212
         2.37     -0.319177    0.00175718
         2.38     -0.319524    0.00177228
         2.39     -0.319867    0.00178744
          2.4     -0.320206    0.00180265
         2.41     -0.320542    0.00181792
         2.42     -0.320875    0.00183323
         2.43     -0.321204    0.00184861
         2.44     -0.321529    0.00186403
         2.45     -0.321851     0.0018795
         2.46      -0.32217    0.00189503
         2.47     -0.322485    0.00191059
         2.48     -0.322797    0.00192624
         2.49     -0.323105    0.00194192
          2.5      -0.32341    0.00195766
         2.51     -0.323711    0.00197344
         2.52      -0.32401    0.00198929
         2.53     -0.324304    0.00200519
         2.54     -0.324596    0.00202115
         2.55     -0.324884    0.00203716
         2.56     -0.325169    0.00205323
         2.57      -0.32545    0.00206935
         2.58     -0.325729    0.00208552
         2.59     -0.326003     0.0021018
          2.6     -0.326275    0.00211803
         2.61     -0.326543    0.00213442
         2.62     -0.326809    0.00215073
         2.63      -0.32707    0.00216728
         2.64     -0.327329    0.00218373
         2.65     -0.327585    0.00220031
         2.66     -0.327837    0.00221693
         2.67     -0.328087    0.00223361
         2.68     -0.328333    0.00225034
         2.69     -0.328576    0.00226708
          2.7     -0.328816    0.00228396
         2.71     -0.329052    0.00230086
         2.72     -0.329286    0.00231782
         2.73     -0.329517    0.00233483
         2.74     -0.329744    0.00235191
         2.75     -0.329969    0.00236904
         2.76      -0.33019    0.00238623
         2.77     -0.330409    0.00240347
         2.78     -0.330625    0.00242078
         2.79     -0.330837    0.00243814
          2.8     -0.331047    0.00245556
         2.81     -0.331254    0.00247301
         2.82     -0.331457    0.00249057
         2.83     -0.331658    0.00250817
         2.84     -0.331856    0.00252583
         2.85     -0.332051    0.00254354
         2.86     -0.332244    0.00256132
         2.87     -0.332433    0.00257915
         2.88      -0.33262    0.00259704
         2.89     -0.332804    0.00261499
          2.9     -0.332985      0.002633
         2.91     -0.333163    0.00265106
         2.92     -0.333339     0.0026692
         2.93     -0.333511    0.00268738
         2.94     -0.333275    0.00275963
         2.95     -0.333764    0.00272086
         2.96     -0.333609    0.00279573
         2.97     -0.333739    0.00281101
         2.98     -0.333887    0.00282864
         2.99     -0.334047    0.00284741
            3     -0.334203     0.0028662
         3.01     -0.334354    0.00288497
         3.02     -0.334502    0.00290381
         3.03     -0.334648    0.00292384
         3.04     -0.334791    0.00294271
         3.05     -0.334932    0.00296166
         3.06     -0.335072    0.00298064
         3.07     -0.335209    0.00299967
         3.08     -0.335344     0.0030187
         3.09     -0.335477    0.00303782
          3.1     -0.335608     0.0030569
         3.11     -0.335737    0.00307608
         3.12     -0.335863    0.00309534
         3.13     -0.335988     0.0031146
         3.14      -0.33611    0.00313395
         3.15      -0.33623    0.00315328
         3.16     -0.336348    0.00317271
         3.17     -0.336464    0.00319221
         3.18     -0.336578    0.00321177
         3.19      -0.33669    0.00323131
          3.2       -0.3368    0.00325096
         3.21     -0.336908    0.00327068
         3.22     -0.337013     0.0032904
         3.23     -0.337117    0.00331023
         3.24     -0.337219    0.00333008
         3.25     -0.337318    0.00335001
         3.26     -0.337416    0.00336995
         3.27     -0.337512    0.00338998
         3.28     -0.337606    0.00341007
         3.29     -0.337698    0.00343022
          3.3     -0.337788     0.0034504
         3.31     -0.337876    0.00347066
         3.32     -0.337962    0.00349097
         3.33     -0.338047    0.00351134
         3.34     -0.338129    0.00353176
         3.35      -0.33821    0.00355223
         3.36     -0.338289    0.00357275
         3.37     -0.338366    0.00359334
         3.38     -0.338442    0.00361397
         3.39     -0.338515    0.00363429
          3.4     -0.338588    0.00365537
         3.41     -0.338658    0.00367618
         3.42     -0.338726     0.0036967
         3.43     -0.338793    0.00371754
         3.44     -0.338859     0.0037385
         3.45     -0.338923    0.00375951
         3.46     -0.338985    0.00378056
         3.47     -0.339046    0.00380168
         3.48     -0.339105    0.00382284
         3.49     -0.339162    0.00384405
          3.5     -0.339218    0.00386528
         3.51     -0.339273    0.00388656
         3.52     -0.339326    0.00390792
         3.53     -0.339378    0.00392929
         3.54     -0.339428    0.00395071
         3.55     -0.339477     0.0039722
         3.56     -0.339523    0.00399313
         3.57     -0.339572    0.00401529
         3.58     -0.339615     0.0040362
         3.59     -0.339661    0.00405856
          3.6     -0.339701    0.00407957
         3.61     -0.339744     0.0041021
         3.62     -0.339782     0.0041232
         3.63     -0.339823    0.00414589
         3.64      -0.33986    0.00416784
         3.65     -0.339897    0.00418992
         3.66     -0.339932    0.00421207
         3.67     -0.339966    0.00423426
         3.68     -0.339999    0.00425648
         3.69      -0.34003     0.0042788
          3.7     -0.340061    0.00430116
         3.71      -0.34009    0.00432359
         3.72     -0.340119    0.00434598
         3.73     -0.340146    0.00436853
         3.74     -0.340172    0.00439106
         3.75     -0.340197    0.00441367
         3.76     -0.340221     0.0044363
         3.77     -0.340245    0.00445903
         3.78     -0.340267    0.00448181
         3.79     -0.340288    0.00450457
          3.8     -0.340308     0.0045275
         3.81     -0.340328     0.0045503
         3.82     -0.340346    0.00457329
         3.83     -0.340364    0.00459624
         3.84      -0.34038    0.00461932
         3.85     -0.340396    0.00464233
         3.86     -0.340411     0.0046655
         3.87     -0.340425    0.00468868
         3.88     -0.340438    0.00471187
         3.89     -0.340451    0.00473512
          3.9     -0.340462    0.00475841
         3.91     -0.340473    0.00478186
         3.92     -0.340483    0.00480515
         3.93     -0.340493    0.00482859
         3.94     -0.340501    0.00485206
         3.95     -0.340509    0.00487561
         3.96     -0.340516    0.00489914
         3.97     -0.340523    0.00492275
         3.98     -0.340528     0.0049464
         3.99     -0.340534     0.0049701
            4     -0.340538    0.00499384
         4.01     -0.340542    0.00501759
         4.02     -0.340545    0.00504141
         4.03     -0.340547    0.00506533
         4.04     -0.340549    0.00508917
         4.05      -0.34055     0.0051131
         4.06     -0.340551    0.00513707
         4.07     -0.340551    0.00516114
         4.08      -0.34055    0.00518514
         4.09     -0.340549    0.00520926
          4.1     -0.340547    0.00523279
         4.11     -0.340545    0.00525698
         4.12     -0.340542    0.00528114
         4.13      -0.34054    0.00530596
         4.14     -0.340535    0.00532967
         4.15     -0.340531      0.005354
         4.16     -0.340526    0.00537835
         4.17      -0.34052    0.00540275
         4.18     -0.340515    0.00542718
         4.19     -0.340508    0.00545165
          4.2     -0.340501    0.00547616
         4.21     -0.340494     0.0055007
         4.22     -0.340486    0.00552527
         4.23     -0.340478    0.00554989
         4.24      -0.34047    0.00557456
         4.25     -0.340461    0.00559924
         4.26     -0.340451    0.00562394
         4.27     -0.340441     0.0056487
         4.28     -0.340431    0.00567347
         4.29      -0.34042    0.00569828
          4.3     -0.340409    0.00572313
         4.31     -0.340397    0.00574801
         4.32     -0.340385    0.00577291
         4.33     -0.340373    0.00579787
         4.34     -0.340361    0.00582281
         4.35     -0.340348    0.00584782
         4.36     -0.340334    0.00587283
         4.37      -0.34032     0.0058979
         4.38     -0.340306    0.00592297
         4.39     -0.340292    0.00594807
          4.4     -0.340277    0.00597321
         4.41     -0.340262    0.00599836
         4.42     -0.340246    0.00602355
         4.43     -0.340231    0.00604876
         4.44     -0.340215    0.00607399
         4.45     -0.340198    0.00609925
         4.46     -0.340182    0.00612453
         4.47     -0.340165    0.00614984
         4.48     -0.340147    0.00617517
         4.49      -0.34013     0.0062005
          4.5     -0.340112    0.00622588
         4.51     -0.340093    0.00625125
         4.52     -0.340075    0.00627666
         4.53     -0.340056    0.00630209
         4.54     -0.340037    0.00632752
         4.55     -0.340012    0.00635362
         4.56     -0.339998     0.0063784
         4.57     -0.339972    0.00640463
         4.58     -0.339958    0.00642941
         4.59     -0.339932    0.00645567
          4.6     -0.339917    0.00648046
         4.61     -0.339891    0.00650677
         4.62     -0.339875    0.00653157
         4.63     -0.339848    0.00655836
         4.64     -0.339832    0.00658272
         4.65     -0.339805     0.0066091
         4.66     -0.339789    0.00663392
         4.67      -0.33976    0.00666076
         4.68     -0.339744    0.00668514
         4.69     -0.339715    0.00671202
          4.7     -0.339698     0.0067364
         4.71     -0.339669     0.0067633
         4.72     -0.339652    0.00678768
         4.73     -0.339623    0.00681412
         4.74     -0.339598    0.00683969
         4.75     -0.339581    0.00686458
         4.76      -0.33955    0.00689144
         4.77     -0.339532    0.00691584
         4.78     -0.339502    0.00694277
         4.79     -0.339483    0.00696712
          4.8     -0.339452    0.00699398
         4.81     -0.339433    0.00701838
         4.82     -0.339402    0.00704527
         4.83     -0.339382    0.00706961
         4.84     -0.339351    0.00709647
         4.85     -0.339331    0.00712082
         4.86     -0.339299     0.0071477
         4.87     -0.339279    0.00717198
         4.88     -0.339246    0.00719879
         4.89     -0.339226    0.00722309
          4.9     -0.339193    0.00724992
         4.91     -0.339172    0.00727415
         4.92      -0.33914     0.0073005
         4.93     -0.339112    0.00732587
         4.94     -0.339085    0.00735135
         4.95     -0.339064    0.00737604
         4.96      -0.33903    0.00740267
         4.97     -0.339009    0.00742685
         4.98     -0.338975    0.00745349
         4.99     -0.338953     0.0074776
            5     -0.338919    0.00750411
         5.01     -0.338896    0.00752823
         5.02     -0.338862    0.00755472
         5.03     -0.338839    0.00757875
         5.04     -0.338805    0.00760518
         5.05     -0.338782    0.00762914
         5.06     -0.338747     0.0076555
         5.07     -0.338724    0.00767941
         5.08     -0.338689    0.00770568
         5.09     -0.338666    0.00772953
          5.1     -0.338631    0.00775571
         5.11     -0.338607    0.00777949
         5.12     -0.338572    0.00780553
         5.13     -0.338542    0.00782996
         5.14     -0.338512    0.00785485
         5.15     -0.338483    0.00787958
         5.16     -0.338453    0.00790433
         5.17     -0.338423    0.00792901
         5.18     -0.338392    0.00795366
         5.19     -0.338362    0.00797823
          5.2     -0.338337    0.00800209
         5.21     -0.338301    0.00802768
         5.22     -0.338276      0.008051
         5.23      -0.33824    0.00807651
         5.24     -0.338212    0.00809981
         5.25     -0.338178    0.00812506
         5.26     -0.338151    0.00814827
         5.27     -0.338117    0.00817303
         5.28     -0.338085    0.00819701
         5.29     -0.338054    0.00822101
          5.3     -0.338024     0.0082447
         5.31     -0.337992    0.00826882
         5.32     -0.337962    0.00829235
         5.33     -0.337931    0.00831607
         5.34     -0.337899    0.00833972
         5.35     -0.337866    0.00836354
         5.36     -0.337838    0.00838646
         5.37     -0.337803    0.00841046
         5.38     -0.337772    0.00843352
         5.39     -0.337739    0.00845705
          5.4     -0.337708    0.00847995
         5.41     -0.337677    0.00850306
         5.42     -0.337645    0.00852605
         5.43     -0.337613    0.00854897
         5.44     -0.337582    0.00857148
         5.45     -0.337548    0.00859455
         5.46     -0.337515     0.0086174
         5.47     -0.337582    0.00866218
         5.48     -0.337557    0.00868278
         5.49     -0.337517    0.00870532
          5.5     -0.337479    0.00872728
         5.51     -0.337442    0.00874926
         5.52     -0.337407    0.00877122
         5.53     -0.337371    0.00879306
         5.54     -0.337336    0.00881484
         5.55     -0.337301    0.00883649
         5.56     -0.337267    0.00885806
         5.57     -0.337232    0.00887951
         5.58     -0.337198    0.00890087
         5.59     -0.337163    0.00892206
          5.6     -0.337129    0.00894318
         5.61     -0.337095    0.00896418
         5.62     -0.337061    0.00898504
         5.63     -0.337026    0.00900581
         5.64     -0.336992    0.00902643
         5.65     -0.336958    0.00904691
         5.66     -0.336924    0.00906729
         5.67     -0.336892    0.00908888
         5.68     -0.336856    0.00910761
         5.69     -0.336824    0.00912892
          5.7     -0.336788    0.00914743
         5.71     -0.336756    0.00916844
         5.72     -0.336722    0.00918798
         5.73     -0.336686    0.00920609
         5.74     -0.336654    0.00922658
         5.75      -0.33662    0.00924578
         5.76     -0.336586    0.00926474
         5.77     -0.336552    0.00928356
         5.78     -0.336519    0.00930222
         5.79     -0.336485    0.00932078
          5.8     -0.336451    0.00933914
         5.81     -0.336417    0.00935734
         5.82     -0.336384     0.0093754
         5.83      -0.33635     0.0093933
         5.84     -0.336316    0.00941103
         5.85     -0.336283    0.00942864
         5.86     -0.336249    0.00944602
         5.87     -0.336215    0.00946329
         5.88     -0.336182    0.00948038
         5.89     -0.336148    0.00949727
          5.9     -0.336115    0.00951401
         5.91     -0.336081    0.00953055
         5.92     -0.336048    0.00954695
         5.93     -0.336014    0.00956315
         5.94     -0.335981    0.00957922
         5.95     -0.335947    0.00959502
         5.96     -0.335914    0.00961072
         5.97     -0.335881    0.00962621
         5.98     -0.335847    0.00964152
         5.99     -0.335814    0.00965664
            6     -0.335781    0.00967154
         6.01     -0.335747    0.00968628
         6.02     -0.335714    0.00970081
         6.03     -0.335681    0.00971515
         6.04     -0.335648    0.00972929
         6.05     -0.335615    0.00974321
         6.06     -0.335582    0.00975699
         6.07     -0.335549    0.00977054
         6.08     -0.335516    0.00978387
         6.09     -0.335483      0.009797
          6.1      -0.33545    0.00980995
         6.11     -0.335417    0.00982264
         6.12     -0.335384    0.00983517
         6.13     -0.335351    0.00984746
         6.14     -0.335318    0.00985956
         6.15     -0.335286      0.009872
         6.16     -0.335253     0.0098831
         6.17      -0.33522    0.00989448
         6.18     -0.335188    0.00990572
         6.19     -0.335155     0.0099167
          6.2     -0.335123    0.00992747
         6.21      -0.33509    0.00993803
         6.22     -0.335058    0.00994834
         6.23     -0.335025    0.00995843
         6.24     -0.334993    0.00996826
         6.25     -0.334961     0.0099779
         6.26     -0.334928    0.00998729
         6.27     -0.334896    0.00999648
         6.28     -0.334864     0.0100054
         6.29     -0.334832      0.010014
          6.3       -0.3348     0.0100225
         6.31     -0.334768     0.0100307
         6.32     -0.334736     0.0100387
         6.33     -0.334704     0.0100464
         6.34     -0.334672     0.0100538
         6.35      -0.33464     0.0100611
         6.36     -0.334609      0.010068
         6.37     -0.334577     0.0100748
         6.38     -0.334545     0.0100812
         6.39     -0.334514     0.0100875
          6.4     -0.334482     0.0100934
         6.41     -0.334451     0.0100991
         6.42     -0.334419     0.0101046
         6.43     -0.334388     0.0101098
         6.44     -0.334357     0.0101147
         6.45     -0.334325     0.0101194
         6.46     -0.334294     0.0101238
         6.47     -0.334263      0.010128
         6.48     -0.334232     0.0101319
         6.49     -0.334201     0.0101355
          6.5      -0.33417     0.0101389
         6.51     -0.334139     0.0101419
         6.52     -0.334108     0.0101447
         6.53     -0.334078     0.0101473
         6.54     -0.334047     0.0101496
         6.55     -0.334016     0.0101516
         6.56     -0.333986     0.0101533
         6.57     -0.333955     0.0101548
         6.58     -0.333925     0.0101559
         6.59     -0.333894     0.0101568
          6.6     -0.333864     0.0101573
         6.61     -0.333834     0.0101578
         6.62     -0.333804     0.0101577
         6.63     -0.333774     0.0101576
         6.64     -0.333744     0.0101571
         6.65     -0.333714     0.0101563
         6.66     -0.333684     0.0101552
         6.67     -0.333654      0.010154
         6.68     -0.333624     0.0101523
         6.69     -0.333594     0.0101505
          6.7     -0.333565     0.0101483
         6.71     -0.333535     0.0101458
         6.72     -0.333506     0.0101431
         6.73     -0.333476       0.01014
         6.74     -0.333447     0.0101366
         6.75     -0.333417      0.010133
         6.76     -0.333388      0.010129
         6.77     -0.333359     0.0101248
         6.78      -0.33333     0.0101203
         6.79     -0.333301     0.0101155
          6.8     -0.333272     0.0101103
         6.81     -0.333243     0.0101049
         6.82     -0.333214     0.0100992
         6.83     -0.333185     0.0100932
         6.84     -0.333156     0.0100869
         6.85     -0.333127     0.0100803
         6.86     -0.333099     0.0100733
         6.87      -0.33307     0.0100661
         6.88     -0.333042     0.0100586
         6.89     -0.333013     0.0100508
          6.9     -0.332985     0.0100427
         6.91     -0.332956     0.0100343
         6.92     -0.332928     0.0100255
         6.93       -0.3329     0.0100165
         6.94     -0.332872     0.0100072
         6.95     -0.332844    0.00999753
         6.96     -0.332816    0.00998761
         6.97     -0.332788    0.00997735
         6.98      -0.33276    0.00996679
         6.99     -0.332732    0.00995592
            7     -0.332704    0.00994474
         7.01     -0.332677    0.00993327
         7.02     -0.332649    0.00992148
         7.03     -0.332621    0.00990941
         7.04     -0.332594      0.009897
         7.05     -0.332566    0.00988429
         7.06     -0.332539    0.00987127
         7.07     -0.332512    0.00985797
         7.08     -0.332484    0.00984433
         7.09     -0.332457    0.00983039
          7.1      -0.33243    0.00981611
         7.11     -0.332403    0.00980153
         7.12     -0.332376    0.00978668