1.45 	0 	0 	-0.304162
2.35 	0 	0 	-0.134518
