/*--------------------------------*- C++ -*----------------------------------*\
  =========                 |
  \\      /  F ield         | OpenFOAM: The Open Source CFD Toolbox
   \\    /   O peration     | Website:  https://openfoam.org
    \\  /    A nd           | Version:  6.0
     \\/     M anipulation  |
\*---------------------------------------------------------------------------*/
FoamFile
{
    version     2.0;
    format      ascii;
    class       volScalarField;
    location    "156";
    object      p;
}
// * * * * * * * * * * * * * * * * * * * * * * * * * * * * * * * * * * * * * //

dimensions      [0 2 -2 0 0 0 0];

internalField   nonuniform List<scalar> 
34500
(
1.00601
1.00612
1.00603
1.0058
1.00545
1.00502
1.00452
1.00398
1.00344
1.00291
1.00239
1.00197
1.00148
1.00131
1.00136
1.00601
1.00616
1.00612
1.00597
1.00571
1.00537
1.00495
1.00448
1.00397
1.00345
1.00292
1.00247
1.0019
1.00182
1.00177
1.00602
1.00615
1.00609
1.0059
1.00559
1.00519
1.00472
1.00421
1.00366
1.00313
1.00259
1.00215
1.00164
1.00169
1.00162
1.00602
1.00614
1.00606
1.00584
1.0055
1.00506
1.00456
1.00402
1.00346
1.00293
1.0024
1.00199
1.00154
1.00168
1.00176
1.00602
1.00615
1.00607
1.00586
1.00552
1.0051
1.0046
1.00407
1.00352
1.00299
1.00248
1.00208
1.00165
1.00183
1.00197
1.00603
1.00616
1.0061
1.0059
1.00557
1.00516
1.00468
1.00415
1.00361
1.00308
1.00257
1.00217
1.00174
1.00194
1.0021
1.00604
1.00617
1.00611
1.00592
1.0056
1.00519
1.00471
1.00419
1.00364
1.00312
1.0026
1.00221
1.00179
1.00199
1.00218
1.00605
1.00619
1.00613
1.00593
1.00562
1.00521
1.00473
1.00421
1.00366
1.00314
1.00262
1.00223
1.00182
1.00203
1.00225
1.00606
1.0062
1.00615
1.00595
1.00564
1.00523
1.00475
1.00423
1.00369
1.00316
1.00265
1.00226
1.00186
1.00207
1.00231
1.00607
1.00622
1.00616
1.00598
1.00566
1.00526
1.00478
1.00426
1.00371
1.00319
1.00267
1.00228
1.0019
1.00209
1.00235
1.00609
1.00623
1.00618
1.006
1.00568
1.00528
1.0048
1.00428
1.00373
1.0032
1.00269
1.0023
1.00193
1.00211
1.00238
1.0061
1.00625
1.0062
1.00602
1.00571
1.0053
1.00482
1.0043
1.00375
1.00322
1.00271
1.00232
1.00196
1.00213
1.0024
1.00612
1.00627
1.00622
1.00604
1.00573
1.00533
1.00485
1.00432
1.00377
1.00324
1.00273
1.00234
1.00198
1.00214
1.00241
1.00614
1.00629
1.00624
1.00607
1.00576
1.00536
1.00487
1.00435
1.00379
1.00327
1.00275
1.00237
1.00201
1.00215
1.00241
1.00616
1.00631
1.00627
1.00609
1.00579
1.00539
1.0049
1.00437
1.00382
1.00329
1.00277
1.00239
1.00203
1.00215
1.0024
1.00618
1.00633
1.00629
1.00612
1.00582
1.00541
1.00493
1.0044
1.00385
1.00331
1.00279
1.0024
1.00205
1.00215
1.00239
1.0062
1.00635
1.00631
1.00614
1.00584
1.00544
1.00496
1.00443
1.00387
1.00333
1.00281
1.00242
1.00207
1.00215
1.00237
1.00622
1.00638
1.00634
1.00617
1.00587
1.00547
1.00498
1.00445
1.00389
1.00335
1.00282
1.00243
1.00208
1.00214
1.00235
1.00624
1.0064
1.00636
1.0062
1.0059
1.00549
1.00501
1.00447
1.00391
1.00336
1.00284
1.00244
1.00209
1.00213
1.00232
1.00627
1.00643
1.00639
1.00622
1.00592
1.00552
1.00503
1.00449
1.00393
1.00338
1.00285
1.00244
1.0021
1.00212
1.0023
1.0063
1.00646
1.00642
1.00625
1.00595
1.00554
1.00505
1.00451
1.00394
1.00339
1.00286
1.00245
1.00211
1.0021
1.00227
1.00633
1.00649
1.00645
1.00628
1.00598
1.00557
1.00508
1.00454
1.00396
1.00341
1.00287
1.00246
1.00211
1.00209
1.00224
1.00636
1.00652
1.00648
1.00632
1.00601
1.0056
1.00511
1.00456
1.00398
1.00342
1.00288
1.00247
1.00212
1.00208
1.0022
1.00639
1.00656
1.00652
1.00635
1.00604
1.00563
1.00514
1.00459
1.004
1.00344
1.0029
1.00247
1.00212
1.00206
1.00217
1.00642
1.00659
1.00655
1.00639
1.00608
1.00567
1.00517
1.00461
1.00403
1.00346
1.00291
1.00248
1.00212
1.00205
1.00214
1.00645
1.00663
1.00659
1.00643
1.00612
1.00571
1.0052
1.00464
1.00405
1.00348
1.00293
1.00249
1.00213
1.00203
1.0021
1.00649
1.00666
1.00663
1.00647
1.00616
1.00574
1.00523
1.00467
1.00408
1.0035
1.00294
1.00249
1.00213
1.00201
1.00206
1.00652
1.0067
1.00667
1.00651
1.0062
1.00578
1.00527
1.0047
1.0041
1.00351
1.00295
1.0025
1.00212
1.00199
1.00202
1.00656
1.00674
1.00671
1.00655
1.00624
1.00582
1.00531
1.00473
1.00413
1.00353
1.00296
1.0025
1.00212
1.00197
1.00198
1.0066
1.00678
1.00675
1.00659
1.00628
1.00586
1.00534
1.00476
1.00415
1.00355
1.00297
1.0025
1.00211
1.00194
1.00194
1.00664
1.00683
1.0068
1.00663
1.00632
1.0059
1.00538
1.00479
1.00417
1.00357
1.00298
1.0025
1.0021
1.00192
1.0019
1.00669
1.00687
1.00684
1.00668
1.00636
1.00594
1.00541
1.00482
1.0042
1.00358
1.00299
1.0025
1.00209
1.00189
1.00185
1.00673
1.00692
1.00689
1.00672
1.00641
1.00598
1.00545
1.00485
1.00422
1.00359
1.003
1.0025
1.00208
1.00187
1.00181
1.00677
1.00697
1.00693
1.00677
1.00645
1.00602
1.00548
1.00488
1.00424
1.00361
1.003
1.00249
1.00207
1.00184
1.00177
1.00682
1.00702
1.00698
1.00682
1.0065
1.00606
1.00552
1.00491
1.00426
1.00362
1.00301
1.00249
1.00206
1.00181
1.00172
1.00687
1.00707
1.00703
1.00687
1.00654
1.0061
1.00555
1.00494
1.00428
1.00364
1.00301
1.00248
1.00204
1.00178
1.00168
1.00692
1.00712
1.00708
1.00692
1.00659
1.00614
1.00559
1.00497
1.00431
1.00365
1.00302
1.00248
1.00203
1.00175
1.00163
1.00697
1.00717
1.00714
1.00697
1.00664
1.00619
1.00563
1.005
1.00433
1.00366
1.00302
1.00247
1.00201
1.00172
1.00159
1.00702
1.00723
1.00719
1.00703
1.00669
1.00624
1.00567
1.00504
1.00436
1.00368
1.00303
1.00246
1.00199
1.00169
1.00154
1.00708
1.00728
1.00725
1.00708
1.00675
1.00629
1.00571
1.00507
1.00438
1.00369
1.00303
1.00246
1.00198
1.00166
1.00149
1.00713
1.00734
1.00731
1.00714
1.0068
1.00634
1.00576
1.00511
1.00441
1.00371
1.00304
1.00245
1.00196
1.00163
1.00144
1.00719
1.0074
1.00737
1.0072
1.00686
1.00639
1.0058
1.00514
1.00443
1.00372
1.00304
1.00244
1.00194
1.00159
1.00139
1.00725
1.00746
1.00743
1.00726
1.00692
1.00644
1.00585
1.00518
1.00446
1.00374
1.00304
1.00243
1.00192
1.00155
1.00134
1.00731
1.00753
1.00749
1.00732
1.00697
1.00649
1.00589
1.00521
1.00448
1.00375
1.00305
1.00242
1.00189
1.00152
1.00129
1.00737
1.00759
1.00755
1.00739
1.00703
1.00655
1.00594
1.00525
1.00451
1.00377
1.00305
1.00241
1.00187
1.00148
1.00124
1.00743
1.00766
1.00762
1.00745
1.00709
1.0066
1.00598
1.00529
1.00453
1.00378
1.00305
1.0024
1.00184
1.00144
1.00119
1.0075
1.00773
1.00769
1.00751
1.00715
1.00665
1.00603
1.00532
1.00456
1.00379
1.00305
1.00238
1.00181
1.0014
1.00113
1.00756
1.0078
1.00775
1.00758
1.00721
1.00671
1.00608
1.00536
1.00458
1.0038
1.00304
1.00237
1.00179
1.00136
1.00108
1.00763
1.00787
1.00782
1.00765
1.00728
1.00677
1.00612
1.00539
1.00461
1.00381
1.00304
1.00235
1.00176
1.00132
1.00103
1.0077
1.00794
1.0079
1.00772
1.00734
1.00682
1.00617
1.00543
1.00463
1.00382
1.00304
1.00233
1.00173
1.00127
1.00097
1.00777
1.00801
1.00797
1.00779
1.00741
1.00688
1.00622
1.00547
1.00466
1.00384
1.00304
1.00232
1.0017
1.00123
1.00091
1.00785
1.00809
1.00804
1.00786
1.00748
1.00694
1.00627
1.00551
1.00468
1.00385
1.00304
1.0023
1.00167
1.00119
1.00086
1.00792
1.00817
1.00812
1.00794
1.00755
1.00701
1.00633
1.00555
1.00471
1.00386
1.00303
1.00228
1.00163
1.00114
1.0008
1.008
1.00825
1.0082
1.00802
1.00762
1.00707
1.00638
1.00559
1.00474
1.00387
1.00303
1.00227
1.0016
1.00109
1.00074
1.00808
1.00833
1.00828
1.0081
1.00769
1.00714
1.00644
1.00563
1.00477
1.00389
1.00303
1.00225
1.00157
1.00104
1.00068
1.00816
1.00842
1.00837
1.00818
1.00777
1.00721
1.00649
1.00568
1.0048
1.0039
1.00303
1.00223
1.00153
1.001
1.00061
1.00824
1.0085
1.00845
1.00826
1.00785
1.00727
1.00655
1.00572
1.00483
1.00391
1.00302
1.00221
1.0015
1.00094
1.00055
1.00833
1.00859
1.00854
1.00834
1.00792
1.00734
1.00661
1.00577
1.00486
1.00393
1.00302
1.00218
1.00146
1.00089
1.00048
1.00841
1.00868
1.00863
1.00843
1.008
1.00742
1.00667
1.00581
1.00489
1.00394
1.00301
1.00216
1.00142
1.00084
1.00042
1.0085
1.00877
1.00872
1.00852
1.00809
1.00749
1.00673
1.00586
1.00492
1.00395
1.00301
1.00214
1.00138
1.00078
1.00035
1.00859
1.00887
1.00881
1.00861
1.00817
1.00756
1.00679
1.00591
1.00495
1.00396
1.003
1.00211
1.00133
1.00073
1.00028
1.00869
1.00896
1.0089
1.0087
1.00825
1.00764
1.00685
1.00595
1.00498
1.00397
1.00299
1.00209
1.00129
1.00067
1.00021
1.00878
1.00906
1.009
1.00879
1.00834
1.00771
1.00692
1.006
1.005
1.00398
1.00298
1.00206
1.00125
1.00061
1.00014
1.00888
1.00916
1.0091
1.00889
1.00843
1.00779
1.00698
1.00605
1.00503
1.00399
1.00297
1.00203
1.0012
1.00055
1.00006
1.00898
1.00926
1.0092
1.00899
1.00852
1.00787
1.00705
1.0061
1.00506
1.004
1.00296
1.002
1.00115
1.00048
0.999988
1.00908
1.00937
1.0093
1.00909
1.00861
1.00795
1.00711
1.00615
1.0051
1.00401
1.00295
1.00197
1.00111
1.00042
0.999911
1.00918
1.00948
1.00941
1.00919
1.0087
1.00803
1.00718
1.0062
1.00513
1.00402
1.00294
1.00194
1.00106
1.00036
0.999833
1.00928
1.00959
1.00951
1.00929
1.0088
1.00812
1.00725
1.00625
1.00516
1.00404
1.00293
1.00191
1.00101
1.00029
0.999753
1.00939
1.0097
1.00962
1.0094
1.0089
1.00821
1.00732
1.0063
1.00519
1.00405
1.00292
1.00188
1.00095
1.00022
0.999671
1.0095
1.00981
1.00974
1.00951
1.009
1.00829
1.0074
1.00636
1.00523
1.00406
1.00291
1.00185
1.0009
1.00015
0.999587
1.00961
1.00993
1.00985
1.00962
1.0091
1.00839
1.00747
1.00641
1.00526
1.00407
1.0029
1.00181
1.00085
1.00008
0.999501
1.00973
1.01004
1.00997
1.00973
1.00921
1.00848
1.00755
1.00647
1.00529
1.00408
1.00289
1.00178
1.00079
1.00001
0.999413
1.00984
1.01017
1.01009
1.00985
1.00931
1.00857
1.00762
1.00653
1.00533
1.00409
1.00288
1.00174
1.00073
0.99993
0.999323
1.00996
1.01029
1.01021
1.00996
1.00942
1.00867
1.0077
1.00659
1.00537
1.0041
1.00286
1.0017
1.00067
0.999853
0.999231
1.01008
1.01041
1.01033
1.01008
1.00953
1.00877
1.00778
1.00665
1.0054
1.00411
1.00285
1.00166
1.00061
0.999773
0.999136
1.01021
1.01054
1.01046
1.01021
1.00965
1.00887
1.00787
1.00671
1.00544
1.00412
1.00283
1.00162
1.00055
0.999692
0.99904
1.01034
1.01067
1.01059
1.01033
1.00976
1.00897
1.00795
1.00677
1.00547
1.00413
1.00281
1.00158
1.00048
0.999608
0.998941
1.01046
1.01081
1.01072
1.01046
1.00988
1.00907
1.00803
1.00683
1.00551
1.00414
1.0028
1.00154
1.00042
0.999522
0.99884
1.0106
1.01094
1.01085
1.01059
1.01
1.00918
1.00812
1.00689
1.00555
1.00415
1.00278
1.00149
1.00035
0.999434
0.998737
1.01073
1.01108
1.01099
1.01072
1.01012
1.00928
1.00821
1.00696
1.00558
1.00416
1.00276
1.00145
1.00028
0.999344
0.998631
1.01087
1.01122
1.01113
1.01086
1.01025
1.00939
1.0083
1.00702
1.00562
1.00417
1.00274
1.0014
1.00021
0.999252
0.998523
1.01101
1.01137
1.01127
1.01099
1.01037
1.00951
1.00839
1.00709
1.00566
1.00418
1.00272
1.00135
1.00013
0.999158
0.998413
1.01115
1.01152
1.01142
1.01113
1.0105
1.00962
1.00848
1.00715
1.0057
1.00419
1.0027
1.0013
1.00006
0.999061
0.998299
1.01129
1.01167
1.01157
1.01128
1.01064
1.00974
1.00857
1.00722
1.00574
1.0042
1.00268
1.00125
0.999982
0.998963
0.998183
1.01144
1.01182
1.01172
1.01142
1.01077
1.00985
1.00867
1.00729
1.00578
1.00421
1.00265
1.0012
0.999903
0.998861
0.998064
1.01159
1.01198
1.01187
1.01157
1.01091
1.00998
1.00877
1.00736
1.00582
1.00422
1.00263
1.00114
0.999822
0.998757
0.997943
1.01175
1.01214
1.01203
1.01173
1.01105
1.0101
1.00887
1.00744
1.00586
1.00422
1.00261
1.00109
0.999737
0.99865
0.997817
1.0119
1.0123
1.01219
1.01188
1.01119
1.01022
1.00897
1.00751
1.0059
1.00423
1.00258
1.00103
0.999652
0.998541
0.99769
1.01206
1.01246
1.01235
1.01204
1.01134
1.01035
1.00908
1.00759
1.00594
1.00424
1.00255
1.00097
0.999563
0.998428
0.997559
1.01223
1.01263
1.01252
1.0122
1.01149
1.01048
1.00918
1.00766
1.00599
1.00425
1.00252
1.00091
0.999472
0.998313
0.997425
1.01239
1.0128
1.01269
1.01237
1.01164
1.01062
1.00929
1.00774
1.00603
1.00425
1.0025
1.00085
0.999379
0.998195
0.997288
1.01256
1.01298
1.01287
1.01254
1.0118
1.01075
1.0094
1.00782
1.00607
1.00426
1.00247
1.00078
0.999284
0.998075
0.997148
1.01273
1.01316
1.01304
1.01271
1.01196
1.01089
1.00951
1.0079
1.00612
1.00427
1.00243
1.00072
0.999185
0.99795
0.997004
1.01291
1.01334
1.01322
1.01288
1.01212
1.01103
1.00962
1.00798
1.00616
1.00427
1.0024
1.00065
0.999085
0.997824
0.996857
1.01309
1.01353
1.01341
1.01306
1.01228
1.01118
1.00974
1.00806
1.0062
1.00428
1.00237
1.00058
0.998981
0.997694
0.996706
1.01327
1.01372
1.0136
1.01324
1.01245
1.01132
1.00986
1.00814
1.00625
1.00428
1.00233
1.0005
0.998876
0.997561
0.996552
1.01346
1.01391
1.01379
1.01343
1.01262
1.01147
1.00998
1.00823
1.0063
1.00429
1.0023
1.00043
0.998768
0.997425
0.996394
1.01365
1.01411
1.01398
1.01362
1.01279
1.01162
1.0101
1.00832
1.00634
1.00429
1.00226
1.00035
0.998657
0.997286
0.996233
1.01384
1.01431
1.01418
1.01381
1.01297
1.01178
1.01023
1.0084
1.00639
1.00429
1.00222
1.00028
0.998543
0.997142
0.996067
1.01404
1.01452
1.01439
1.01401
1.01315
1.01194
1.01035
1.00849
1.00644
1.0043
1.00218
1.0002
0.998426
0.996996
0.995898
1.01424
1.01472
1.01459
1.01421
1.01334
1.0121
1.01048
1.00859
1.00649
1.0043
1.00214
1.00011
0.998305
0.996845
0.995724
1.01445
1.01494
1.01481
1.01442
1.01353
1.01227
1.01062
1.00868
1.00654
1.0043
1.0021
1.00003
0.998182
0.996691
0.995546
1.01466
1.01516
1.01502
1.01463
1.01372
1.01243
1.01075
1.00877
1.00658
1.00431
1.00205
0.999936
0.998055
0.996532
0.995364
1.01487
1.01538
1.01524
1.01484
1.01392
1.01261
1.01089
1.00887
1.00663
1.00431
1.002
0.999845
0.997925
0.996371
0.995178
1.01509
1.0156
1.01547
1.01506
1.01412
1.01278
1.01103
1.00896
1.00668
1.00431
1.00195
0.99975
0.99779
0.996204
0.994986
1.01531
1.01583
1.01569
1.01528
1.01432
1.01296
1.01117
1.00906
1.00673
1.0043
1.0019
0.999654
0.997653
0.996034
0.994792
1.01553
1.01607
1.01593
1.0155
1.01453
1.01314
1.01131
1.00916
1.00678
1.0043
1.00185
0.999553
0.997512
0.99586
0.994591
1.01576
1.01631
1.01617
1.01573
1.01475
1.01332
1.01146
1.00926
1.00683
1.0043
1.00179
0.999451
0.997368
0.995682
0.994388
1.016
1.01655
1.01641
1.01597
1.01496
1.01351
1.01161
1.00936
1.00688
1.00429
1.00174
0.999345
0.99722
0.995499
0.994178
1.01624
1.0168
1.01666
1.01621
1.01518
1.0137
1.01176
1.00947
1.00693
1.00429
1.00168
0.999238
0.997069
0.995312
0.993965
1.01648
1.01705
1.01691
1.01645
1.01541
1.0139
1.01191
1.00957
1.00698
1.00429
1.00162
0.999126
0.996913
0.995121
0.993745
1.01673
1.01731
1.01717
1.0167
1.01564
1.0141
1.01207
1.00968
1.00704
1.00428
1.00156
0.999013
0.996754
0.994925
0.993522
1.01698
1.01757
1.01743
1.01696
1.01587
1.0143
1.01223
1.00979
1.00709
1.00427
1.00149
0.998895
0.99659
0.994723
0.993292
1.01724
1.01784
1.0177
1.01722
1.01611
1.01451
1.0124
1.0099
1.00714
1.00427
1.00143
0.998774
0.996423
0.994518
0.993057
1.0175
1.01812
1.01797
1.01749
1.01636
1.01472
1.01257
1.01002
1.00719
1.00426
1.00136
0.998649
0.99625
0.994306
0.992816
1.01777
1.0184
1.01825
1.01776
1.01661
1.01494
1.01274
1.01013
1.00725
1.00425
1.00128
0.998521
0.996073
0.99409
0.99257
1.01804
1.01868
1.01854
1.01803
1.01686
1.01516
1.01291
1.01025
1.0073
1.00423
1.00121
0.998388
0.99589
0.993868
0.992318
1.01832
1.01897
1.01883
1.01832
1.01712
1.01538
1.01309
1.01037
1.00735
1.00422
1.00113
0.998251
0.995704
0.993641
0.992061
1.0186
1.01927
1.01912
1.0186
1.01739
1.01561
1.01327
1.01049
1.00741
1.0042
1.00105
0.99811
0.995512
0.993407
0.991796
1.01889
1.01957
1.01943
1.0189
1.01766
1.01584
1.01345
1.01061
1.00746
1.00419
1.00096
0.997965
0.995315
0.993169
0.991527
1.01919
1.01988
1.01973
1.0192
1.01794
1.01608
1.01363
1.01073
1.00751
1.00417
1.00088
0.997815
0.995113
0.992925
0.991251
1.01949
1.02019
1.02005
1.0195
1.01822
1.01632
1.01382
1.01085
1.00756
1.00415
1.00079
0.997662
0.994906
0.992675
0.990969
1.0198
1.02051
1.02037
1.01981
1.0185
1.01657
1.01401
1.01098
1.00761
1.00412
1.00069
0.997503
0.994693
0.992419
0.99068
1.02011
1.02084
1.0207
1.02013
1.0188
1.01682
1.01421
1.0111
1.00767
1.0041
1.00059
0.997341
0.994475
0.992157
0.990385
1.02043
1.02117
1.02103
1.02046
1.0191
1.01708
1.01441
1.01123
1.00772
1.00407
1.00049
0.997173
0.994251
0.991888
0.990082
1.02076
1.02151
1.02138
1.02079
1.0194
1.01734
1.01461
1.01136
1.00777
1.00404
1.00039
0.997
0.994021
0.991613
0.989774
1.02109
1.02186
1.02172
1.02113
1.01971
1.01761
1.01482
1.0115
1.00782
1.00401
1.00028
0.996822
0.993785
0.99133
0.989457
1.02143
1.02222
1.02208
1.02147
1.02003
1.01788
1.01503
1.01163
1.00787
1.00398
1.00017
0.996638
0.993543
0.991042
0.989135
1.02177
1.02258
1.02244
1.02183
1.02036
1.01816
1.01524
1.01176
1.00792
1.00394
1.00005
0.996449
0.993294
0.990745
0.988804
1.02212
1.02295
1.02282
1.02219
1.02069
1.01844
1.01545
1.0119
1.00797
1.0039
0.999926
0.996254
0.993038
0.990443
0.988466
1.02248
1.02332
1.02319
1.02255
1.02103
1.01873
1.01567
1.01204
1.00802
1.00386
0.999799
0.996053
0.992776
0.990132
0.98812
1.02285
1.02371
1.02358
1.02293
1.02137
1.01902
1.0159
1.01218
1.00806
1.00381
0.999667
0.995846
0.992507
0.989815
0.987768
1.02322
1.0241
1.02398
1.02331
1.02172
1.01932
1.01613
1.01232
1.00811
1.00377
0.999531
0.995633
0.992231
0.989489
0.987406
1.0236
1.0245
1.02438
1.02371
1.02208
1.01963
1.01636
1.01246
1.00815
1.00371
0.999389
0.995414
0.991948
0.989157
0.987038
1.02399
1.02491
1.02479
1.02411
1.02245
1.01994
1.01659
1.0126
1.0082
1.00366
0.999242
0.995188
0.991657
0.988815
0.98666
1.02439
1.02532
1.02521
1.02452
1.02283
1.02026
1.01683
1.01275
1.00824
1.0036
0.999091
0.994955
0.991359
0.988467
0.986275
1.0248
1.02575
1.02564
1.02493
1.02321
1.02058
1.01707
1.01289
1.00828
1.00354
0.998932
0.994715
0.991052
0.988108
0.98588
1.02521
1.02618
1.02608
1.02536
1.0236
1.02091
1.01732
1.01304
1.00832
1.00347
0.998768
0.994468
0.990737
0.987742
0.985477
1.02563
1.02663
1.02653
1.0258
1.024
1.02125
1.01757
1.01319
1.00836
1.0034
0.998597
0.994212
0.990413
0.987366
0.985064
1.02606
1.02708
1.02699
1.02624
1.02441
1.02159
1.01783
1.01333
1.00839
1.00332
0.99842
0.993948
0.99008
0.986982
0.984643
1.0265
1.02754
1.02746
1.0267
1.02482
1.02194
1.01808
1.01348
1.00842
1.00324
0.998234
0.993675
0.989738
0.986587
0.984211
1.02695
1.02801
1.02794
1.02716
1.02525
1.0223
1.01835
1.01363
1.00845
1.00315
0.998042
0.993394
0.989387
0.986183
0.983771
1.02741
1.0285
1.02842
1.02764
1.02568
1.02266
1.01861
1.01378
1.00848
1.00306
0.997841
0.993103
0.989025
0.985769
0.983321
1.02788
1.02899
1.02892
1.02812
1.02612
1.02303
1.01888
1.01393
1.0085
1.00296
0.997633
0.992804
0.988655
0.985345
0.982861
1.02835
1.02949
1.02943
1.02862
1.02658
1.02341
1.01915
1.01408
1.00852
1.00285
0.997415
0.992494
0.988273
0.984911
0.982391
1.02884
1.03001
1.02996
1.02913
1.02704
1.02379
1.01943
1.01423
1.00853
1.00274
0.99719
0.992176
0.987882
0.984467
0.981911
1.02934
1.03053
1.03049
1.02964
1.02751
1.02418
1.01971
1.01438
1.00855
1.00262
0.996955
0.991846
0.98748
0.984013
0.981421
1.02985
1.03107
1.03103
1.03017
1.02799
1.02458
1.01999
1.01452
1.00855
1.00249
0.996712
0.991508
0.987068
0.983548
0.980921
1.03037
1.03162
1.03159
1.03072
1.02848
1.02498
1.02028
1.01467
1.00856
1.00236
0.996459
0.991158
0.986645
0.983071
0.980409
1.0309
1.03218
1.03216
1.03127
1.02899
1.0254
1.02057
1.01482
1.00855
1.00222
0.996196
0.990798
0.986211
0.982584
0.979888
1.03144
1.03275
1.03275
1.03184
1.0295
1.02582
1.02086
1.01496
1.00855
1.00207
0.995923
0.990426
0.985764
0.982085
0.979354
1.03199
1.03334
1.03334
1.03242
1.03002
1.02624
1.02116
1.01511
1.00853
1.00191
0.99564
0.990042
0.985306
0.981575
0.97881
1.03256
1.03394
1.03395
1.03301
1.03056
1.02668
1.02146
1.01525
1.00852
1.00174
0.995345
0.989646
0.984835
0.981051
0.978254
1.03314
1.03455
1.03458
1.03362
1.03111
1.02713
1.02176
1.01539
1.00849
1.00156
0.995039
0.989238
0.984352
0.980516
0.977686
1.03373
1.03518
1.03521
1.03424
1.03167
1.02758
1.02207
1.01553
1.00846
1.00138
0.99472
0.988816
0.983855
0.979967
0.977106
1.03433
1.03582
1.03587
1.03487
1.03224
1.02804
1.02238
1.01566
1.00842
1.00118
0.994389
0.988381
0.983344
0.979406
0.976514
1.03495
1.03648
1.03654
1.03552
1.03282
1.0285
1.02269
1.0158
1.00837
1.00097
0.994043
0.987931
0.982819
0.97883
0.975908
1.03558
1.03715
1.03722
1.03618
1.03342
1.02898
1.023
1.01592
1.00831
1.00075
0.993684
0.987467
0.98228
0.978242
0.975291
1.03622
1.03784
1.03792
1.03686
1.03403
1.02946
1.02331
1.01605
1.00825
1.00051
0.99331
0.986987
0.981726
0.977639
0.97466
1.03688
1.03854
1.03864
1.03756
1.03465
1.02996
1.02363
1.01617
1.00817
1.00026
0.992921
0.986492
0.981157
0.977022
0.974016
1.03755
1.03926
1.03937
1.03827
1.03528
1.03045
1.02395
1.01628
1.00809
0.999998
0.992516
0.985981
0.980572
0.97639
0.973359
1.03824
1.03999
1.04012
1.039
1.03593
1.03096
1.02427
1.01639
1.00799
0.999721
0.992094
0.985453
0.979971
0.975744
0.972689
1.03895
1.04075
1.04089
1.03975
1.03659
1.03148
1.02458
1.01649
1.00788
0.999427
0.991656
0.984908
0.979354
0.975082
0.972004
1.03967
1.04152
1.04168
1.04051
1.03727
1.032
1.0249
1.01658
1.00775
0.999118
0.9912
0.984346
0.978721
0.974405
0.971307
1.0404
1.04231
1.04249
1.0413
1.03796
1.03253
1.02522
1.01666
1.00762
0.998792
0.990726
0.983765
0.97807
0.973712
0.970594
1.04116
1.04312
1.04332
1.0421
1.03867
1.03307
1.02554
1.01674
1.00747
0.998448
0.990233
0.983167
0.977402
0.973004
0.969868
1.04193
1.04395
1.04416
1.04292
1.03939
1.03361
1.02585
1.01681
1.0073
0.998086
0.989721
0.982548
0.976716
0.972279
0.969127
1.04272
1.0448
1.04503
1.04376
1.04012
1.03417
1.02617
1.01686
1.00712
0.997704
0.989189
0.981911
0.976012
0.971538
0.968372
1.04353
1.04567
1.04593
1.04462
1.04087
1.03473
1.02648
1.01691
1.00692
0.997302
0.988635
0.981253
0.975288
0.97078
0.967601
1.04436
1.04656
1.04684
1.0455
1.04164
1.03529
1.02679
1.01694
1.0067
0.996879
0.988059
0.980574
0.974546
0.970005
0.966816
1.04521
1.04747
1.04778
1.04641
1.04242
1.03587
1.02709
1.01696
1.00646
0.996433
0.987461
0.979873
0.973784
0.969212
0.966015
1.04608
1.04841
1.04874
1.04734
1.04322
1.03644
1.02739
1.01697
1.0062
0.995964
0.986839
0.97915
0.973002
0.968402
0.965199
1.04697
1.04937
1.04973
1.04829
1.04404
1.03703
1.02768
1.01695
1.00592
0.99547
0.986192
0.978404
0.972199
0.967573
0.964367
1.04788
1.05036
1.05074
1.04926
1.04487
1.03762
1.02796
1.01692
1.00562
0.994951
0.98552
0.977634
0.971376
0.966727
0.96352
1.04881
1.05137
1.05178
1.05026
1.04572
1.03821
1.02824
1.01688
1.00529
0.994404
0.984821
0.97684
0.970531
0.965862
0.962656
1.04977
1.0524
1.05285
1.05128
1.04658
1.03881
1.0285
1.01681
1.00493
0.993829
0.984095
0.976022
0.969664
0.964978
0.961777
1.05075
1.05347
1.05394
1.05233
1.04746
1.03941
1.02875
1.01672
1.00455
0.993225
0.983341
0.975177
0.968774
0.964074
0.960881
1.05176
1.05456
1.05507
1.05341
1.04836
1.04001
1.029
1.0166
1.00414
0.99259
0.982558
0.974307
0.967862
0.963152
0.959969
1.05279
1.05568
1.05622
1.05451
1.04928
1.04061
1.02922
1.01646
1.00369
0.991923
0.981744
0.973409
0.966927
0.96221
0.95904
1.05385
1.05683
1.05741
1.05564
1.05021
1.04121
1.02943
1.0163
1.00322
0.991223
0.9809
0.972485
0.965969
0.961248
0.958094
1.05494
1.05802
1.05863
1.0568
1.05116
1.04182
1.02962
1.0161
1.00271
0.990487
0.980023
0.971532
0.964986
0.960266
0.957132
1.05605
1.05923
1.05988
1.05799
1.05212
1.04241
1.02979
1.01587
1.00216
0.989716
0.979113
0.97055
0.96398
0.959264
0.956152
1.05719
1.06048
1.06117
1.05921
1.0531
1.04301
1.02994
1.01561
1.00157
0.988907
0.97817
0.969539
0.962948
0.958241
0.955155
1.05837
1.06176
1.0625
1.06046
1.05409
1.0436
1.03007
1.01531
1.00095
0.988059
0.977191
0.968499
0.961892
0.957198
0.954141
1.05957
1.06308
1.06387
1.06174
1.0551
1.04418
1.03016
1.01497
1.00028
0.98717
0.976176
0.967427
0.96081
0.956133
0.953109
1.06081
1.06444
1.06527
1.06306
1.05613
1.04475
1.03023
1.01459
0.999564
0.986239
0.975124
0.966325
0.959703
0.955048
0.95206
1.06208
1.06584
1.06672
1.06441
1.05716
1.0453
1.03026
1.01417
0.998803
0.985264
0.974034
0.96519
0.95857
0.953941
0.950993
1.06339
1.06727
1.06821
1.06579
1.05821
1.04585
1.03026
1.01369
0.997993
0.984244
0.972906
0.964024
0.95741
0.952812
0.949909
1.06473
1.06875
1.06974
1.06721
1.05927
1.04637
1.03022
1.01317
0.997132
0.983177
0.971737
0.962825
0.956224
0.951662
0.948806
1.06612
1.07028
1.07132
1.06866
1.06034
1.04687
1.03013
1.01259
0.996216
0.982062
0.970528
0.961592
0.95501
0.95049
0.947686
1.06754
1.07185
1.07295
1.07015
1.06141
1.04735
1.02999
1.01196
0.995245
0.980897
0.969276
0.960325
0.95377
0.949296
0.946547
1.069
1.07346
1.07463
1.07167
1.0625
1.0478
1.0298
1.01126
0.994214
0.979681
0.967983
0.959025
0.952502
0.94808
0.945391
1.0705
1.07513
1.07636
1.07323
1.06358
1.04822
1.02956
1.0105
0.993122
0.978411
0.966645
0.957689
0.951206
0.946842
0.944216
1.07204
1.07685
1.07815
1.07483
1.06466
1.0486
1.02925
1.00968
0.991966
0.977087
0.965263
0.956318
0.949883
0.945582
0.943024
1.07364
1.07863
1.07999
1.07646
1.06574
1.04893
1.02888
1.00877
0.990744
0.975707
0.963837
0.954912
0.948531
0.944299
0.941813
1.07528
1.08046
1.08189
1.07813
1.06682
1.04922
1.02843
1.0078
0.989453
0.974269
0.962364
0.953469
0.947152
0.942994
0.940585
1.07696
1.08235
1.08385
1.07983
1.06788
1.04945
1.02791
1.00674
0.98809
0.972773
0.960845
0.951991
0.945744
0.941667
0.939338
1.0787
1.08431
1.08587
1.08157
1.06892
1.04962
1.0273
1.0056
0.986654
0.971217
0.959279
0.950476
0.944309
0.940318
0.938074
1.0805
1.08633
1.08796
1.08334
1.06995
1.04973
1.0266
1.00437
0.985141
0.9696
0.957665
0.948924
0.942845
0.938946
0.936792
1.08235
1.08842
1.09012
1.08514
1.07095
1.04975
1.02581
1.00304
0.98355
0.967919
0.956003
0.947336
0.941353
0.937553
0.935493
1.08426
1.09059
1.09235
1.08698
1.07191
1.04969
1.02491
1.00162
0.981878
0.966176
0.954293
0.945712
0.939832
0.936138
0.934175
1.08622
1.09283
1.09465
1.08883
1.07283
1.04954
1.0239
1.0001
0.980123
0.964368
0.952534
0.94405
0.938285
0.934701
0.932841
1.08826
1.09515
1.09703
1.09071
1.07371
1.04929
1.02277
0.998471
0.978282
0.962495
0.950726
0.942353
0.936709
0.933243
0.931489
1.09036
1.09757
1.09949
1.09261
1.07452
1.04892
1.02152
0.996733
0.976355
0.960555
0.948868
0.940618
0.935106
0.931764
0.93012
1.09253
1.10007
1.10202
1.09452
1.07526
1.04843
1.02014
0.994881
0.974339
0.958549
0.946962
0.938848
0.933476
0.930263
0.928734
1.09477
1.10267
1.10463
1.09644
1.07592
1.04781
1.01862
0.992911
0.972232
0.956476
0.945007
0.937042
0.931819
0.928742
0.927331
1.09709
1.10537
1.10733
1.09836
1.07648
1.04703
1.01695
0.990821
0.970034
0.954336
0.943003
0.935201
0.930136
0.9272
0.925912
1.09949
1.10817
1.11011
1.10027
1.07694
1.0461
1.01512
0.988606
0.967744
0.952129
0.940952
0.933325
0.928427
0.925639
0.924478
1.10198
1.1111
1.11297
1.10216
1.07727
1.04499
1.01313
0.986263
0.96536
0.949855
0.938852
0.931414
0.926693
0.924058
0.923027
1.10455
1.11414
1.11591
1.10402
1.07746
1.0437
1.01097
0.98379
0.962881
0.947514
0.936706
0.92947
0.924935
0.922458
0.921561
1.10723
1.11731
1.11894
1.10584
1.07748
1.0422
1.00864
0.981185
0.960309
0.945107
0.934513
0.927494
0.923152
0.92084
0.920081
1.11
1.12062
1.12204
1.1076
1.07733
1.04049
1.00612
0.978445
0.957643
0.942634
0.932276
0.925486
0.921346
0.919203
0.918585
1.11288
1.12407
1.12522
1.10927
1.07698
1.03854
1.00341
0.97557
0.954884
0.940098
0.929995
0.923447
0.919517
0.917549
0.917076
1.11588
1.12767
1.12846
1.11085
1.0764
1.03635
1.0005
0.972558
0.952032
0.937499
0.927671
0.921379
0.917667
0.915878
0.915553
1.119
1.13143
1.13177
1.11231
1.07557
1.03391
0.997397
0.969412
0.949089
0.934839
0.925307
0.919283
0.915796
0.914191
0.914016
1.12225
1.13536
1.13513
1.11362
1.07446
1.03118
0.994087
0.966129
0.946056
0.932119
0.922903
0.917159
0.913906
0.912488
0.912467
1.12564
1.13946
1.13853
1.11475
1.07305
1.02817
0.990572
0.962714
0.942937
0.929342
0.920462
0.91501
0.911996
0.910771
0.910905
1.12918
1.14375
1.14195
1.11567
1.07131
1.02485
0.986848
0.959167
0.939733
0.926511
0.917985
0.912837
0.91007
0.90904
0.909331
1.13289
1.14823
1.14538
1.11635
1.06921
1.02123
0.982917
0.955492
0.936448
0.923628
0.915476
0.910642
0.908126
0.907295
0.907746
1.13677
1.1529
1.14878
1.11674
1.06672
1.01728
0.97878
0.951693
0.933085
0.920695
0.912936
0.908427
0.906168
0.905538
0.90615
1.14084
1.15779
1.15215
1.11681
1.06381
1.01299
0.974441
0.947775
0.929649
0.917717
0.910368
0.906192
0.904195
0.903769
0.904544
1.14512
1.16287
1.15542
1.11649
1.06045
1.00837
0.969903
0.943744
0.926143
0.914697
0.907774
0.903941
0.90221
0.901989
0.902928
1.14963
1.16817
1.15858
1.11575
1.0566
1.00341
0.965176
0.939606
0.922572
0.911639
0.905158
0.901675
0.900213
0.900199
0.901303
1.15438
1.17367
1.16158
1.11453
1.05225
0.998112
0.960267
0.935369
0.918942
0.908546
0.902523
0.899396
0.898206
0.898401
0.899669
1.15941
1.17938
1.16435
1.11277
1.04736
0.992473
0.955187
0.931041
0.915259
0.905423
0.899871
0.897106
0.896191
0.896594
0.898027
1.16473
1.18527
1.16685
1.11041
1.04191
0.986504
0.94995
0.926629
0.911527
0.902276
0.897206
0.894808
0.894168
0.894781
0.896377
1.17037
1.19134
1.169
1.10738
1.03589
0.980217
0.944571
0.922144
0.907753
0.899108
0.894532
0.892504
0.89214
0.892961
0.89472
1.17638
1.19755
1.17072
1.10363
1.02928
0.973629
0.939065
0.917595
0.903945
0.895925
0.891852
0.890196
0.890107
0.891136
0.893057
1.18277
1.20389
1.17192
1.09909
1.02208
0.966763
0.933452
0.912992
0.900109
0.892732
0.889169
0.887886
0.888072
0.889307
0.891387
1.18959
1.2103
1.17251
1.09369
1.01427
0.959645
0.927749
0.908345
0.896252
0.889535
0.886487
0.885577
0.886035
0.887475
0.889712
1.19688
1.21672
1.17238
1.08738
1.00588
0.952307
0.921978
0.903665
0.892381
0.886339
0.88381
0.88327
0.883999
0.88564
0.888033
1.20469
1.22309
1.17141
1.08009
0.99693
0.944786
0.916157
0.898961
0.888506
0.883151
0.881142
0.880969
0.881964
0.883805
0.886349
1.21305
1.22933
1.16948
1.07179
0.987442
0.937124
0.910309
0.894244
0.884633
0.879976
0.878486
0.878676
0.879933
0.881969
0.88466
1.22201
1.23531
1.16645
1.06242
0.977465
0.929365
0.904452
0.889526
0.880772
0.87682
0.875846
0.876393
0.877907
0.880134
0.882969
1.23162
1.24093
1.16219
1.05197
0.967057
0.921556
0.898605
0.884815
0.876931
0.87369
0.873225
0.874122
0.875887
0.8783
0.881274
1.24193
1.24601
1.15653
1.04043
0.956291
0.913746
0.892785
0.880122
0.87312
0.870592
0.870628
0.871865
0.873875
0.876469
0.879576
1.25296
1.25038
1.14935
1.02781
0.945253
0.905984
0.887009
0.875459
0.869347
0.867531
0.868058
0.869626
0.871872
0.874642
0.877877
1.26475
1.25383
1.14047
1.01415
0.934044
0.898315
0.88129
0.870836
0.865624
0.864515
0.865518
0.867406
0.869881
0.872819
0.876175
1.27732
1.2561
1.12977
0.999528
0.922774
0.89078
0.875641
0.866266
0.86196
0.861548
0.863012
0.865206
0.867902
0.871001
0.874472
1.29065
1.25691
1.11711
0.984042
0.911561
0.883414
0.87007