/*--------------------------------*- C++ -*----------------------------------*\
  =========                 |
  \\      /  F ield         | OpenFOAM: The Open Source CFD Toolbox
   \\    /   O peration     | Website:  https://openfoam.org
    \\  /    A nd           | Version:  6.0
     \\/     M anipulation  |
\*---------------------------------------------------------------------------*/
FoamFile
{
    version     2.0;
    format      ascii;
    class       surfaceScalarField;
    location    "156";
    object      phi;
}
// * * * * * * * * * * * * * * * * * * * * * * * * * * * * * * * * * * * * * //

dimensions      [0 3 -1 0 0 0 0];

internalField   nonuniform List<scalar> 
68636
(
3.0227e-05
0.00310561
4.16192e-09
6.08421e-05
0.00307074
9.10909e-05
0.00300251
0.000120479
0.00290143
0.000148622
0.00276852
0.00017517
0.00260524
0.000199813
0.00241336
0.000222264
0.002195
0.000242267
0.00195255
0.000259594
0.00168863
0.000274046
0.00140615
0.000285468
0.00110791
0.000293776
0.000797469
0.000298759
0.000476854
0.000139055
0.000295963
2.99461e-05
0.00307565
1.04266e-08
6.02831e-05
0.0030404
9.02566e-05
0.00297253
0.000119377
0.00287231
0.000147263
0.00274064
0.000173569
0.00257894
0.000197986
0.00238895
0.000220232
0.00217276
0.000240052
0.00193274
0.000257221
0.00167147
0.000271542
0.00139183
0.000282848
0.00109661
0.00029116
0.000789168
0.000295648
0.000472383
0.000141223
0.000293509
2.96674e-05
0.00304597
1.65153e-08
5.97285e-05
0.00301034
8.94294e-05
0.00294283
0.000118285
0.00284345
0.000145917
0.00271301
0.000171984
0.00255287
0.00019618
0.00236476
0.000218223
0.00215072
0.000237863
0.0019131
0.000254874
0.00165446
0.000269066
0.00137764
0.000280252
0.00108543
0.000288492
0.000780927
0.000293188
0.000467685
0.000142224
0.000292179
2.93913e-05
0.00301655
2.2616e-08
5.9179e-05
0.00298055
8.86099e-05
0.0029134
0.000117204
0.00281486
0.000144585
0.00268563
0.000170415
0.00252704
0.00019439
0.00234078
0.000216233
0.00212888
0.000235693
0.00189364
0.000252549
0.00163761
0.000266612
0.00136358
0.000277682
0.00107437
0.000285805
0.000772815
0.000290588
0.000462916
0.000142598
0.000290236
2.91176e-05
0.00298741
2.87787e-08
5.86344e-05
0.00295104
8.77979e-05
0.00288424
0.000116132
0.00278653
0.000143264
0.0026585
0.000168859
0.00250145
0.000192616
0.00231703
0.00021426
0.00210723
0.000233543
0.00187436
0.000250243
0.00162091
0.000264178
0.00134965
0.000275141
0.0010634
0.000283132
0.000764821
0.000287879
0.000458166
0.000142501
0.000287965
2.88463e-05
0.00295852
3.50261e-08
5.80947e-05
0.00292179
8.6993e-05
0.00285534
0.000115069
0.00275845
0.000141955
0.00263162
0.000167317
0.00247609
0.000190858
0.00229349
0.000212304
0.00208579
0.000231411
0.00185526
0.000247958
0.00160437
0.000261766
0.00133585
0.000272627
0.00105255
0.000280494
0.000756962
0.000285177
0.000453495
0.000142127
0.00028557
2.85772e-05
0.00292991
4.14052e-08
5.75597e-05
0.0028928
8.61953e-05
0.00282671
0.000114017
0.00273063
0.000140658
0.00260497
0.000165789
0.00245096
0.000189116
0.00227016
0.000210366
0.00206454
0.000229299
0.00183632
0.000245694
0.00158797
0.000259375
0.00132216
0.000270138
0.00104178
0.000277895
0.000749201
0.000282509
0.000448876
0.000141522
0.000283103
2.83104e-05
0.00290155
4.80156e-08
5.70294e-05
0.00286409
8.54047e-05
0.00279833
0.000112973
0.00270306
0.000139372
0.00257858
0.000164275
0.00242605
0.000187389
0.00224705
0.000208446
0.00204349
0.000227205
0.00181757
0.00024345
0.00157173
0.000257005
0.00130861
0.000267673
0.00103112
0.000275333
0.000741548
0.000279881
0.000444339
0.000140803
0.000280616
2.80459e-05
0.00287345
5.48083e-08
5.65038e-05
0.00283563
8.46212e-05
0.00277021
0.000111939
0.00267574
0.000138098
0.00255242
0.000162774
0.00240138
0.000185678
0.00222415
0.000206543
0.00202262
0.000225131
0.00179898
0.000241226
0.00155563
0.000254656
0.00129518
0.00026523
0.00102054
0.000272805
0.00073397
0.000277294
0.000439845
0.000139944
0.000278141
2.77837e-05
0.0028456
6.17446e-08
5.59828e-05
0.00280743
8.38447e-05
0.00274235
0.000110914
0.00264867
0.000136835
0.0025265
0.000161287
0.00237693
0.000183982
0.00220145
0.000204657
0.00200195
0.000223076
0.00178056
0.000239023
0.00153969
0.000252328
0.00128188
0.000262808
0.00101007
0.000270305
0.000726479
0.000274744
0.000435416
0.000139024
0.000275679
2.75237e-05
0.00281801
6.87976e-08
5.54665e-05
0.00277949
8.30751e-05
0.00271474
0.000109899
0.00262185
0.000135584
0.00250081
0.000159813
0.0023527
0.000182302
0.00217896
0.000202788
0.00198146
0.000221038
0.00176231
0.00023684
0.00152388
0.00025002
0.0012687
0.000260407
0.000999679
0.000267832
0.00071905
0.000272226
0.000431016
0.000138008
0.000273229
2.72659e-05
0.00279067
7.59241e-08
5.49547e-05
0.0027518
8.23123e-05
0.00268739
0.000108892
0.00259527
0.000134344
0.00247536
0.000158353
0.00232869
0.000180636
0.00215668
0.000200936
0.00196116
0.00021902
0.00174423
0.000234676
0.00150823
0.000247734
0.00125564
0.000258027
0.000989391
0.000265383
0.0007117
0.000269736
0.000426673
0.000136965
0.000270792
2.70104e-05
0.00276357
8.30575e-08
5.44475e-05
0.00272436
8.15563e-05
0.00266028
0.000107894
0.00256893
0.000133115
0.00245014
0.000156905
0.0023049
0.000178986
0.0021346
0.000199101
0.00194105
0.000217019
0.00172631
0.000232533
0.00149272
0.000245469
0.00124271
0.000255668
0.000979189
0.000262957
0.000704407
0.000267271
0.000422353
0.000135853
0.00026837
2.67572e-05
0.00273673
9.01459e-08
5.39447e-05
0.00269717
8.0807e-05
0.00263342
0.000106906
0.00254283
0.000131896
0.00242515
0.00015547
0.00228133
0.00017735
0.00211272
0.000197282
0.00192112
0.000215037
0.00170856
0.000230408
0.00147735
0.000243224
0.00122989
0.000253329
0.000969088
0.000260553
0.000697188
0.000264831
0.000418084
0.000134733
0.000265964
2.65061e-05
0.00271012
9.71571e-08
5.34464e-05
0.00267023
8.00644e-05
0.0026068
0.000105926
0.00251697
0.000130689
0.00240039
0.000154049
0.00225796
0.000175729
0.00209104
0.000195479
0.00190137
0.000213072
0.00169096
0.000228303
0.00146211
0.000240999
0.00121719
0.000251012
0.000959072
0.000258171
0.000690024
0.000262413
0.000413837
0.000133559
0.000263573
2.62573e-05
0.00268376
1.04064e-07
5.29525e-05
0.00264354
7.93284e-05
0.00258042
0.000104954
0.00249135
0.000129493
0.00237585
0.00015264
0.00223482
0.000174123
0.00206956
0.000193693
0.0018818
0.000211125
0.00167353
0.000226217
0.00144703
0.000238795
0.00120462
0.000248715
0.000949156
0.00025581
0.000682934
0.000260017
0.000409638
0.000132388
0.0002612
2.60107e-05
0.00265764
1.1085e-07
5.2463e-05
0.00261708
7.85989e-05
0.00255429
0.000103992
0.00246595
0.000128307
0.00235153
0.000151243
0.00221188
0.000172531
0.00204827
0.000191922
0.00186241
0.000209195
0.00165626
0.000224149
0.00143207
0.000236611
0.00119215
0.000246439
0.000939326
0.000253471
0.000675897
0.000257644
0.00040546
0.000131175
0.000258844
2.57662e-05
0.00263176
1.17509e-07
5.19778e-05
0.00259087
7.7876e-05
0.00252839
0.000103038
0.00244079
0.000127132
0.00232744
0.000149859
0.00218916
0.000170953
0.00202718
0.000190168
0.00184319
0.000207283
0.00163915
0.000222101
0.00141726
0.000234448
0.00117981
0.000244184
0.000929593
0.000251154
0.000668933
0.000255292
0.000401329
0.000129974
0.000256505
2.5524e-05
0.00260611
1.24039e-07
5.1497e-05
0.0025649
7.71595e-05
0.00250273
0.000102092
0.00241586
0.000125967
0.00230357
0.000148488
0.00216663
0.00016939
0.00200628
0.000188429
0.00182415
0.000205389
0.00162219
0.00022007
0.00140257
0.000232304
0.00116757
0.00024195
0.000919943
0.000248857
0.000662022
0.000252961
0.000397219
0.000128738
0.000254184
2.52839e-05
0.00258069
1.30439e-07
5.10205e-05
0.00253916
7.64494e-05
0.0024773
0.000101155
0.00239115
0.000124813
0.00227991
0.000147129
0.00214432
0.00016784
0.00198556
0.000186707
0.00180529
0.000203511
0.00160538
0.000218059
0.00138803
0.00023018
0.00115546
0.000239737
0.00091039
0.000246582
0.000655181
0.000250653
0.000393155
0.00012752
0.000251882
2.5046e-05
0.00255551
1.36706e-07
5.05483e-05
0.00251366
7.57457e-05
0.0024521
0.000100227
0.00236667
0.000123669
0.00225647
0.000145782
0.0021222
0.000166305
0.00196504
0.000184999
0.00178659
0.00020165
0.00158873
0.000216065
0.00137361
0.000228075
0.00114344
0.000237544
0.000900918
0.000244328
0.000648392
0.000248365
0.000389112
0.000126275
0.000249598
2.48103e-05
0.00253056
1.4284e-07
5.00803e-05
0.00248839
7.50483e-05
0.00242713
9.93067e-05
0.00234241
0.000122535
0.00223324
0.000144447
0.00210029
0.000164783
0.00194471
0.000183307
0.00176807
0.000199806
0.00157223
0.00021409
0.00135933
0.00022599
0.00113155
0.000235372
0.00089154
0.000242096
0.000641673
0.000246099
0.000385116
0.000125052
0.000247333
2.45767e-05
0.00250583
1.4884e-07
4.96165e-05
0.00246335
7.43572e-05
0.00240239
9.83948e-05
0.00231838
0.000121412
0.00221022
0.000143124
0.00207858
0.000163275
0.00192455
0.000181631
0.00174971
0.000197979
0.00155588
0.000212132
0.00134517
0.000223923
0.00111975
0.000233219
0.000882241
0.000239883
0.000635004
0.000243854
0.000381139
0.000123806
0.000245088
2.43452e-05
0.00248133
1.54713e-07
4.9157e-05
0.00243854
7.36723e-05
0.00237788
9.74911e-05
0.00229456
0.000120299
0.00218741
0.000141814
0.00205707
0.000161781
0.00190459
0.000179969
0.00173153
0.000196168
0.00153969
0.000210193
0.00133115
0.000221876
0.00110807
0.000231087
0.000873034
0.000237692
0.000628403
0.00024163
0.000377208
0.000122584
0.000242862
2.41159e-05
0.00245706
1.60471e-07
4.87015e-05
0.00241395
7.29936e-05
0.00235358
9.65955e-05
0.00227096
0.000119196
0.00216481
0.000140515
0.00203575
0.0001603
0.0018848
0.000178323
0.0017135
0.000194374
0.00152363
0.000208271
0.00131725
0.000219847
0.00109649
0.000228974
0.000863904
0.000235521
0.000621851
0.000239426
0.000373296
0.000121342
0.000240656
2.38886e-05
0.002433
1.66135e-07
4.82502e-05
0.00238959
7.23211e-05
0.00232951
9.5708e-05
0.00224757
0.000118102
0.00214242
0.000139227
0.00201462
0.000158833
0.0018652
0.000176691
0.00169565
0.000192596
0.00150773
0.000206366
0.00130348
0.000217837
0.00108502
0.00022688
0.000854864
0.00023337
0.000615366
0.000237243
0.000369429
0.000120126
0.00023847
2.36634e-05
0.00240917
1.71733e-07
4.7803e-05
0.00236545
7.16546e-05
0.00230566
9.48285e-05
0.00222439
0.000117019
0.00212023
0.000137951
0.00199369
0.000157378
0.00184577
0.000175074
0.00167795
0.000190834
0.00149197
0.000204479
0.00128984
0.000215845
0.00107365
0.000224806
0.0008459
0.000231238
0.000608929
0.00023508
0.000365581
0.000118891
0.000236303
2.34402e-05
0.00238555
1.77302e-07
4.73598e-05
0.00234153
7.09941e-05
0.00228203
9.3957e-05
0.00220143
0.000115945
0.00209824
0.000136687
0.00197295
0.000155937
0.00182652
0.000173472
0.00166042
0.000189088
0.00147635
0.000202608
0.00127632
0.000213872
0.00106239
0.000222751
0.000837024
0.000229127
0.000602558
0.000232937
0.000361777
0.000117683
0.000234155
2.32191e-05
0.00236215
1.82876e-07
4.69206e-05
0.00231783
7.03395e-05
0.00225861
9.30933e-05
0.00217868
0.000114881
0.00207645
0.000135434
0.0019524
0.000154509
0.00180744
0.000171884
0.00164304
0.000187358
0.00146088
0.000200755
0.00126292
0.000211916
0.00105123
0.000220715
0.000828222
0.000227035
0.000596233
0.000230814
0.000357991
0.000116457
0.000232027
2.29999e-05
0.00233896
1.88493e-07
4.64853e-05
0.00229435
6.96909e-05
0.0022354
9.22373e-05
0.00215613
0.000113827
0.00205486
0.000134193
0.00193203
0.000153094
0.00178854
0.000170311
0.00162582
0.000185644
0.00144554
0.000198919
0.00124965
0.000209978
0.00104017
0.000218697
0.000819506
0.000224962
0.000589973
0.00022871
0.000354249
0.000115259
0.000229918
2.27827e-05
0.00231598
1.94177e-07
4.6054e-05
0.00227107
6.90481e-05
0.00221241
9.13891e-05
0.00213379
0.000112782
0.00203347
0.000132963
0.00191185
0.000151692
0.00176981
0.000168752
0.00160876
0.000183945
0.00143035
0.000197099
0.00123649
0.000208058
0.00102921
0.000216698
0.000810863
0.000222908
0.000583759
0.000226625
0.000350525
0.000114044
0.000227828
2.25675e-05
0.00229321
1.9995e-07
4.56266e-05
0.00224802
6.84111e-05
0.00218962
9.05486e-05
0.00211165
0.000111747
0.00201227
0.000131743
0.00189185
0.000150302
0.00175126
0.000167207
0.00159186
0.000182262
0.00141529
0.000195296
0.00122346
0.000206156
0.00101835
0.000214718
0.000802304
0.000220873
0.000577608
0.00022456
0.000346844
0.000112857
0.000225757
2.23542e-05
0.00227065
2.05817e-07
4.5203e-05
0.00222517
6.77799e-05
0.00216705
8.97156e-05
0.00208972
0.000110721
0.00199127
0.000130535
0.00187204
0.000148925
0.00173286
0.000165676
0.00157511
0.000180594
0.00140037
0.00019351
0.00121054
0.000204271
0.00100759
0.000212755
0.000793816
0.000218856
0.000571502
0.000222513
0.000343181
0.000111655
0.000223703
2.21428e-05
0.0022483
2.11778e-07
4.47832e-05
0.00220253
6.71543e-05
0.00214468
8.88902e-05
0.00206798
0.000109704
0.00197045
0.000129338
0.00185241
0.00014756
0.00171464
0.000164159
0.00155851
0.000178941
0.00138559
0.00019174
0.00119775
0.000202403
0.000996929
0.000210811
0.000785411
0.000216858
0.000565459
0.000220485
0.00033956
0.000110481
0.000221669
2.19333e-05
0.00222615
2.1782e-07
4.43672e-05
0.00218009
6.65343e-05
0.00212251
8.80721e-05
0.00204644
0.000108696
0.00194983
0.000128152
0.00183295
0.000146208
0.00169659
0.000162655
0.00154206
0.000177304
0.00137094
0.000189986
0.00118506
0.000200552
0.00098636
0.000208884
0.000777076
0.000214879
0.000559459
0.000218475
0.000335958
0.000109293
0.000219652
2.17256e-05
0.0022042
2.23925e-07
4.3955e-05
0.00215786
6.592e-05
0.00210054
8.72615e-05
0.0020251
0.000107698
0.00192939
0.000126976
0.00181367
0.000144868
0.00167869
0.000161166
0.00152576
0.000175681
0.00135643
0.000188248
0.0011725
0.000198719
0.000975891
0.000206976
0.000768822
0.000212917
0.000553522
0.000216484
0.000332397
0.000108133
0.000217653
2.15198e-05
0.00218245
2.30073e-07
4.35464e-05
0.00213584
6.53112e-05
0.00207878
8.64582e-05
0.00200395
0.000106708
0.00190914
0.000125811
0.00179457
0.00014354
0.00166096
0.00015969
0.00150961
0.000174073
0.00134204
0.000186525
0.00116004
0.000196902
0.000965512
0.000205084
0.000760636
0.000210974
0.000547627
0.000214511
0.000328854
0.00010696
0.000215672
2.13157e-05
0.0021609
2.36243e-07
4.31415e-05
0.00211401
6.47078e-05
0.00205721
8.56621e-05
0.001983
0.000105728
0.00188908
0.000124657
0.00177564
0.000142224
0.0016434
0.000158227
0.00149361
0.00017248
0.00132779
0.000184819
0.0011477
0.000195101
0.000955232
0.00020321
0.00075253
0.000209048
0.000541793
0.000212555
0.000325352
0.000105815
0.000213709
2.11135e-05
0.00213954
2.42418e-07
4.27402e-05
0.00209238
6.41099e-05
0.00203584
8.48732e-05
0.00196224
0.000104756
0.00186919
0.000123513
0.00175688
0.000140921
0.00162599
0.000156778
0.00147775
0.000170901
0.00131367
0.000183128
0.00113548
0.000193317
0.00094504
0.000201353
0.00074449
0.00020714
0.000536002
0.000210618
0.000321868
0.000104658
0.000211764
2.0913e-05
0.00211838
2.48584e-07
4.23425e-05
0.00207095
6.35174e-05
0.00201467
8.40914e-05
0.00194166
0.000103793
0.00184949
0.000122379
0.0017383
0.000139629
0.00160874
0.000155342
0.00146204
0.000169336
0.00129967
0.000181453
0.00112336
0.00019155
0.000934945
0.000199514
0.000736529
0.000205249
0.00053027
0.000208698
0.000318425
0.000103529
0.000209836
2.07143e-05
0.00209741
2.54733e-07
4.19484e-05
0.00204972
6.29302e-05
0.00199369
8.33167e-05
0.00192128
0.000102839
0.00182997
0.000121256
0.00171988
0.000138348
0.00159165
0.000153919
0.00144647
0.000167786
0.00128581
0.000179793
0.00111135
0.000189799
0.000924937
0.000197691
0.000728634
0.000203376
0.00052458
0.000206796
0.000314999
0.000102387
0.000207926
2.05174e-05
0.00207663
2.60862e-07
4.15577e-05
0.00202868
6.23482e-05
0.0019729
8.2549e-05
0.00190108
0.000101894
0.00181062
0.000120142
0.00170163
0.00013708
0.00157471
0.000152509
0.00143104
0.00016625
0.00127206
0.000178148
0.00109946
0.000188063
0.000915023
0.000195885
0.000720815
0.00020152
0.000518948
0.000204911
0.000311613
0.000101274
0.000206033
2.03222e-05
0.00205604
2.66969e-07
4.11706e-05
0.00200783
6.17716e-05
0.0019523
8.17882e-05
0.00188106
0.000100957
0.00179145
0.000119039
0.00168355
0.000135823
0.00155792
0.000151111
0.00141575
0.000164728
0.00125845
0.000176518
0.00108766
0.000186344
0.000905195
0.000194095
0.000713061
0.000199681
0.000513358
0.000203043
0.000308245
0.000100148
0.000204157
2.01287e-05
0.00203564
2.73061e-07
4.0787e-05
0.00198717
6.12001e-05
0.00193188
8.10343e-05
0.00186122
0.000100028
0.00177246
0.000117946
0.00166563
0.000134577
0.0015413
0.000149727
0.0014006
0.00016322
0.00124495
0.000174903
0.00107598
0.00018464
0.00089546
0.000192322
0.000705383
0.000197858
0.000507824
0.000201192
0.000304916
9.90506e-05
0.000202299
1.99368e-05
0.00201542
2.79139e-07
4.04068e-05
0.0019667
6.06338e-05
0.00191166
8.02873e-05
0.00184157
9.91081e-05
0.00175364
0.000116863
0.00164788
0.000133343
0.00152481
0.000148355
0.00138559
0.000161726
0.00123158
0.000173303
0.0010644
0.000182952
0.000885808
0.000190565
0.000697767
0.000196053
0.000502332
0.000199358
0.000301604
9.7941e-05
0.000200457
1.97467e-05
0.00199539
2.85211e-07
4.003e-05
0.00194642
6.00726e-05
0.00189161
7.95469e-05
0.0018221
9.81964e-05
0.00173499
0.00011579
0.00163028
0.00013212
0.00150849
0.000146996
0.00137072
0.000160245
0.00121833
0.000171718
0.00105293
0.00018128
0.000876248
0.000188824
0.000690225
0.000194263
0.000496896
0.000197541
0.000298331
9.68591e-05
0.000198632
1.95582e-05
0.00197554
2.91281e-07
3.96565e-05
0.00192632
5.95164e-05
0.00187175
7.88133e-05
0.0018028
9.7293e-05
0.00171651
0.000114727
0.00161285
0.000130908
0.0014923
0.000145649
0.00135597
0.000158778
0.0012052
0.000170147
0.00104156
0.000179623
0.000866769
0.000187099
0.000682745
0.000192491
0.0004915
0.00019574
0.000295075
9.57657e-05
0.000196823
1.93714e-05
0.00195587
2.97354e-07
3.92865e-05
0.00190641
5.89653e-05
0.00185207
7.80864e-05
0.00178368
9.63978e-05
0.0016982
0.000113673
0.00159558
0.000129707
0.00147627
0.000144314
0.00134137
0.000157325
0.00119219
0.00016859
0.0010303
0.000177981
0.00085738
0.00018539
0.000675338
0.000190734
0.000486159
0.000193956
0.000291858
9.46998e-05
0.000195031
1.91863e-05
0.00193638
3.03432e-07
3.89197e-05
0.00188667
5.84191e-05
0.00183257
7.7366e-05
0.00176473
9.55108e-05
0.00168005
0.000112629
0.00157846
0.000128517
0.00146038
0.000142992
0.00132689
0.000155884
0.0011793
0.000167048
0.00101913
0.000176354
0.000848072
0.000183697
0.000667992
0.000188994
0.000480858
0.000192188
0.000288658
9.36228e-05
0.000193254
1.90028e-05
0.00191707
3.09518e-07
3.85562e-05
0.00186712
5.78779e-05
0.00181325
7.66522e-05
0.00174596
9.46318e-05
0.00166208
0.000111594
0.00156149
0.000127338
0.00144464
0.000141681
0.00131255
0.000154457
0.00116652
0.00016552
0.00100807
0.000174742
0.000838852
0.000182019
0.000660717
0.000187269
0.000475611
0.000190437
0.000285495
9.25731e-05
0.000191495
1.88209e-05
0.00189794
3.15611e-07
3.8196e-05
0.00184774
5.73416e-05
0.00179411
7.59448e-05
0.00172735
9.37608e-05
0.00164426
0.000110569
0.00154469
0.00012617
0.00142903
0.000140383
0.00129834
0.000153043
0.00115386
0.000164006
0.000997107
0.000173145
0.00082971
0.000180357
0.000653501
0.000185561
0.000470403
0.000188701
0.000282349
9.15127e-05
0.000189751
1.86406e-05
0.00187897
3.2171e-07
3.78391e-05
0.00182855
5.68101e-05
0.00177514
7.52439e-05
0.00170892
9.28977e-05
0.00162661
0.000109553
0.00152803
0.000125012
0.00141358
0.000139096
0.00128425
0.000151642
0.00114132
0.000162505
0.000986245
0.000171562
0.000820655
0.00017871
0.000646356
0.000183868
0.000465248
0.000186981
0.000279241
9.04794e-05
0.000188022
1.84619e-05
0.00186018
3.27813e-07
3.74854e-05
0.00180952
5.62835e-05
0.00175634
7.45494e-05
0.00169065
9.20425e-05
0.00160911
0.000108546
0.00151153
0.000123865
0.00139826
0.000137822
0.00127029
0.000150253
0.00112888
0.000161019
0.000975478
0.000169994
0.000811677
0.000177078
0.000639269
0.00018219
0.000460131
0.000185277
0.000276148
8.94355e-05
0.00018631
1.82848e-05
0.00184157
3.33917e-07
3.71348e-05
0.00179067
5.57616e-05
0.00173771
7.38611e-05
0.00167255
9.1195e-05
0.00159178
0.000107549
0.00149517
0.000122729
0.00138308
0.000136558
0.00125647
0.000148878
0.00111657
0.000159546
0.000964811
0.000168441
0.000802784
0.000175461
0.000632251
0.000180528
0.000455067
0.000183588
0.000273093
8.84184e-05
0.000184613
1.81092e-05
0.00182312
3.40016e-07
3.67875e-05
0.00177199
5.52445e-05
0.00171925
7.31791e-05
0.00165462
9.03553e-05
0.0015746
0.00010656
0.00147897
0.000121603
0.00136803
0.000135307
0.00124276
0.000147515
0.00110436
0.000158087
0.000954237
0.000166901
0.000793967
0.000173859
0.00062529
0.000178882
0.00045004
0.000181915
0.000270053
8.7391e-05
0.000182932
1.79353e-05
0.00180484
3.46108e-07
3.64432e-05
0.00175349
5.4732e-05
0.00170097
7.25034e-05
0.00163685
8.95233e-05
0.00155758
0.000105581
0.00146291
0.000120487
0.00135313
0.000134067
0.00122918
0.000146164
0.00109226
0.000156641
0.000943762
0.000165376
0.000785234
0.000172272
0.000618397
0.00017725
0.000445065
0.000180257
0.00026705
8.63899e-05
0.000181266
1.77629e-05
0.00178672
3.52183e-07
3.61021e-05
0.00173515
5.42243e-05
0.00168284
7.18337e-05
0.00161924
8.86988e-05
0.00154072
0.000104611
0.001447
0.000119381
0.00133836
0.000132838
0.00121572
0.000144826
0.00108027
0.000155208
0.000933378
0.000163865
0.000776574
0.000170699
0.00061156
0.000175633
0.000440126
0.000178615
0.000264063
8.53786e-05
0.000179616
1.7592e-05
0.00176877
3.58239e-07
3.57641e-05
0.00171697
5.37211e-05
0.00166489
7.11702e-05
0.00160179
8.78819e-05
0.00152401
0.000103649
0.00143123
0.000118286
0.00132372
0.000131621
0.00120239
0.0001435
0.00106839
0.000153789
0.000923092
0.000162368
0.000767997
0.000169141
0.000604789
0.000174031
0.000435238
0.000176987
0.000261111
8.43931e-05
0.000177981
1.74226e-05
0.00175098
3.64267e-07
3.54291e-05
0.00169897
5.32225e-05
0.00164709
7.05127e-05
0.0015845
8.70724e-05
0.00150744
0.000102697
0.00141561
0.0001172
0.00130922
0.000130415
0.00118917
0.000142187
0.00105662
0.000152382
0.000912894
0.000160884
0.000759493
0.000167597
0.000598073
0.000172444
0.000430386
0.000175375
0.000258174
8.33975e-05
0.00017636
1.72548e-05
0.00173336
3.70263e-07
3.50972e-05
0.00168113
5.27284e-05
0.00162946
6.98613e-05
0.00156737
8.62703e-05
0.00149104
0.000101753
0.00140012
0.000116125
0.00129485
0.000129219
0.00117608
0.000140885
0.00104495
0.000150989
0.000902792
0.000159414
0.000751069
0.000166067
0.000591423
0.000170872
0.000425584
0.000173777
0.000255274
8.24275e-05
0.000174755
1.70885e-05
0.00171589
3.76219e-07
3.47683e-05
0.00166345
5.22389e-05
0.00161199
6.92157e-05
0.00155039
8.54756e-05
0.00147478
0.000100817
0.00138478
0.000115059
0.0012806
0.000128035
0.0011631
0.000139596
0.00103339
0.000149608
0.000892777
0.000157958
0.000742716
0.000164551
0.000584827
0.000169314
0.000420817
0.000172194
0.000252387
8.14474e-05
0.000173164
1.69237e-05
0.00169859
3.82132e-07
3.44423e-05
0.00164593
5.17538e-05
0.00159468
6.85761e-05
0.00153357
8.46881e-05
0.00145866
9.98904e-05
0.00136958
0.000114003
0.00126649
0.000126862
0.00115024
0.000138318
0.00102194
0.00014824
0.000882857
0.000156515
0.000734443
0.00016305
0.000578295
0.00016777
0.000416099
0.000170625
0.000249536
8.04926e-05
0.000171588
1.67604e-05
0.00168144
3.87995e-07
3.41194e-05
0.00162857
5.12731e-05
0.00157753
6.79423e-05
0.0015169
8.39079e-05
0.0014427
9.89721e-05
0.00135452
0.000112957
0.0012525
0.000125699
0.0011375
0.000137052
0.00101058
0.000146885
0.000873022
0.000155086
0.000726239
0.000161562
0.000571815
0.000166241
0.000411416
0.000169071
0.0002467
7.9528e-05
0.000170026
1.65985e-05
0.00166445
3.93806e-07
3.37993e-05
0.00161137
5.07968e-05
0.00156053
6.73143e-05
0.00150038
8.31347e-05
0.00142688
9.80623e-05
0.00133959
0.00011192
0.00123865
0.000124547
0.00112487
0.000135797
0.000999332
0.000145542
0.000863279
0.000153669
0.000718114
0.000160088
0.000565399
0.000164725
0.000406781
0.000167531
0.000243898
7.85884e-05
0.000168478
1.64381e-05
0.00164761
3.99559e-07
3.34822e-05
0.00159432
5.03249e-05
0.00154369
6.66921e-05
0.00148401
8.23687e-05
0.0014112
9.71608e-05
0.0013248
0.000110893
0.00122491
0.000123406
0.00111236
0.000134555
0.000988181
0.000144211
0.00085362
0.000152266
0.000710057
0.000158627
0.000559035
0.000163224
0.00040218
0.000166006
0.00024111
7.76392e-05
0.000166945
1.62792e-05
0.00163092
4.05255e-07
3.3168e-05
0.00157743
4.98573e-05
0.001527
6.60755e-05
0.00146779
8.16097e-05
0.00139567
9.62675e-05
0.00131014
0.000109876
0.00121131
0.000122275
0.00109996
0.000133323
0.000977135
0.000142893
0.000844051
0.000150876
0.000702076
0.00015718
0.000552732
0.000161736
0.000397627
0.000164494
0.000238356
7.67147e-05
0.000165426
1.61217e-05
0.00161439
4.10889e-07
3.28567e-05
0.0015607
4.93939e-05
0.00151046
6.54646e-05
0.00145172
8.08576e-05
0.00138027
9.53825e-05
0.00129561
0.000108867
0.00119782
0.000121155
0.00108767
0.000132103
0.000966184
0.000141587
0.000834565
0.000149498
0.000694163
0.000155746
0.000546481
0.000160262
0.000393107
0.000162996
0.000235616
7.57808e-05
0.00016392
1.59657e-05
0.00159801
4.16461e-07
3.25482e-05
0.00154412
4.89348e-05
0.00149407
6.48593e-05
0.0014358
8.01125e-05
0.00136502
9.45056e-05
0.00128122
0.000107868
0.00118446
0.000120045
0.0010755
0.000130895
0.000955336
0.000140293
0.000825168
0.000148133
0.000686324
0.000154326
0.00054029
0.000158802
0.000388633
0.000161512
0.00023291
7.48713e-05
0.000162429
1.58111e-05
0.00158178
4.21969e-07
3.22425e-05
0.00152769
4.84799e-05
0.00147784
6.42596e-05
0.00142002
7.93742e-05
0.00134991
9.36368e-05
0.00126696
0.000106879
0.00117122
0.000118945
0.00106343
0.000129697
0.000944582
0.000139011
0.000815852
0.000146781
0.000678552
0.000152919
0.000534149
0.000157355
0.000384192
0.000160042
0.000230217
7.39524e-05
0.000160951
1.56578e-05
0.00156569
4.27414e-07
3.19396e-05
0.0015114
4.80292e-05
0.00146175
6.36653e-05
0.00140438
7.86427e-05
0.00133493
9.2776e-05
0.00125282
0.000105898
0.00115809
0.000117855
0.00105147
0.00012851
0.000933929
0.000137741
0.000806623
0.000145441
0.000670853
0.000151524
0.000528069
0.000155922
0.000379797
0.000158585
0.000227557
7.30576e-05
0.000159487
1.5506e-05
0.00154975
4.32794e-07
3.16395e-05
0.00149527
4.75826e-05
0.0014458
6.30765e-05
0.00138889
7.79179e-05
0.00132009
9.1923e-05
0.00123882
0.000104926
0.00114509
0.000116776
0.00103962
0.000127335
0.000923368
0.000136482
0.000797474
0.000144114
0.000663219
0.000150143
0.000522036
0.000154502
0.000375434
0.000157142
0.000224911
7.21536e-05
0.000158037
1.53556e-05
0.00153396
4.38111e-07
3.13421e-05
0.00147928
4.71401e-05
0.00143001
6.24931e-05
0.00137354
7.71998e-05
0.00130538
9.1078e-05
0.00122494
0.000103964
0.00113221
0.000115706
0.00102788
0.00012617
0.000912905
0.000135236
0.00078841
0.000142799
0.000655658
0.000148774
0.000516063
0.000153094
0.000371116
0.000155712
0.000222297
7.12731e-05
0.0001566
1.52066e-05
0.00151831
4.43365e-07
3.10474e-05
0.00146344
4.67016e-05
0.00141435
6.19151e-05
0.00135832
7.64882e-05
0.00129081
9.02407e-05
0.00121119
0.00010301
0.00111944
0.000114646
0.00101624
0.000125016
0.000902533
0.000134
0.000779424
0.000141496
0.00064816
0.000147418
0.000510138
0.0001517
0.00036683
0.000154296
0.000219696
7.03835e-05
0.000155176
1.50589e-05
0.0015028
4.48556e-07
3.07555e-05
0.00144775
4.62672e-05
0.00139884
6.13424e-05
0.00134325
7.57833e-05
0.00127637
8.94112e-05
0.00119756
0.000102065
0.00110678
0.000113596
0.00100471
0.000123873
0.000892258
0.000132776
0.000770522
0.000140205
0.000640733
0.000146074
0.00050427
0.000150319
0.000362587
0.000152892
0.000217127
6.95171e-05
0.000153765
1.49126e-05
0.00148744
4.53685e-07
3.04663e-05
0.00143219
4.58368e-05
0.00138347
6.0775e-05
0.00132831
7.50848e-05
0.00126206
8.85893e-05
0.00118405
0.000101128
0.00109424
0.000112556
0.000993282
0.00012274
0.000882072
0.000131564
0.000761696
0.000138926
0.000633368
0.000144743
0.00049845
0.000148951
0.000358376
0.000151501
0.000214571
6.86414e-05
0.000152367
1.47676e-05
0.00147221
4.58755e-07
3.01797e-05
0.00141678
4.54103e-05
0.00136824
6.02128e-05
0.00131351
7.43928e-05
0.00124788
8.7775e-05
0.00117067
0.000100201
0.00108182
0.000111526
0.000981958
0.000121618
0.000871981
0.000130362
0.000752953
0.000137659
0.000626073
0.000143425
0.000492686
0.000147595
0.000354208
0.000150124
0.000212046
6.77888e-05
0.000150983
1.4624e-05
0.00145712
4.63765e-07
2.98957e-05
0.00140151
4.49878e-05
0.00135315
5.96558e-05
0.00129884
7.37071e-05
0.00123382
8.69682e-05
0.00115741
9.92818e-05
0.0010695
0.000110504
0.000970734
0.000120506
0.000861978
0.000129172
0.000744285
0.000136403
0.000618839
0.000142118
0.000486968
0.000146252
0.00035007
0.000148758
0.000209534
6.6927e-05
0.000149611
1.44817e-05
0.00144217
4.68719e-07
2.96144e-05
0.00138638
4.45691e-05
0.00133819
5.91039e-05
0.0012843
7.30278e-05
0.0012199
8.61688e-05
0.00114427
9.83713e-05
0.0010573
0.000109493
0.000959613
0.000119405
0.000852067
0.000127993
0.000735698
0.00013516
0.000611674
0.000140824
0.000481306
0.000144921
0.000345976
0.000147406
0.000207052
6.6088e-05
0.000148252
1.43407e-05
0.00142736
4.73618e-07
2.93356e-05
0.00137138
4.41544e-05
0.00132337
5.85571e-05
0.0012699
7.23548e-05
0.0012061
8.53769e-05
0.00113125
9.74691e-05
0.00104521
0.00010849
0.000948591
0.000118313
0.000842242
0.000126825
0.000727185
0.000133928
0.000604569
0.000139541
0.000475689
0.000143603
0.00034191
0.000146066
0.000204583
6.52399e-05
0.000146905
1.4201e-05
0.00141268
4.78465e-07
2.90594e-05
0.00135652
4.37434e-05
0.00130869
5.80153e-05
0.00125563
7.16879e-05
0.00119243
8.45922e-05
0.00111834
9.65753e-05
0.00103323
0.000107497
0.00093767
0.000117232
0.000832509
0.000125667
0.000718751
0.000132707
0.000597531
0.000138271
0.000470127
0.000142296
0.000337887
0.000144739
0.000202145
6.44143e-05
0.000145571
1.40627e-05
0.00139813
4.83261e-07
2.87858e-05
0.0013418
4.33362e-05
0.00129414
5.74786e-05
0.00124149
7.10273e-05
0.00117888
8.38149e-05
0.00110556
9.56898e-05
0.00102135
0.000106514
0.000926844
0.000116161
0.00082286
0.000124521
0.000710389
0.000131497
0.000590551
0.000137012
0.00046461
0.000141002
0.000333893
0.000143424
0.000199718
6.35797e-05
0.000144249
1.39255e-05
0.00138372
4.88012e-07
2.85147e-05
0.00132721
4.29328e-05
0.00127972
5.69468e-05
0.00122747
7.03727e-05
0.00116546
8.30447e-05
0.00109288
9.48125e-05
0.00100958
0.000105539
0.000916119
0.0001151
0.000813301