/*--------------------------------*- C++ -*----------------------------------*\
  =========                 |
  \\      /  F ield         | OpenFOAM: The Open Source CFD Toolbox
   \\    /   O peration     | Website:  https://openfoam.org
    \\  /    A nd           | Version:  6.0
     \\/     M anipulation  |
\*---------------------------------------------------------------------------*/
FoamFile
{
    version     2.0;
    format      ascii;
    class       volScalarField;
    location    "18";
    object      p;
}
// * * * * * * * * * * * * * * * * * * * * * * * * * * * * * * * * * * * * * //

dimensions      [0 2 -2 0 0 0 0];

internalField   nonuniform List<scalar> 
8000
(
-0.322165
-0.32643
-0.328925
-0.330391
-0.331266
-0.331624
-0.331545
-0.33111
-0.330386
-0.329426
-0.328277
-0.326978
-0.325564
-0.324062
-0.3225
-0.3209
-0.31928
-0.317626
-0.31594
-0.314544
-0.322827
-0.327045
-0.3295
-0.330927
-0.331764
-0.332084
-0.331968
-0.331497
-0.330737
-0.329743
-0.328561
-0.327229
-0.325783
-0.324251
-0.322659
-0.321031
-0.319386
-0.317707
-0.315995
-0.314589
-0.324154
-0.328277
-0.33065
-0.332
-0.332759
-0.333003
-0.332813
-0.33227
-0.33144
-0.330376
-0.329126
-0.327729
-0.326219
-0.324625
-0.322973
-0.321289
-0.319591
-0.317861
-0.316098
-0.314673
-0.326149
-0.330128
-0.332377
-0.333609
-0.334251
-0.334381
-0.334079
-0.333427
-0.33249
-0.331323
-0.329971
-0.328474
-0.326867
-0.325178
-0.323436
-0.321667
-0.319888
-0.31808
-0.316238
-0.314787
-0.328819
-0.332602
-0.334683
-0.335756
-0.336241
-0.336217
-0.335765
-0.334966
-0.333887
-0.332579
-0.33109
-0.329459
-0.32772
-0.325904
-0.324038
-0.322151
-0.320262
-0.318346
-0.316398
-0.314913
-0.332172
-0.335703
-0.337569
-0.338442
-0.338727
-0.338508
-0.337867
-0.336885
-0.335625
-0.334142
-0.33248
-0.330678
-0.328771
-0.326791
-0.324767
-0.322728
-0.320697
-0.31864
-0.316555
-0.31503
-0.336219
-0.339438
-0.34104
-0.341666
-0.341708
-0.341254
-0.340385
-0.33918
-0.337704
-0.336007
-0.334135
-0.332125
-0.330013
-0.327831
-0.32561
-0.323381
-0.32117
-0.318936
-0.316679
-0.31511
-0.340975
-0.343813
-0.345097
-0.345429
-0.345183
-0.344451
-0.343314
-0.341849
-0.340119
-0.338172
-0.336052
-0.333797
-0.33144
-0.329015
-0.326553
-0.324093
-0.321659
-0.319203
-0.316733
-0.315117
-0.346452
-0.348836
-0.349742
-0.34973
-0.34915
-0.348097
-0.346653
-0.34489
-0.342869
-0.340636
-0.338231
-0.33569
-0.333047
-0.330334
-0.327586
-0.324845
-0.322139
-0.319409
-0.316676
-0.315005
-0.352666
-0.35451
-0.354976
-0.354566
-0.353605
-0.352188
-0.350397
-0.3483
-0.345953
-0.343399
-0.340672
-0.337807
-0.334834
-0.331786
-0.328699
-0.325621
-0.322582
-0.319513
-0.316453
-0.314714
-0.35963
-0.360839
-0.360795
-0.359933
-0.358541
-0.356718
-0.354542
-0.352077
-0.349372
-0.346464
-0.343382
-0.340154
-0.336809
-0.333375
-0.329891
-0.326409
-0.322964
-0.319473
-0.316001
-0.314168
-0.367351
-0.36782
-0.367193
-0.365822
-0.36395
-0.361679
-0.359083
-0.356219
-0.353128
-0.349837
-0.34637
-0.342746
-0.338986
-0.335115
-0.331168
-0.327204
-0.323262
-0.319241
-0.315242
-0.313266
-0.375831
-0.375446
-0.374159
-0.372219
-0.369819
-0.36706
-0.364012
-0.360722
-0.357222
-0.353528
-0.349653
-0.345604
-0.341392
-0.337032
-0.332553
-0.328017
-0.323464
-0.318772
-0.31408
-0.311872
-0.38506
-0.3837
-0.381672
-0.379106
-0.37613
-0.372846
-0.369318
-0.365582
-0.361657
-0.357549
-0.353253
-0.348763
-0.344071
-0.339176
-0.334095
-0.328883
-0.32358
-0.318027
-0.312403
-0.309805
-0.395014
-0.392556
-0.389706
-0.386457
-0.382861
-0.379018
-0.374987
-0.370791
-0.366437
-0.361914
-0.3572
-0.352268
-0.347087
-0.341628
-0.335881
-0.329885
-0.32366
-0.31699
-0.310072
-0.306803
-0.40565
-0.401973
-0.398226
-0.39424
-0.389982
-0.385552
-0.381001
-0.376341
-0.371563
-0.366641
-0.361533
-0.356186
-0.350537
-0.344516
-0.338068
-0.331187
-0.323847
-0.315718
-0.306968
-0.302559
-0.416909
-0.4119
-0.407185
-0.402414
-0.397459
-0.392419
-0.387339
-0.382218
-0.377035
-0.371749
-0.366299
-0.360603
-0.354559
-0.348045
-0.340934
-0.333143
-0.324552
-0.314622
-0.303321
-0.296967
-0.42871
-0.422275
-0.416532
-0.410935
-0.405253
-0.399586
-0.393972
-0.388403
-0.382847
-0.377254
-0.371545
-0.365616
-0.359324
-0.352485
-0.344874
-0.336292
-0.326476
-0.314458
-0.299361
-0.288947
-0.440958
-0.433022
-0.426204
-0.41975
-0.413319
-0.407013
-0.400868
-0.39487
-0.388986
-0.383161
-0.377314
-0.371326
-0.365024
-0.358152
-0.350353
-0.341223
-0.330134
-0.314976
-0.292408
-0.272234
-0.453543
-0.444059
-0.436137
-0.428805
-0.42161
-0.414659
-0.407988
-0.401584
-0.395422
-0.38946
-0.383638
-0.377863
-0.37199
-0.365774
-0.35883
-0.350602
-0.33992
-0.322961
-0.293256
-0.262895
-0.46635
-0.455302
-0.446263
-0.438043
-0.430077
-0.422477
-0.415284
-0.40849
-0.402086
-0.396062
-0.390411
-0.385132
-0.380236
-0.375764
-0.371837
-0.368739
-0.366775
-0.366137
-0.370698
-0.39551
-0.479263
-0.466663
-0.456512
-0.447406
-0.43867
-0.43042
-0.422702
-0.415514
-0.40886
-0.402757
-0.39724
-0.392369
-0.388246
-0.385039
-0.383038
-0.38268
-0.384402
-0.389067
-0.40137
-0.428673
-0.492172
-0.478057
-0.466818
-0.45684
-0.447342
-0.438445
-0.430197
-0.422598
-0.415661
-0.409417
-0.403923
-0.399265
-0.395573
-0.393042
-0.391955
-0.392674
-0.395487
-0.401032
-0.412583
-0.432849
-0.504976
-0.489405
-0.477114
-0.466292
-0.456049
-0.446514
-0.437734
-0.429705
-0.422444
-0.415985
-0.41039
-0.405748
-0.402184
-0.399872
-0.399039
-0.399931
-0.402687
-0.40771
-0.417274
-0.431769
-0.517586
-0.500631
-0.487338
-0.475706
-0.464746
-0.454587
-0.445276
-0.4368
-0.429172
-0.422421
-0.416601
-0.411787
-0.408079
-0.405602
-0.40451
-0.404933
-0.406876
-0.41058
-0.417767
-0.427669
-0.529917
-0.511658
-0.497422
-0.485024
-0.473381
-0.462621
-0.452781
-0.443843
-0.435806
-0.428689
-0.422527
-0.417373
-0.413289
-0.410352
-0.408641
-0.408192
-0.40892
-0.41098
-0.415762
-0.421827
-0.541891
-0.522411
-0.507294
-0.494182
-0.481894
-0.470555
-0.460194
-0.450778
-0.442291
-0.434736
-0.428127
-0.422487
-0.417843
-0.414224
-0.411651
-0.410095
-0.40942
-0.409744
-0.412232
-0.415027
-0.553424
-0.532805
-0.516875
-0.503101
-0.49021
-0.478318
-0.467441
-0.457531
-0.448553
-0.440493
-0.433342
-0.427093
-0.421742
-0.41728
-0.413684
-0.410886
-0.408729
-0.407321
-0.407646
-0.407617
-0.564427
-0.54275
-0.526074
-0.511693
-0.498241
-0.485819
-0.474431
-0.464009
-0.454502
-0.445874
-0.438094
-0.431134
-0.424962
-0.41954
-0.41482
-0.410711
-0.407058
-0.403968
-0.402266
-0.399782
-0.574796
-0.552141
-0.534787
-0.519854
-0.50588
-0.492951
-0.481055
-0.470103
-0.460026
-0.450771
-0.442291
-0.434535
-0.427455
-0.420995
-0.415093
-0.409651
-0.404526
-0.399828
-0.396241
-0.391622
-0.584413
-0.560861
-0.542896
-0.527466
-0.513009
-0.499593
-0.487188
-0.475685
-0.465001
-0.455068
-0.445823
-0.437205
-0.429155
-0.421609
-0.414499
-0.407732
-0.401187
-0.394972
-0.389645
-0.383181
-0.593142
-0.568776
-0.550271
-0.534397
-0.519494
-0.505608
-0.492691
-0.480617
-0.46929
-0.458632
-0.448571
-0.439042
-0.429981
-0.421324
-0.413007
-0.404948
-0.39705
-0.389421
-0.382501
-0.374456
-0.600831
-0.575742
-0.556767
-0.540502
-0.525187
-0.510846
-0.497413
-0.484749
-0.472748
-0.461325
-0.450409
-0.439934
-0.429838
-0.420066
-0.410563
-0.401263
-0.392093
-0.383158
-0.374796
-0.365413
-0.607314
-0.581598
-0.562229
-0.545625
-0.529931
-0.51515
-0.501197
-0.487924
-0.475221
-0.463003
-0.451203
-0.439761
-0.428626
-0.417753
-0.407101
-0.396622
-0.386271
-0.376142
-0.366487
-0.355988
-0.61241
-0.586176
-0.566489
-0.5496
-0.533561
-0.518352
-0.503876
-0.489979
-0.476552
-0.463517
-0.450816
-0.438401
-0.426235
-0.41429
-0.40254
-0.390958
-0.379522
-0.368315
-0.357512
-0.3461
-0.61593
-0.589297
-0.569375
-0.552254
-0.535904
-0.52028
-0.50528
-0.490748
-0.476583
-0.462718
-0.449111
-0.43573
-0.422557
-0.409581
-0.396796
-0.384193
-0.371773
-0.359605
-0.347796
-0.335655
-0.617681
-0.590778
-0.570709
-0.553412
-0.536783
-0.520761
-0.505238
-0.490066
-0.475155
-0.460458
-0.445951
-0.431625
-0.417481
-0.403529
-0.38978
-0.376247
-0.362948
-0.349933
-0.337256
-0.324553
-0.617466
-0.590435
-0.570308
-0.552894
-0.536022
-0.519619
-0.50358
-0.487768
-0.472114
-0.456593
-0.441206
-0.425968
-0.410902
-0.396038
-0.381407
-0.36704
-0.352967
-0.339222
-0.325809
-0.312694
-0.615091
-0.588081
-0.567995
-0.550522
-0.533446
-0.516684
-0.50014
-0.483697
-0.467311
-0.450987
-0.434751
-0.418646
-0.402719
-0.387019
-0.371595
-0.356493
-0.341756
-0.327393
-0.313371
-0.299982
-0.610367
-0.58354
-0.563593
-0.546124
-0.528884
-0.511789
-0.494758
-0.477701
-0.460607
-0.443511
-0.426471
-0.409558
-0.392841
-0.37639
-0.360269
-0.344536
-0.329245
-0.314378
-0.299867
-0.286328
-0.603117
-0.57664
-0.556935
-0.539534
-0.522175
-0.504777
-0.487285
-0.469643
-0.451875
-0.434052
-0.416265
-0.398613
-0.38119
-0.364081
-0.347364
-0.33111
-0.315375
-0.300116
-0.285232
-0.271655
-0.59317
-0.567216
-0.547859
-0.530594
-0.513164
-0.495502
-0.477585
-0.459395
-0.440999
-0.422507
-0.404044
-0.385736
-0.367699
-0.350034
-0.33283
-0.316165
-0.300098
-0.284556
-0.269411
-0.255899
-0.580378
-0.555124
-0.536224
-0.519163
-0.501715
-0.483835
-0.465536
-0.446848
-0.427884
-0.408794
-0.389738
-0.370867
-0.352318
-0.334207
-0.316628
-0.299665
-0.283379
-0.267663
-0.252363
-0.23901
-0.56461
-0.540237
-0.521901
-0.505115
-0.487709
-0.469662
-0.451036
-0.431913
-0.412453
-0.392849
-0.373294
-0.353965
-0.335016
-0.316574
-0.298736
-0.281593
-0.265199
-0.249416
-0.234063
-0.220953
-0.54576
-0.522445
-0.504782
-0.488346
-0.471044
-0.452893
-0.434006
-0.414522
-0.394651
-0.37463
-0.354682
-0.335009
-0.31578
-0.297126
-0.279151
-0.261943
-0.245553
-0.229809
-0.214499
-0.201709
-0.523746
-0.501666
-0.484783
-0.468773
-0.451645
-0.433459
-0.414387
-0.394628
-0.374445
-0.354115
-0.333893
-0.313999
-0.294614
-0.275875
-0.257885
-0.24073
-0.224455
-0.208853
-0.193679
-0.181276
-0.498512
-0.477839
-0.461843
-0.446338
-0.429458
-0.411317
-0.392147
-0.372213
-0.351828
-0.331309
-0.310939
-0.290954
-0.271545
-0.252851
-0.23497
-0.217986
-0.201935
-0.186575
-0.171625
-0.159667
-0.470034
-0.450936
-0.43593
-0.42101
-0.40446
-0.386451
-0.367283
-0.347283
-0.326818
-0.30624
-0.285856
-0.265919
-0.246623
-0.228104
-0.210457
-0.19376
-0.178041
-0.163023
-0.148379
-0.136916
-0.438319
-0.420954
-0.407041
-0.392789
-0.376655
-0.358875
-0.339816
-0.319872
-0.299457
-0.278959
-0.258706
-0.238959
-0.219914
-0.201705
-0.184418
-0.168124
-0.152842
-0.13826
-0.124001
-0.113071
-0.403405
-0.387925
-0.375203
-0.361702
-0.346077
-0.328629
-0.309798
-0.29004
-0.269817
-0.249545
-0.22957
-0.21016
-0.191509
-0.173744
-0.156942
-0.141166
-0.126426
-0.112374
-0.0985721
-0.0882037
-0.365366
-0.351912
-0.340475
-0.327811
-0.312791
-0.295788
-0.277309
-0.257876
-0.237991
-0.218097
-0.198553
-0.17963
-0.161517
-0.144332
-0.128142
-0.112997
-0.0989008
-0.0854721
-0.0721976
-0.0624071
-0.324308
-0.313012
-0.302949
-0.291208
-0.276893
-0.26045
-0.242457
-0.223492
-0.204097
-0.184738
-0.165781
-0.147496
-0.130066
-0.113598
-0.0981453
-0.0837481
-0.0703994
-0.0576865
-0.045009
-0.0358028
-0.280372
-0.271353
-0.262749
-0.252017
-0.23851
-0.222748
-0.205376
-0.187027
-0.168278
-0.149611
-0.131396
-0.113902
-0.0973002
-0.0816871
-0.0671006
-0.0535686
-0.0410754
-0.0291768
-0.0171698
-0.00854594
-0.233735
-0.227098
-0.220033
-0.210393
-0.197797
-0.182839
-0.166225
-0.148641
-0.130692
-0.112873
-0.0955565
-0.079003
-0.0633759
-0.0487568
-0.0351689
-0.0226266
-0.0111059
-0.000132544
0.011117
0.0191649
-0.184606
-0.180444
-0.174989
-0.166522
-0.15494
-0.140906
-0.125188
-0.108514
-0.0915165
-0.0746976
-0.058429
-0.0429638
-0.0284546
-0.0149704
-0.00251945
0.00889711
0.0193105
0.0292209
0.0395946
0.0470673
-0.133226
-0.131617
-0.127835
-0.120619
-0.11015
-0.0971601
-0.0824688
-0.0668458
-0.0509422
-0.0352661
-0.0201862
-0.00594797
0.00730536
0.0195152
0.0306846
0.0408237
0.0499664
0.0586298
0.0679471
0.0748133
-0.079869
-0.080874
-0.0788208
-0.0729268
-0.0636663
-0.0518318
-0.0382918
-0.0238495
-0.00917081
0.00523368
0.0189995
0.0318877
0.0437613
0.0545668
0.064312
0.0730124
0.0806974
0.0878777
0.0958515
0.101975
-0.0248377
-0.0285007
-0.0282212
-0.0237144
-0.0157493
-0.00517475
0.00710043
0.0202455
0.0335851
0.0466092
0.058958
0.0703971
0.0807911
0.0900825
0.0982716
0.10537
0.11139
0.116763
0.122815
0.127719
0.0315391
0.0251924
0.0236638
0.0267265
0.0333174
0.0425379
0.0534474
0.0651951
0.0771018
0.088662
0.0995219
0.10945
0.118305
0.12601
0.132532
0.137852
0.141911
0.144789
0.147369
0.149546
0.0889074
0.0798711
0.0765121
0.0780829
0.08323
0.091014
0.100471
0.110738
0.12114
0.131183
0.140523
0.148938
0.156283
0.162461
0.167398
0.171028
0.173126
0.172915
0.170029
0.167626
0.146891
0.13518
0.129981
0.130022
0.133667
0.139943
0.147873
0.156592
0.165435
0.173928
0.18175
0.188703
0.194668
0.199579
0.203416
0.206252
0.207983
0.207304
0.203284
0.208763
0.205121
0.190764
0.183724
0.182206
0.184298
0.189005
0.195344
0.202453
0.209688
0.216598
0.222889
0.228391
0.233019
0.236749
0.239622
0.241795
0.243296
0.243229
0.241624
0.249419
0.263199
0.246245
0.237375
0.23428
0.234781
0.237868
0.24256
0.248009
0.25359
0.258877
0.263606
0.267629
0.270887
0.273378
0.275169
0.276422
0.277168
0.276696
0.275268
0.282121
0.320726
0.301239
0.290566
0.285884
0.284768
0.286197
0.289202
0.292947
0.296834
0.300465
0.303597
0.306104
0.307946
0.309135
0.309745
0.309927
0.309702
0.308442
0.306422
0.311662
0.377306
0.355369
0.342926
0.336663
0.333915
0.333663
0.334951
0.336964
0.33913
0.341076
0.342583
0.343544
0.343928
0.343756
0.343102
0.342103
0.340766
0.338529
0.335685
0.339289
0.432549
0.408255
0.39409
0.386262
0.381883
0.37994
0.379499
0.379767
0.380199
0.380449
0.380318
0.379714
0.378615
0.377048
0.375081
0.372837
0.370312
0.367007
0.36324
0.36523
0.486071
0.459527
0.443698
0.434333
0.428339
0.424714
0.422548
0.421076
0.41978
0.418339
0.416575
0.414409
0.411826
0.408856
0.405563
0.402055
0.398324
0.393931
0.389213
0.389616
0.537502
0.508827
0.491401
0.480541
0.472963
0.467682
0.463816
0.460627
0.457628
0.454522
0.451151
0.447446
0.443401
0.439045
0.434442
0.429685
0.424765
0.419305
0.413644
0.412506
0.586487
0.555806
0.536862
0.524562
0.515446
0.508553
0.50303
0.49817
0.493513
0.488789
0.483855
0.478656
0.473191
0.467491
0.461616
0.45565
0.449583
0.443096
0.436521
0.433902
0.632686
0.600135
0.57976
0.566088
0.555498
0.547054
0.539937
0.533469
0.527219
0.520942
0.51451
0.507881
0.501058
0.494074
0.486985
0.479867
0.472711
0.465254
0.457806
0.453777
0.675779
0.641502
0.619794
0.604828
0.592842
0.582928
0.574297
0.566304
0.558546
0.550798
0.542952
0.534972
0.526869
0.518676
0.510446
0.502247
0.494074
0.485713
0.477444
0.472091
0.715468
0.679615
0.656678
0.640511
0.627223
0.615934
0.605888
0.59647
0.587304
0.578187
0.569025
0.559791
0.550499
0.541186
0.5319
0.522702
0.513592
0.504401
0.495372
0.48879
0.751476
0.714204
0.690154
0.672888
0.658405
0.645852
0.634507
0.623781
0.613324
0.602953
0.592586
0.582206
0.571831
0.561496
0.551249
0.541145
0.531186
0.521245
0.511523
0.503818
0.783555
0.745026
0.719984
0.701732
0.686175
0.672484
0.659968
0.648065
0.636448
0.624951
0.613504
0.602098
0.590753
0.579506
0.568402
0.55749
0.546776
0.536169
0.525829
0.517117
0.811479
0.771863
0.745956
0.726842
0.710341
0.695651
0.682107
0.669171
0.656537
0.644054
0.631663
0.61936
0.607168
0.595126
0.583275
0.571659
0.56029
0.549105
0.538225
0.528633
0.835055
0.794525
0.767888
0.748041
0.730738
0.715198
0.70078
0.686967
0.673469
0.660149
0.646958
0.633895
0.620988
0.608273
0.595792
0.583582
0.571661
0.55999
0.548653
0.538314
0.854117
0.81285
0.785623
0.765182
0.747227
0.730995
0.715867
0.70134
0.687141
0.673142
0.659302
0.645624
0.632137
0.618878
0.605886
0.593197
0.58083
0.568767
0.55706
0.546115
0.868531
0.826709
0.799036
0.778144
0.759694
0.742937
0.727269
0.7122
0.697469
0.682956
0.668623
0.654479
0.640554
0.626883
0.613506
0.600454
0.58775
0.575392
0.563405
0.552
0.878198
0.836004
0.808031
0.786836
0.768053
0.750943
0.734911
0.719479
0.70439
0.689531
0.674868
0.660411
0.646191
0.632245
0.618609
0.605314
0.592384
0.579828
0.567654
0.55594
0.883048
0.840667
0.812544
0.791197
0.772247
0.754959
0.738745
0.72313
0.707861
0.692828
0.678
0.663386
0.649018
0.634933
0.621167
0.607751
0.594708
0.582052
0.569784
0.557914
0.883048
0.840667
0.812544
0.791197
0.772247
0.754959
0.738745
0.72313
0.707861
0.692828
0.678
0.663386
0.649018
0.634933
0.621167
0.607751
0.594708
0.582052
0.569784
0.557915
0.878198
0.836004
0.808031
0.786836
0.768053
0.750943
0.734911
0.719479
0.70439
0.689531
0.674868
0.660412
0.646191
0.632245
0.618609
0.605314
0.592384
0.579828
0.567654
0.55594
0.868531
0.826709
0.799036
0.778144
0.759694
0.742937
0.727269
0.712201
0.697469
0.682956
0.668623
0.65448
0.640554
0.626883
0.613506
0.600454
0.58775
0.575392
0.563405
0.552
0.854117
0.81285
0.785623
0.765182
0.747227
0.730995
0.715867
0.70134
0.687141
0.673142
0.659302
0.645624
0.632137
0.618878
0.605886
0.593197
0.58083
0.568767
0.55706
0.546115
0.835055
0.794525
0.767888
0.748041
0.730739
0.715198
0.70078
0.686967
0.673469
0.660149
0.646958
0.633895
0.620988
0.608274
0.595792
0.583582
0.571661
0.55999
0.548653
0.538314
0.811479
0.771863
0.745956
0.726842
0.710341
0.695651
0.682107
0.669172
0.656537
0.644054
0.631663
0.61936
0.607169
0.595126
0.583275
0.571659
0.56029
0.549106
0.538225
0.528633
0.783555
0.745027
0.719984
0.701732
0.686175
0.672484
0.659968
0.648065
0.636448
0.624951
0.613505
0.602098
0.590754
0.579507
0.568403
0.55749
0.546777
0.536169
0.525829
0.517117
0.751477
0.714205
0.690154
0.672888
0.658406
0.645852
0.634507
0.623781
0.613324
0.602953
0.592586
0.582206
0.571831
0.561496
0.551249
0.541145
0.531186
0.521245
0.511523
0.503818
0.715468
0.679615
0.656679
0.640511
0.627224
0.615934
0.605889
0.596471
0.587305
0.578188
0.569025
0.559791
0.5505
0.541186
0.5319
0.522703
0.513593
0.504402
0.495373
0.48879
0.675779
0.641503
0.619794
0.604828
0.592843
0.582928
0.574297
0.566304
0.558546
0.550798
0.542952
0.534973
0.526869
0.518676
0.510446
0.502247
0.494074
0.485713
0.477445
0.472091
0.632686
0.600136
0.579761
0.566088
0.555498
0.547055
0.539937
0.533469
0.52722
0.520942
0.514511
0.507881
0.501058
0.494074
0.486985
0.479867
0.472711
0.465254
0.457806
0.453778
0.586487
0.555807
0.536862
0.524563
0.515447
0.508554
0.503031
0.49817
0.493513
0.488789
0.483855
0.478656
0.473191
0.467492
0.461616
0.455651
0.449583
0.443097
0.436522
0.433902
0.537503
0.508827
0.491401
0.480542
0.472963
0.467682
0.463816
0.460628
0.457628
0.454523
0.451151
0.447446
0.443401
0.439046
0.434442
0.429686
0.424766
0.419305
0.413645
0.412506
0.486071
0.459528
0.443698
0.434334
0.428339
0.424715
0.422549
0.421077
0.41978
0.41834
0.416576
0.414409
0.411827
0.408856
0.405563
0.402056
0.398324
0.393932
0.389214
0.389617
0.432549
0.408255
0.39409
0.386262
0.381883
0.379941
0.379499
0.379767
0.380199
0.380449
0.380318
0.379714
0.378616
0.377048
0.375082
0.372837
0.370313
0.367008
0.363241
0.36523
0.377307
0.355369
0.342927
0.336664
0.333916
0.333664
0.334951
0.336965
0.339131
0.341077
0.342584
0.343545
0.343929
0.343757
0.343103
0.342104
0.340767
0.338529
0.335685
0.33929
0.320727
0.30124
0.290567
0.285885
0.284769
0.286198
0.289203
0.292948
0.296835
0.300466
0.303597
0.306105
0.307947
0.309136
0.309745
0.309928
0.309703
0.308443
0.306423
0.311663
0.2632
0.246245
0.237376
0.23428
0.234782
0.237869
0.242561
0.24801
0.25359
0.258878
0.263607
0.26763
0.270887
0.273379
0.27517
0.276423
0.277169
0.276697
0.275269
0.282122
0.205122
0.190765
0.183725
0.182207
0.184299
0.189006
0.195344
0.202454
0.209689
0.216599
0.22289
0.228392
0.23302
0.23675
0.239623
0.241796
0.243297
0.24323
0.241625
0.24942
0.146892
0.135181
0.129982
0.130023
0.133668
0.139944
0.147874
0.156592
0.165436
0.173929
0.181751
0.188704
0.194669
0.19958
0.203417
0.206253
0.207984
0.207305
0.203285
0.208764
0.0889084
0.0798722
0.0765132
0.0780839
0.0832311
0.091015
0.100472
0.110739
0.121141
0.131184
0.140524
0.148939
0.156284
0.162462
0.167399
0.171029
0.173127
0.172916
0.17003
0.167627
0.0315401
0.0251935
0.023665
0.0267277
0.0333185
0.0425391
0.0534486
0.0651962
0.0771029
0.0886631
0.099523
0.109451
0.118306
0.126011
0.132533
0.137853
0.141912
0.14479
0.14737
0.149547
-0.0248365
-0.0284995
-0.02822
-0.0237132
-0.015748
-0.00517353
0.00710164
0.0202467
0.0335862
0.0466103
0.0589592
0.0703983
0.0807922
0.0900836
0.0982726
0.105371
0.111391
0.116764
0.122816
0.12772
-0.0798678
-0.0808727
-0.0788195
-0.0729254
-0.063665
-0.0518305
-0.0382905
-0.0238482
-0.00916956
0.00523491
0.0190007
0.0318889
0.0437624
0.0545679
0.0643131
0.0730136
0.0806985
0.0878788
0.0958526
0.101976
-0.133224
-0.131615
-0.127834
-0.120617
-0.110149
-0.0971587
-0.0824674
-0.0668444
-0.0509408
-0.0352648
-0.0201849
-0.00594671
0.00730661
0.0195165
0.0306858
0.0408249
0.0499676
0.058631
0.0679483
0.0748144
-0.184604
-0.180443
-0.174987
-0.16652
-0.154938
-0.140905
-0.125187
-0.108513
-0.0915151
-0.0746962
-0.0584276
-0.0429624
-0.0284533
-0.0149691
-0.00251817
0.00889838
0.0193118
0.0292222
0.0395958
0.0470685
-0.233734
-0.227097
-0.220031
-0.210391
-0.197796
-0.182837
-0.166224
-0.148639
-0.13069
-0.112871
-0.095555
-0.0790016
-0.0633745
-0.0487555
-0.0351675
-0.0226253
-0.0111046
-0.000131242
0.0111183
0.0191661
-0.280371
-0.271351
-0.262748
-0.252015
-0.238508
-0.222746
-0.205374
-0.187025
-0.168276
-0.149609
-0.131395
-0.1139
-0.0972987
-0.0816857
-0.0670991
-0.0535672
-0.0410741
-0.0291754
-0.0171685
-0.0085446
-0.324306
-0.31301
-0.302947
-0.291206
-0.276892
-0.260449
-0.242455
-0.22349
-0.204096
-0.184737
-0.16578
-0.147494
-0.130064
-0.113596
-0.0981438
-0.0837466
-0.0703979
-0.057685
-0.0450076
-0.0358014
-0.365364
-0.351911
-0.340473
-0.327809
-0.312789
-0.295786
-0.277307
-0.257874
-0.237989
-0.218096
-0.198552
-0.179628
-0.161515
-0.14433
-0.12814
-0.112996
-0.0988993
-0.0854706
-0.0721961
-0.0624057
-0.403403
-0.387923
-0.375201
-0.3617
-0.346075
-0.328627
-0.309796
-0.290038
-0.269815
-0.249543
-0.229568
-0.210158
-0.191507
-0.173742
-0.156941
-0.141165
-0.126424
-0.112373
-0.0985705
-0.0882022
-0.438317
-0.420952
-0.407039
-0.392787
-0.376653
-0.358873
-0.339814
-0.31987
-0.299455
-0.278957
-0.258704
-0.238957
-0.219912
-0.201703
-0.184416
-0.168122
-0.15284
-0.138259
-0.123999
-0.11307
-0.470032
-0.450934
-0.435928
-0.421008
-0.404458
-0.386449
-0.367281
-0.347281
-0.326816
-0.306238
-0.285854
-0.265917
-0.246621
-0.228102
-0.210455
-0.193758
-0.178039
-0.163021
-0.148377
-0.136914
-0.49851
-0.477837
-0.461841
-0.446336
-0.429456
-0.411315
-0.392145
-0.372211
-0.351826
-0.331307
-0.310936
-0.290952
-0.271543
-0.252849
-0.234968
-0.217984
-0.201933
-0.186573
-0.171623
-0.159666
-0.523744
-0.501663
-0.48478
-0.468771
-0.451642
-0.433457
-0.414384
-0.394626
-0.374443
-0.354113
-0.33389
-0.313997
-0.294612
-0.275873
-0.257883
-0.240728
-0.224453
-0.208851
-0.193677
-0.181274
-0.545758
-0.522443
-0.504779
-0.488344
-0.471042
-0.452891
-0.434003
-0.414519
-0.394649
-0.374627
-0.35468
-0.335007
-0.315777
-0.297124
-0.279149
-0.261941
-0.245551
-0.229807
-0.214497
-0.201707
-0.564608
-0.540234
-0.521898
-0.505113
-0.487706
-0.46966
-0.451034
-0.431911
-0.412451
-0.392847
-0.373292
-0.353963
-0.335014
-0.316571
-0.298734
-0.281591
-0.265197
-0.249414
-0.234061
-0.220951
-0.580375
-0.555122
-0.536221
-0.51916
-0.501713
-0.483832
-0.465533
-0.446846
-0.427881
-0.408791
-0.389735
-0.370864
-0.352316
-0.334205
-0.316625
-0.299663
-0.283377
-0.267661
-0.252361
-0.239008
-0.593168
-0.567213
-0.547857
-0.530591
-0.513161
-0.4955
-0.477582
-0.459392
-0.440996
-0.422504
-0.404041
-0.385733
-0.367696
-0.350032
-0.332827
-0.316162
-0.300096
-0.284554
-0.269409
-0.255897
-0.603115
-0.576637
-0.556932
-0.539531
-0.522172
-0.504774
-0.487283
-0.46964
-0.451872
-0.434049
-0.416263
-0.39861
-0.381187
-0.364079
-0.347362
-0.331107
-0.315373
-0.300113
-0.28523
-0.271653
-0.610364
-0.583537
-0.56359
-0.546121
-0.528881
-0.511786
-0.494755
-0.477698
-0.460604
-0.443508
-0.426469
-0.409555
-0.392838
-0.376388
-0.360266
-0.344534
-0.329243
-0.314376
-0.299865
-0.286326
-0.615088
-0.588078
-0.567992
-0.550519
-0.533443
-0.516681
-0.500137
-0.483694
-0.467308
-0.450984
-0.434748
-0.418643
-0.402716
-0.387017
-0.371592
-0.35649
-0.341753
-0.327391
-0.313368
-0.299979
-0.617463
-0.590431
-0.570305
-0.552891
-0.536019
-0.519616
-0.503577
-0.487765
-0.472111
-0.45659
-0.441203
-0.425965
-0.410899
-0.396036
-0.381405
-0.367037
-0.352965
-0.339219
-0.325806
-0.312692
-0.617678
-0.590775
-0.570705
-0.553409
-0.53678
-0.520758
-0.505235
-0.490063
-0.475152
-0.460455
-0.445948
-0.431622
-0.417478
-0.403526
-0.389777
-0.376245
-0.362945
-0.349931
-0.337254
-0.324551
-0.615927
-0.589294
-0.569372
-0.552251
-0.5359
-0.520277
-0.505277
-0.490745
-0.47658
-0.462715
-0.449108
-0.435727
-0.422554
-0.409578
-0.396793
-0.38419
-0.371771
-0.359602
-0.347793
-0.335652
-0.612406
-0.586173
-0.566486
-0.549596
-0.533558
-0.518348
-0.503873
-0.489976
-0.476549
-0.463514
-0.450813
-0.438398
-0.426232
-0.414287
-0.402537
-0.390955
-0.379519
-0.368312
-0.357509
-0.346097
-0.60731
-0.581595
-0.562225
-0.545621
-0.529928
-0.515146
-0.501194
-0.487921
-0.475217
-0.463
-0.4512
-0.439758
-0.428622
-0.417749
-0.407098
-0.396619
-0.386268
-0.376139
-0.366484
-0.355985
-0.600828
-0.575738
-0.556764
-0.540499
-0.525183
-0.510843
-0.49741
-0.484746
-0.472744
-0.461322
-0.450406
-0.43993
-0.429835
-0.420063
-0.41056
-0.40126
-0.39209
-0.383155
-0.374793
-0.36541
-0.593138
-0.568773
-0.550268
-0.534394
-0.51949
-0.505605
-0.492687
-0.480614
-0.469287
-0.458628
-0.448568
-0.439039
-0.429977
-0.42132
-0.413004
-0.404945
-0.397047
-0.389418
-0.382498
-0.374453
-0.584409
-0.560857
-0.542893
-0.527463
-0.513006
-0.49959
-0.487184
-0.475682
-0.464997
-0.455064
-0.445819
-0.437202
-0.429152
-0.421606
-0.414496
-0.407729
-0.401184
-0.394969
-0.389642
-0.383178
-0.574792
-0.552138
-0.534783
-0.519851
-0.505877
-0.492948
-0.481052
-0.470099
-0.460022
-0.450768
-0.442287
-0.434532
-0.427452
-0.420992
-0.41509
-0.409647
-0.404523
-0.399825
-0.396238
-0.391619
-0.564423
-0.542747
-0.52607
-0.51169
-0.498237
-0.485815
-0.474428
-0.464006
-0.454498
-0.44587
-0.438091
-0.431131
-0.424959
-0.419537
-0.414817
-0.410708
-0.407055
-0.403965
-0.402263
-0.399779
-0.553421
-0.532802
-0.516872
-0.503098
-0.490207
-0.478314
-0.467438
-0.457527
-0.44855
-0.44049
-0.433338
-0.42709
-0.421739
-0.417276
-0.413681
-0.410882
-0.408726
-0.407318
-0.407642
-0.407614
-0.541887
-0.522407
-0.507291
-0.494178
-0.481891
-0.470552
-0.460191
-0.450774
-0.442287
-0.434732
-0.428124
-0.422484
-0.41784
-0.41422
-0.411648
-0.410092
-0.409417
-0.409741
-0.412228
-0.415024
-0.529913
-0.511655
-0.497419
-0.485021
-0.473378
-0.462617
-0.452778
-0.44384
-0.435802
-0.428685
-0.422524
-0.417369
-0.413286
-0.410348
-0.408637
-0.408189
-0.408917
-0.410976
-0.415759
-0.421824
-0.517582
-0.500627
-0.487335
-0.475702
-0.464743
-0.454584
-0.445272
-0.436797
-0.429168
-0.422418
-0.416598
-0.411784
-0.408075
-0.405598
-0.404507
-0.40493
-0.406872
-0.410576
-0.417763
-0.427666
-0.504973
-0.489402
-0.477111
-0.466288
-0.456046
-0.44651
-0.43773
-0.429702
-0.42244
-0.415981
-0.410386
-0.405744
-0.402181
-0.399868
-0.399035
-0.399927
-0.402683
-0.407706
-0.417271
-0.431766
-0.492168
-0.478054
-0.466814
-0.456837
-0.447338
-0.438441
-0.430194
-0.422595
-0.415658
-0.409414
-0.40392
-0.399261
-0.39557
-0.393038
-0.391951
-0.39267
-0.395483
-0.401028
-0.412579
-0.432846
-0.47926
-0.466659
-0.456509
-0.447403
-0.438666
-0.430416
-0.422699
-0.415511
-0.408856
-0.402754
-0.397237
-0.392366
-0.388242
-0.385036
-0.383035
-0.382676
-0.384398
-0.389063
-0.401367
-0.428669
-0.466347
-0.455299
-0.44626
-0.43804
-0.430074
-0.422474
-0.415281
-0.408487
-0.402083
-0.396058
-0.390407
-0.385128
-0.380233
-0.37576
-0.371833
-0.368735
-0.366771
-0.366133
-0.370694
-0.395506
-0.45354
-0.444056
-0.436134
-0.428802
-0.421607
-0.414655
-0.407985
-0.401581
-0.395418
-0.389457
-0.383635
-0.37786
-0.371986
-0.36577
-0.358826
-0.350598
-0.339916
-0.322957
-0.293252
-0.262891
-0.440955
-0.433019
-0.426201
-0.419747
-0.413316
-0.40701
-0.400865
-0.394867
-0.388983
-0.383158
-0.377311
-0.371322
-0.36502
-0.358148
-0.35035
-0.341219
-0.330131
-0.314972
-0.292404
-0.27223
-0.428707
-0.422272
-0.416529
-0.410932
-0.40525
-0.399583
-0.393969
-0.3884
-0.382844
-0.377251
-0.371542
-0.365612
-0.359321
-0.352481
-0.344871
-0.336289
-0.326472
-0.314454
-0.299357
-0.288943
-0.416906
-0.411897
-0.407182
-0.402411
-0.397456
-0.392416
-0.387336
-0.382215
-0.377032
-0.371746
-0.366296
-0.3606
-0.354556
-0.348041
-0.340931
-0.333139
-0.324549
-0.314619
-0.303317
-0.296963
-0.405647
-0.40197
-0.398223
-0.394237
-0.389979
-0.385549
-0.380999
-0.376338
-0.37156
-0.366638
-0.36153
-0.356183
-0.350533
-0.344512
-0.338064
-0.331184
-0.323844
-0.315715
-0.306965
-0.302555
-0.395011
-0.392553
-0.389704
-0.386455
-0.382858
-0.379015
-0.374984
-0.370789
-0.366434
-0.361911
-0.357197
-0.352265
-0.347084
-0.341624
-0.335878
-0.329882
-0.323656
-0.316986
-0.310069
-0.306799
-0.385057
-0.383698
-0.38167
-0.379104
-0.376128
-0.372843
-0.369315
-0.365579
-0.361654
-0.357546
-0.35325
-0.34876
-0.344068
-0.339173
-0.334092
-0.32888
-0.323576
-0.318024
-0.312399
-0.309802
-0.375829
-0.375444
-0.374156
-0.372217
-0.369817
-0.367058
-0.364009
-0.36072
-0.357219
-0.353526
-0.34965
-0.345602
-0.341389
-0.337029
-0.33255
-0.328013
-0.323461
-0.318769
-0.314077
-0.311869
-0.367349
-0.367818
-0.367191
-0.36582
-0.363948
-0.361677
-0.359081
-0.356217
-0.353125
-0.349835
-0.346368
-0.342743
-0.338983
-0.335112
-0.331165
-0.327201
-0.323259
-0.319238
-0.315239
-0.313262
-0.359628
-0.360836
-0.360793
-0.359931
-0.358539
-0.356716
-0.35454
-0.352075
-0.34937
-0.346461
-0.343379
-0.340152
-0.336806
-0.333373
-0.329888
-0.326406
-0.322961
-0.31947
-0.315998
-0.314165
-0.352664
-0.354508
-0.354974
-0.354564
-0.353603
-0.352186
-0.350395
-0.348298
-0.345951
-0.343396
-0.34067
-0.337805
-0.334832
-0.331784
-0.328697
-0.325618
-0.322579
-0.31951
-0.31645
-0.314711
-0.34645
-0.348834
-0.34974
-0.349728
-0.349149
-0.348096
-0.346651
-0.344888
-0.342867
-0.340634
-0.338229
-0.335688
-0.333045
-0.330332
-0.327584
-0.324842
-0.322136
-0.319406