/*--------------------------------*- C++ -*----------------------------------*\
  =========                 |
  \\      /  F ield         | OpenFOAM: The Open Source CFD Toolbox
   \\    /   O peration     | Website:  https://openfoam.org
    \\  /    A nd           | Version:  6.0
     \\/     M anipulation  |
\*---------------------------------------------------------------------------*/
FoamFile
{
    version     2.0;
    format      ascii;
    class       volVectorField;
    location    "23";
    object      U;
}
// * * * * * * * * * * * * * * * * * * * * * * * * * * * * * * * * * * * * * //

dimensions      [0 1 -1 0 0 0 0];

internalField   nonuniform List<vector> 
34500
(
(0.999995 -5.88898e-06 -4.63659e-17)
(0.999971 -6.06194e-05 -8.13531e-18)
(0.999939 -7.92997e-05 1.42081e-16)
(0.999897 -7.20139e-05 -1.07521e-16)
(0.999828 -9.5241e-05 3.35038e-17)
(0.999746 -0.00017369 -1.01395e-16)
(0.999673 -0.000287352 -1.00948e-16)
(0.999621 -0.000419825 8.65172e-17)
(0.999604 -0.000547896 1.07225e-16)
(0.99962 -0.000660998 -6.82797e-16)
(0.999659 -0.000757334 -1.03964e-15)
(0.999702 -0.000887835 1.26713e-16)
(0.999759 -0.00100574 4.33639e-16)
(0.99997 -0.00144329 -2.07235e-16)
(0.996735 -0.00365476 7.72594e-17)
(0.999987 -5.44771e-05 3.24719e-17)
(0.99996 -0.000107218 9.76282e-17)
(0.999923 -7.22936e-05 7.16791e-17)
(0.999843 -4.7782e-05 -3.01755e-16)
(0.99971 -0.000130199 -5.05277e-16)
(0.999563 -0.000309444 -5.49757e-17)
(0.999435 -0.000535757 2.55378e-16)
(0.999351 -0.0007838 -6.77038e-16)
(0.999339 -0.00100497 -1.78562e-16)
(0.999391 -0.00117252 6.81076e-16)
(0.999478 -0.00128759 1.26115e-15)
(0.999577 -0.00144876 -6.28532e-16)
(0.999622 -0.00156286 -9.83118e-16)
(1.00031 -0.00212276 -3.94743e-16)
(0.996913 -0.00411415 5.25716e-16)
(0.999981 -9.58483e-05 1.04761e-17)
(0.999973 -9.66571e-05 -1.2291e-16)
(0.999971 3.92458e-06 -1.25033e-16)
(0.999922 3.95763e-05 4.54977e-16)
(0.999819 -6.82525e-05 -2.85365e-17)
(0.9997 -0.000260171 -1.63819e-16)
(0.999591 -0.00048234 9.77158e-17)
(0.999514 -0.000727542 3.84403e-16)
(0.999509 -0.000934345 2.53218e-19)
(0.999574 -0.00106007 -3.92688e-16)
(0.999672 -0.00109604 -7.27318e-16)
(0.999791 -0.00114636 4.13202e-16)
(0.999738 -0.0011507 2.24531e-16)
(1.0006 -0.00152263 1.64387e-16)
(0.998518 -0.00219828 -2.46026e-16)
(0.999975 -0.000119912 -1.73684e-17)
(0.999982 -6.17326e-05 -9.02832e-18)
(1.00001 8.15714e-05 4.82707e-17)
(1.00001 0.000107327 -3.04902e-16)
(0.999948 -2.38545e-05 3.71706e-16)
(0.999868 -0.000210677 3.29581e-16)
(0.999788 -0.000408492 -3.9913e-16)
(0.999717 -0.000638238 -4.19595e-16)
(0.999701 -0.000839203 4.34671e-16)
(0.999751 -0.000957571 -4.70113e-16)
(0.999835 -0.000968152 -2.44152e-16)
(0.999957 -0.000968078 -3.84836e-16)
(0.999818 -0.00094356 5.41596e-16)
(1.00061 -0.00122421 -4.80227e-17)
(0.999316 -0.00166568 2.16197e-17)
(0.99997 -0.000127219 -1.70583e-17)
(0.99998 -2.16036e-05 1.5332e-16)
(1.00003 0.000135674 6.94908e-17)
(1.00005 0.000132942 1.69484e-16)
(1.00002 -2.78468e-05 4.66746e-17)
(0.999974 -0.00021427 -1.58036e-16)
(0.999924 -0.000390832 1.0242e-16)
(0.999869 -0.000601522 2.66104e-16)
(0.999844 -0.000799916 -4.17343e-16)
(0.999871 -0.000933045 -2.30727e-16)
(0.999929 -0.000962682 1.0054e-15)
(1.00005 -0.000972552 6.33412e-16)
(0.999862 -0.000972779 -2.89336e-16)
(1.00047 -0.00122926 5.9229e-16)
(0.999626 -0.0016211 -5.90015e-16)
(0.999965 -0.00012143 1.83675e-17)
(0.99997 1.31699e-05 -9.48196e-17)
(1.00003 0.000161885 -1.86165e-16)
(1.00008 0.00012446 -5.28584e-17)
(1.00007 -6.30062e-05 1.09272e-16)
(1.00004 -0.000250563 -1.08707e-16)
(1.00003 -0.00040352 1.48011e-16)
(1.00001 -0.000574271 1.31064e-16)
(1 -0.00073528 2.90754e-16)
(1.00002 -0.000849702 -1.00092e-16)
(1.00006 -0.000878817 2.82785e-18)
(1.00016 -0.000892538 -3.88783e-16)
(0.999949 -0.000915263 1.82958e-17)
(1.00036 -0.00115503 -4.69048e-16)
(0.999754 -0.00138472 7.43871e-17)
(0.999959 -0.00010713 3.25843e-18)
(0.999956 3.60147e-05 -3.5601e-17)
(1.00003 0.000159989 -2.90076e-17)
(1.00009 8.87149e-05 1.75497e-16)
(1.00009 -0.000121121 -2.20145e-16)
(1.00007 -0.000319458 2.75113e-16)
(1.00009 -0.000463465 -6.1864e-16)
(1.00012 -0.000594806 -3.69525e-16)
(1.00014 -0.000697731 -1.5146e-16)
(1.00017 -0.000761032 6.70708e-16)
(1.0002 -0.000760536 -7.67484e-16)
(1.00029 -0.000758967 2.97744e-16)
(1.00006 -0.000800931 4.55893e-16)
(1.00029 -0.0010407 -9.59715e-17)
(0.999753 -0.00119938 -1.21131e-16)
(0.99995 -8.85717e-05 1.51309e-17)
(0.999937 4.41219e-05 3.2291e-17)
(1.00002 0.0001332 2.49998e-17)
(1.00009 3.33756e-05 -1.50669e-16)
(1.00008 -0.000194253 3.28467e-16)
(1.00005 -0.000419086 -1.39477e-16)
(1.00007 -0.000586908 2.01304e-16)
(1.00013 -0.000711874 -1.4626e-16)
(1.00019 -0.000775002 3.9732e-16)
(1.00025 -0.000789376 1.77636e-16)
(1.00028 -0.000753582 2.44555e-16)
(1.00037 -0.000730436 -5.64352e-17)
(1.00014 -0.000788432 -5.04376e-16)
(1.00025 -0.00103537 1.13977e-15)
(0.999718 -0.00118586 1.86967e-16)
(0.999936 -6.92741e-05 -1.12262e-17)
(0.999915 3.78916e-05 9.89992e-17)
(1.00001 8.84269e-05 1.50725e-16)
(1.00009 -2.84874e-05 1.11794e-16)
(1.00008 -0.000261271 -4.88109e-16)
(1.00002 -0.000516127 1.40834e-16)
(1.00002 -0.000732335 3.20521e-16)
(1.00008 -0.000888144 7.72157e-16)
(1.00017 -0.000946461 -3.85201e-16)
(1.00025 -0.000934727 9.00647e-17)
(1.00029 -0.000872975 4.48913e-16)
(1.00039 -0.000826686 -3.23558e-16)
(1.0002 -0.000885091 -1.5405e-16)
(1.00024 -0.00111918 -3.81329e-16)
(0.999735 -0.00122991 8.42105e-17)
(0.999918 -5.18821e-05 4.07272e-17)
(0.999895 1.95603e-05 -8.97822e-17)
(1 3.26743e-05 8.86444e-18)
(1.00012 -8.59378e-05 -1.10067e-16)
(1.00013 -0.000301985 4.102e-16)
(1.00005 -0.000569094 7.95535e-17)
(1.00001 -0.000830664 2.70156e-16)
(1.00006 -0.00103151 -5.72983e-16)
(1.00014 -0.00110861 4.15807e-17)
(1.00024 -0.00109205 -7.86156e-17)
(1.00029 -0.00101615 -1.39517e-16)
(1.00041 -0.000947398 4.40927e-17)
(1.00025 -0.000991549 5.92459e-16)
(1.00025 -0.00119361 -8.05877e-16)
(0.999799 -0.00125203 -2.69976e-16)
(0.999895 -3.81118e-05 -2.62474e-17)
(0.999874 -8.29151e-06 3.52727e-17)
(0.999999 -3.06447e-05 -1.475e-16)
(1.00016 -0.000139237 2.49752e-16)
(1.00022 -0.000317333 -3.61208e-16)
(1.00015 -0.000567317 -3.0286e-16)
(1.0001 -0.000848032 -3.38755e-16)
(1.00012 -0.00108206 3.91086e-17)
(1.00018 -0.00118209 -8.14212e-17)
(1.00027 -0.00117303 -4.2453e-16)
(1.00032 -0.00109565 -7.21124e-16)
(1.00044 -0.00101397 2.85843e-16)
(1.00032 -0.00104797 -3.28516e-16)
(1.00029 -0.00122698 9.09055e-16)
(0.999857 -0.00127596 5.37912e-17)
(0.999868 -2.8557e-05 -2.45796e-17)
(0.999848 -4.27269e-05 -1.04318e-16)
(0.999985 -0.000101136 1.50749e-16)
(1.00019 -0.000198799 -2.33987e-16)
(1.00031 -0.000330728 7.67853e-17)
(1.00029 -0.000540289 4.5388e-16)
(1.00025 -0.000808975 5.53751e-17)
(1.00024 -0.00105211 -6.73461e-17)
(1.00028 -0.00116712 1.81584e-16)
(1.00035 -0.0011717 -1.56982e-16)
(1.00039 -0.00110733 -9.51478e-17)
(1.00049 -0.0010319 -6.67758e-17)
(1.00039 -0.00107686 -2.87395e-16)
(1.00034 -0.00126262 -6.22881e-16)
(0.999882 -0.00135206 1.24016e-17)
(0.99984 -2.28124e-05 -2.17908e-18)
(0.999812 -8.03624e-05 1.40619e-16)
(0.999944 -0.000178473 -2.21589e-16)
(1.00018 -0.000276636 8.33855e-17)
(1.00036 -0.000372626 -9.35385e-17)
(1.0004 -0.000536453 -1.54656e-16)
(1.00039 -0.000772985 -3.8881e-17)
(1.00038 -0.00100395 3.6508e-16)
(1.0004 -0.00112361 -6.30469e-16)
(1.00043 -0.00114493 4.2043e-16)
(1.00045 -0.0011071 2.20577e-16)
(1.00053 -0.00105814 1.84229e-16)
(1.00044 -0.00113544 7.50369e-16)
(1.00039 -0.00135278 7.32078e-16)
(0.99989 -0.00149356 5.49872e-16)
(0.999813 -1.9674e-05 8.31238e-18)
(0.999766 -0.00011725 5.29402e-17)
(0.999869 -0.00025971 1.76153e-16)
(1.0001 -0.000377691 5.58119e-17)
(1.00032 -0.0004627 1.70536e-16)
(1.00042 -0.000594266 1.68039e-16)
(1.00046 -0.00079527 -1.184e-17)
(1.00046 -0.00100295 4.93303e-17)
(1.00047 -0.00111965 9.38164e-16)
(1.00048 -0.00115814 -1.13988e-16)
(1.00048 -0.00115417 5.42628e-16)
(1.00055 -0.00114266 -7.39726e-16)
(1.00048 -0.00125912 1.37324e-16)
(1.00045 -0.00151015 -1.34873e-15)
(0.99992 -0.00166986 -6.17972e-16)
(0.99979 -1.7672e-05 9.95108e-18)
(0.999714 -0.000149582 -1.1781e-16)
(0.999767 -0.000339088 1.54961e-16)
(0.999966 -0.000496855 -2.24201e-16)
(1.0002 -0.000601304 1.56889e-16)
(1.00034 -0.00072536 2.08217e-17)
(1.00043 -0.000900818 1.9512e-16)
(1.00046 -0.00108409 -2.60143e-16)
(1.00047 -0.00119349 -8.39668e-16)
(1.00048 -0.00124603 2.49513e-16)
(1.00048 -0.00127396 -5.60754e-16)
(1.00054 -0.001297 1.12846e-16)
(1.00049 -0.00144133 -4.90962e-16)
(1.0005 -0.00170613 2.66399e-16)
(1.00001 -0.00183035 -1.08828e-16)
(0.999774 -1.54538e-05 3.32761e-17)
(0.999663 -0.000174385 7.19762e-17)
(0.999657 -0.000409585 -3.59356e-16)
(0.999796 -0.000621347 2.88665e-16)
(1.00001 -0.000771544 -2.80162e-16)
(1.00018 -0.000914105 -3.73203e-16)
(1.00031 -0.00107985 -3.83203e-16)
(1.00038 -0.00124347 3.37929e-16)
(1.0004 -0.00134316 7.19623e-16)
(1.00043 -0.00140312 1.63318e-16)
(1.00044 -0.00145269 9.47998e-17)
(1.00051 -0.00149595 7.01071e-17)
(1.0005 -0.00164521 -7.34405e-16)
(1.00057 -0.00189391 6.45342e-17)
(1.00017 -0.00193265 6.3418e-16)
(0.999763 -1.21767e-05 -8.97592e-17)
(0.999622 -0.00019026 -9.25133e-17)
(0.999558 -0.000465262 3.43081e-17)
(0.999628 -0.000736058 -2.64662e-16)
(0.999799 -0.000947799 -1.80676e-17)
(0.99998 -0.00112819 4.82277e-16)
(1.00014 -0.00129886 5.50649e-17)
(1.00024 -0.00144913 3.04664e-16)
(1.0003 -0.00153737 -6.03746e-16)
(1.00035 -0.00159625 -3.10077e-16)
(1.00039 -0.00165293 4.45374e-16)
(1.00049 -0.00169728 -1.49406e-16)
(1.00052 -0.0018268 4.8466e-16)
(1.00064 -0.00203301 7.52021e-16)
(1.00039 -0.00195674 -5.99469e-17)
(0.999759 -7.57569e-06 2.81192e-17)
(0.999597 -0.000197447 1.14904e-17)
(0.999489 -0.00050287 1.1578e-16)
(0.999494 -0.00082845 2.24779e-18)
(0.999617 -0.00110504 9.89826e-17)
(0.999787 -0.00133206 -2.90044e-16)
(0.999964 -0.00151687 5.99335e-16)
(1.0001 -0.00165879 -1.53579e-16)
(1.00019 -0.0017342 6.53647e-16)
(1.00027 -0.00178389 -3.4199e-16)
(1.00035 -0.00183369 -5.44465e-16)
(1.00049 -0.0018619 5.2549e-16)
(1.00056 -0.0019533 -8.86347e-16)
(1.00074 -0.00210206 -1.30681e-15)
(1.00066 -0.0019063 -3.30169e-16)
(0.999757 -1.99226e-06 3.13095e-18)
(0.99959 -0.000197683 1.95229e-17)
(0.999458 -0.000522531 -3.12581e-17)
(0.999415 -0.00089165 1.58931e-16)
(0.999493 -0.00122547 1.09024e-16)
(0.999644 -0.00149742 -4.27532e-17)
(0.999827 -0.00169902 -3.61248e-16)
(0.999987 -0.00183533 -3.48269e-16)
(1.00011 -0.0018972 -2.3538e-16)
(1.00023 -0.00193213 4.33807e-16)
(1.00035 -0.00196519 3.36134e-16)
(1.00052 -0.00196634 -4.94204e-16)
(1.00063 -0.00201121 1.09796e-15)
(1.00085 -0.00210086 1.37691e-15)
(1.00095 -0.00180164 4.64252e-17)
(0.999757 3.87634e-06 3.57973e-17)
(0.999599 -0.000193547 -4.76504e-17)
(0.999466 -0.000527225 2.29731e-16)
(0.999397 -0.000924997 -4.57759e-17)
(0.999441 -0.00130123 -1.74734e-16)
(0.99957 -0.00160858 7.40948e-17)
(0.999751 -0.00182415 -1.29987e-16)
(0.999926 -0.00195564 2.94159e-16)
(1.00007 -0.00200447 7.73301e-17)
(1.00023 -0.00202268 5.40564e-17)
(1.00038 -0.00203486 -2.57813e-16)
(1.00058 -0.00200565 3.42196e-16)
(1.00073 -0.00200516 1.74461e-16)
(1.00098 -0.00204432 1.56018e-16)
(1.00123 -0.00166999 3.94349e-16)
(0.999754 9.11736e-06 -1.84027e-17)
(0.99962 -0.000187939 2.72791e-17)
(0.999507 -0.000521814 -3.72347e-16)
(0.999435 -0.000933021 -2.38276e-16)
(0.99946 -0.00133384 3.29913e-16)
(0.999569 -0.00166286 -8.93414e-17)
(0.999742 -0.00188636 5.21898e-16)
(0.999923 -0.00201287 -1.41705e-16)
(1.00009 -0.00205065 -7.52869e-18)
(1.00027 -0.00205388 -1.50282e-16)
(1.00045 -0.00204652 3.85848e-16)
(1.00068 -0.00199025 -2.43182e-16)
(1.00085 -0.00195239 -7.99517e-16)
(1.00111 -0.00195548 -1.90409e-16)
(1.00149 -0.00153836 -4.50353e-16)
(0.999747 1.29155e-05 2.47715e-17)
(0.999649 -0.000183423 1.12673e-16)
(0.999569 -0.000511695 3.35538e-16)
(0.999513 -0.000923255 2.60493e-16)
(0.999534 -0.00133145 -3.21634e-17)
(0.99963 -0.00166776 -1.305e-16)
(0.999792 -0.00189225 -5.77747e-16)
(0.999972 -0.00201361 -6.71866e-17)
(1.00015 -0.00204375 -3.43126e-16)
(1.00035 -0.00203664 1.11114e-16)
(1.00056 -0.00201501 -7.07209e-16)
(1.0008 -0.00193912 3.41129e-16)
(1.00099 -0.00187507 1.15183e-15)
(1.00126 -0.00185762 -8.88613e-16)
(1.00172 -0.00142748 5.25014e-16)
(0.999734 1.46142e-05 -1.99745e-17)
(0.999677 -0.00018196 -1.58525e-16)
(0.99964 -0.000501846 -1.92005e-16)
(0.999614 -0.000904274 -9.57785e-17)
(0.999643 -0.00130577 -6.13961e-17)
(0.999732 -0.00163695 8.42937e-17)
(0.999883 -0.00185643 -3.22576e-17)
(1.00006 -0.00197315 -4.43307e-16)
(1.00024 -0.00200017 -1.30448e-16)
(1.00045 -0.001989 -3.28657e-17)
(1.00068 -0.00196044 6.43662e-16)
(1.00094 -0.00187393 1.07646e-16)
(1.00114 -0.00179488 -9.57621e-16)
(1.00141 -0.00177038 5.08479e-16)
(1.00192 -0.00135038 -1.0159e-16)
(0.999716 1.39175e-05 1.80434e-17)
(0.999701 -0.00018465 9.32005e-17)
(0.999707 -0.000496011 9.2389e-17)
(0.999719 -0.000883808 1.79679e-16)
(0.999765 -0.00126889 -9.7946e-17)
(0.999854 -0.00158604 -2.75362e-17)
(0.999997 -0.00179658 1.99138e-16)
(1.00017 -0.00191015 2.9764e-16)
(1.00035 -0.00193903 -2.14005e-17)
(1.00057 -0.0019305 -3.59286e-16)
(1.00082 -0.00190248 -2.76183e-16)
(1.00108 -0.0018137 -4.85465e-16)
(1.0013 -0.00172866 2.03577e-17)
(1.00156 -0.00170649 2.63327e-16)
(1.0021 -0.00131247 -1.58868e-16)
(0.999694 1.0796e-05 -9.64753e-18)
(0.999717 -0.000191851 -5.51495e-17)
(0.999763 -0.000496531 1.40276e-16)
(0.999813 -0.000867915 1.46825e-17)
(0.999882 -0.00123149 -1.24613e-16)
(0.999976 -0.00152973 1.00545e-16)
(1.00011 -0.00172987 -4.80565e-17)
(1.00028 -0.00184275 2.74321e-16)
(1.00047 -0.00187845 5.06929e-16)
(1.0007 -0.00187863 7.87395e-17)
(1.00095 -0.00185748 2.38318e-16)
(1.00123 -0.00177282 2.42568e-16)
(1.00145 -0.00168758 5.98688e-17)
(1.00172 -0.00167288 -5.4189e-16)
(1.00226 -0.00131246 1.31021e-16)
(0.999668 5.57042e-06 1.29241e-17)
(0.999722 -0.000203216 1.16153e-17)
(0.999802 -0.000504257 -2.86586e-16)
(0.999887 -0.000860351 -1.25201e-16)
(0.999981 -0.00120139 1.76045e-16)
(1.00008 -0.00147966 -2.74879e-17)
(1.00022 -0.0016703 1.83866e-16)
(1.00039 -0.00178563 -2.44311e-16)
(1.00058 -0.00183259 1.39252e-16)
(1.00082 -0.00184621 1.15846e-16)
(1.00109 -0.0018363 1.22291e-16)
(1.00137 -0.00175952 1.55612e-16)
(1.0016 -0.00167656 2.16329e-16)
(1.00187 -0.00167042 3.04435e-17)
(1.00241 -0.00134601 7.71197e-17)
(0.99964 -1.292e-06 -3.97631e-17)
(0.999715 -0.000218009 1.05183e-16)
(0.99982 -0.000518957 1.64543e-16)
(0.999935 -0.000862921 -1.05309e-16)
(1.00005 -0.00118359 -6.84734e-17)
(1.00017 -0.00144393 3.89845e-17)
(1.00031 -0.00162786 -2.0032e-16)
(1.00048 -0.00174917 -1.31089e-16)
(1.00068 -0.00181099 -1.72226e-16)
(1.00093 -0.00184117 2.7375e-16)
(1.00122 -0.00184476 -3.79803e-16)
(1.00151 -0.00177702 2.96689e-16)
(1.00176 -0.00169597 1.45321e-16)
(1.00203 -0.00169649 5.44173e-16)
(1.00255 -0.00140598 -4.96609e-16)
(0.999612 -9.14176e-06 1.67791e-17)
(0.999698 -0.000235219 -7.91675e-17)
(0.999819 -0.000539559 5.79458e-17)
(0.999957 -0.000875659 1.28126e-16)
(1.00009 -0.00118031 -8.8834e-17)
(1.00022 -0.00142697 -1.50176e-16)
(1.00037 -0.00160823 -7.11257e-17)
(1.00055 -0.00173906 9.80418e-17)
(1.00076 -0.00181831 -4.48546e-16)
(1.00103 -0.00186649 6.62069e-17)
(1.00134 -0.00188379 2.52383e-16)
(1.00165 -0.00182408 -7.05404e-16)
(1.00191 -0.00174244 1.42473e-16)
(1.0022 -0.00174585 2.18836e-17)
(1.0027 -0.00148385 3.66345e-16)
(0.999584 -1.73762e-05 -6.37874e-18)
(0.999671 -0.000253867 9.70394e-17)
(0.999801 -0.000564692 -9.37033e-17)
(0.999954 -0.000897637 -5.81478e-17)
(1.00011 -0.00119185 -9.27537e-17)
(1.00025 -0.00143039 -4.90638e-17)
(1.00041 -0.00161371 -1.05816e-16)
(1.00061 -0.00175733 7.55671e-17)
(1.00084 -0.00185558 2.90487e-17)
(1.00113 -0.00192176 -3.10652e-16)
(1.00146 -0.00195137 -3.70663e-16)
(1.00178 -0.00189709 4.11194e-16)
(1.00206 -0.0018111 -3.58951e-16)
(1.00237 -0.00181271 -1.14313e-16)
(1.00284 -0.00157311 -1.11956e-17)
(0.999557 -2.53824e-05 -1.93036e-17)
(0.999638 -0.000273042 -4.48216e-17)
(0.999768 -0.00059288 3.16544e-17)
(0.999931 -0.000927261 2.25483e-16)
(1.0001 -0.00121707 3.76547e-16)
(1.00026 -0.00145361 3.07477e-16)
(1.00044 -0.0016438 3.36043e-16)
(1.00065 -0.00180298 -2.14449e-16)
(1.0009 -0.00192085 3.86688e-20)
(1.00122 -0.00200384 2.32696e-16)
(1.00157 -0.0020432 4.58045e-17)
(1.00192 -0.00199083 2.52745e-16)
(1.00222 -0.00189621 2.03092e-16)
(1.00254 -0.00189113 -5.32422e-16)
(1.003 -0.00166707 -3.4864e-16)
(0.999531 -3.27345e-05 9.9314e-18)
(0.999599 -0.000292108 -8.10276e-17)
(0.999726 -0.00062292 -1.62024e-16)
(0.999893 -0.000962952 -1.58981e-16)
(1.00007 -0.0012543 1.46376e-17)
(1.00025 -0.00149487 -1.736e-16)
(1.00044 -0.00169648 -3.781e-16)
(1.00068 -0.0018734 2.88671e-16)
(1.00096 -0.00201068 2.34816e-16)
(1.0013 -0.00210847 -5.17931e-16)
(1.00169 -0.00215435 4.24942e-16)
(1.00206 -0.00209993 -3.09764e-16)
(1.00238 -0.00199243 -1.42795e-16)
(1.00271 -0.00197621 -1.24995e-16)
(1.00317 -0.00176103 1.48547e-16)
(0.999505 -3.90877e-05 3.78093e-17)
(0.999557 -0.000310631 1.73873e-17)
(0.999677 -0.000653893 8.7635e-17)
(0.999845 -0.00100324 4.07173e-17)
(1.00003 -0.00130157 4.79214e-17)
(1.00022 -0.00155174 3.00308e-16)
(1.00044 -0.00176873 -1.35757e-16)
(1.00071 -0.00196487 1.48377e-16)
(1.00102 -0.00212069 8.51965e-17)
(1.00139 -0.00223072 5.93413e-17)
(1.0018 -0.00227957 1.97952e-16)
(1.0022 -0.00221917 -4.21938e-17)
(1.00254 -0.00209492 9.37573e-18)
(1.00289 -0.00206365 8.71643e-16)
(1.00334 -0.00185181 2.75923e-18)
(0.999478 -4.43248e-05 -3.66992e-17)
(0.999513 -0.0003285 -1.26739e-17)
(0.999625 -0.000685355 5.73094e-17)
(0.999792 -0.00104714 -1.74686e-16)
(0.999989 -0.00135726 -2.79795e-16)
(1.0002 -0.00162186 -2.68135e-16)
(1.00044 -0.00185744 2.27238e-16)
(1.00073 -0.00207366 -8.31066e-17)
(1.00107 -0.00224665 9.70679e-18)
(1.00148 -0.0023661 -5.06908e-18)
(1.00192 -0.00241439 -2.73315e-16)
(1.00235 -0.00234433 -2.4711e-16)
(1.0027 -0.00220008 -1.59348e-16)
(1.00307 -0.00215067 2.42764e-17)
(1.00351 -0.00193734 -5.44637e-17)
(0.99945 -4.84067e-05 -1.83231e-17)
(0.999469 -0.000345783 4.84885e-17)
(0.999572 -0.000717189 4.77033e-17)
(0.999737 -0.00109402 7.75966e-17)
(0.999943 -0.00141999 1.06144e-16)
(1.00017 -0.001703 1.67782e-18)
(1.00043 -0.0019596 2.27213e-16)
(1.00076 -0.00219611 -5.06785e-16)
(1.00114 -0.00238454 2.58521e-16)
(1.00158 -0.00251051 2.63663e-16)
(1.00205 -0.0025549 -3.77296e-16)
(1.0025 -0.00247199 7.04695e-16)
(1.00287 -0.00230514 3.70953e-16)
(1.00326 -0.00223525 -6.91621e-16)
(1.00369 -0.00201687 -2.05434e-16)
(0.999419 -5.14803e-05 3.78903e-17)
(0.999425 -0.00036278 2.94243e-17)
(0.999521 -0.000749659 4.60598e-18)
(0.999684 -0.00114377 -3.47918e-17)
(0.999898 -0.00148891 2.01953e-17)
(1.00014 -0.00179345 2.84857e-16)
(1.00043 -0.0020727 -4.59027e-17)
(1.00079 -0.00232918 3.25236e-16)
(1.0012 -0.00253109 -4.80923e-17)
(1.00168 -0.00266075 -2.91736e-16)
(1.00218 -0.00269825 6.03735e-16)
(1.00265 -0.00259978 -3.62275e-16)
(1.00305 -0.0024084 -4.90493e-16)
(1.00344 -0.00231639 2.07445e-16)
(1.00387 -0.00208985 3.46198e-16)
(0.999386 -5.37137e-05 -3.15105e-17)
(0.999382 -0.000379868 -1.32786e-17)
(0.999472 -0.000783198 -1.73187e-16)
(0.999635 -0.0011965 -8.4639e-17)
(0.999857 -0.00156346 5.21397e-17)
(1.00012 -0.0018918 -2.87568e-16)
(1.00044 -0.0021946 -8.45549e-17)
(1.00083 -0.00247025 2.83556e-16)
(1.00128 -0.00268354 -2.39825e-16)
(1.00178 -0.00281421 7.03117e-17)
(1.00232 -0.00284216 -3.36179e-16)
(1.00281 -0.00272595 1.05901e-17)
(1.00322 -0.00250866 2.65504e-16)
(1.00363 -0.00239339 1.39816e-16)
(1.00404 -0.00215665 -5.43847e-17)
(0.99935 -5.53895e-05 3.00608e-17)
(0.999339 -0.000397541 -9.75336e-17)
(0.999425 -0.000818427 8.18606e-17)
(0.999589 -0.0012526 5.3565e-17)
(0.999822 -0.00164346 -4.03817e-17)
(1.0001 -0.00199713 -1.72789e-16)
(1.00045 -0.00232373 5.24095e-17)
(1.00088 -0.0026174 -1.29973e-16)
(1.00136 -0.00283991 -2.19273e-16)
(1.0019 -0.00296911 -2.74471e-17)
(1.00246 -0.00298528 -4.85988e-16)
(1.00297 -0.0028496 4.97403e-16)
(1.00339 -0.00260551 3.86545e-17)
(1.00381 -0.00246632 -7.97957e-17)
(1.00422 -0.00221751 -7.75481e-18)
(0.999311 -5.67477e-05 -3.68727e-17)
(0.999298 -0.000416258 1.00411e-16)
(0.999382 -0.000855951 -2.30636e-17)
(0.999549 -0.00131249 -2.10107e-16)
(0.999793 -0.00172881 -1.00104e-16)
(1.0001 -0.00210869 1.16309e-16)
(1.00047 -0.0024588 -1.70739e-16)
(1.00093 -0.00276904 -1.91296e-16)
(1.00145 -0.00299863 3.2565e-16)
(1.00202 -0.00312411 1.1331e-16)
(1.0026 -0.00312662 5.09986e-16)
(1.00313 -0.00297016 -3.83545e-16)
(1.00357 -0.00269878 1.37851e-16)
(1.004 -0.00253533 -1.55291e-16)
(1.00439 -0.00227339 5.16751e-18)
(0.999269 -5.80799e-05 2.28221e-17)
(0.999257 -0.000436489 -5.81073e-17)
(0.999341 -0.000896381 7.21789e-17)
(0.999513 -0.00137667 3.13048e-16)
(0.99977 -0.00181956 1.32872e-16)
(1.00009 -0.00222598 8.24493e-17)
(1.0005 -0.00259887 3.39175e-16)
(1.00099 -0.00292406 1.61236e-16)
(1.00154 -0.00315864 -2.65623e-16)
(1.00214 -0.0032784 4.52708e-16)
(1.00275 -0.00326571 2.51833e-16)
(1.0033 -0.00308752 -2.13095e-16)
(1.00374 -0.00278865 -4.0761e-16)
(1.00418 -0.00260089 -1.58513e-16)
(1.00456 -0.0023246 6.10974e-17)
(0.999223 -5.95931e-05 4.68633e-18)
(0.999216 -0.000458594 -1.23812e-16)
(0.999302 -0.000940175 -9.18749e-17)
(0.999482 -0.00144544 -2.15584e-16)
(0.999753 -0.00191566 3.46474e-17)
(1.0001 -0.00234851 -3.34891e-16)
(1.00053 -0.00274311 -3.60115e-16)
(1.00105 -0.00308148 -1.44894e-16)
(1.00163 -0.00331905 3.08783e-16)
(1.00226 -0.00343132 -3.28046e-16)
(1.0029 -0.00340219 1.16091e-16)
(1.00346 -0.00320158 2.15708e-16)
(1.00391 -0.00287522 3.27415e-16)
(1.00435 -0.00266317 1.99925e-16)
(1.00472 -0.00237198 1.69635e-17)
(0.999175 -6.15114e-05 3.29431e-17)
(0.999175 -0.000482885 2.02361e-16)
(0.999265 -0.000987695 9.41823e-17)
(0.999453 -0.00151906 1.80985e-16)
(0.99974 -0.00201704 1.08479e-16)
(1.00011 -0.00247585 4.57051e-17)
(1.00057 -0.00289084 5.2764e-17)
(1.00112 -0.00324059 -1.21297e-16)
(1.00173 -0.00347928 -1.23012e-16)
(1.00239 -0.00358253 1.44191e-17)
(1.00304 -0.00353598 -7.92888e-16)
(1.00362 -0.00331254 -3.09673e-16)
(1.00408 -0.00295885 3.25647e-16)
(1.00452 -0.0027227 -7.26731e-17)
(1.00487 -0.00241576 -2.00947e-16)
(0.999124 -6.3959e-05 -4.42774e-17)
(0.999133 -0.000509534 -1.29684e-16)
(0.999228 -0.0010391 -1.86249e-16)
(0.999426 -0.00159753 6.1189e-17)
(0.99973 -0.00212344 -2.05769e-16)
(1.00012 -0.00260746 3.83203e-17)
(1.00061 -0.00304137 -4.74866e-17)
(1.00119 -0.00340069 -8.68399e-18)
(1.00183 -0.00363877 -1.4703e-16)
(1.00251 -0.00373171 -7.71172e-17)
(1.00319 -0.003667 2.72785e-17)
(1.00378 -0.00342048 2.68983e-16)
(1.00424 -0.00303975 -1.35513e-16)
(1.00469 -0.00277976 2.67807e-16)
(1.00502 -0.00245684 9.44996e-17)
(0.99907 -6.7065e-05 2.36663e-17)
(0.99909 -0.000538641 1.24243e-16)
(0.999191 -0.00109443 2.36634e-16)
(0.999401 -0.00168074 -6.83725e-17)
(0.999723 -0.00223451 -1.6587e-17)
(1.00014 -0.00274279 2.51281e-16)
(1.00066 -0.00319407 2.13748e-16)
(1.00127 -0.00356122 -1.4653e-16)
(1.00193 -0.00379715 3.92626e-16)
(1.00263 -0.0038787 3.56285e-16)
(1.00333 -0.00379529 3.78903e-16)
(1.00393 -0.00352562 -1.7476e-17)
(1.0044 -0.00311826 -3.00539e-16)
(1.00485 -0.00283474 -3.15864e-16)
(1.00515 -0.00249516 -3.04016e-17)
(0.999014 -7.08622e-05 -2.028e-17)
(0.999045 -0.000570168 -6.56101e-17)
(0.999154 -0.00115351 -1.96143e-16)
(0.999376 -0.00176832 1.26239e-16)
(0.999716 -0.0023497 1.21155e-16)
(1.00016 -0.00288116 -1.68276e-16)
(1.0007 -0.0033482 -8.49748e-17)
(1.00134 -0.00372153 8.37505e-18)
(1.00203 -0.00395393 -1.74482e-16)
(1.00275 -0.00402321 -3.05285e-16)
(1.00347 -0.00392076 -5.63431e-16)
(1.00408 -0.003628 6.08732e-17)
(1.00455 -0.00319441 3.67032e-16)
(1.005 -0.00288765 3.32535e-16)
(1.00529 -0.00253136 -6.98657e-17)
(0.998955 -7.53925e-05 -1.61399e-17)
(0.998999 -0.000604025 -1.31984e-17)
(0.999115 -0.0012161 1.71655e-16)
(0.999351 -0.00185986 -1.61964e-16)
(0.999709 -0.00246841 -3.2012e-16)
(1.00017 -0.00302186 1.554e-16)
(1.00074 -0.00350311 8.82235e-17)
(1.00141 -0.00388109 4.08637e-16)
(1.00213 -0.0041088 5.8464e-17)
(1.00287 -0.00416512 2.84314e-16)
(1.0036 -0.00404346 8.44366e-16)
(1.00422 -0.00372777 -2.31635e-16)
(1.00469 -0.00326847 -9.82637e-17)
(1.00514 -0.00293879 -1.15798e-17)
(1.00541 -0.00256526 -2.78433e-17)
(0.998893 -8.06132e-05 4.51386e-17)
(0.998949 -0.000640007 4.9314e-17)
(0.999075 -0.00128179 -1.47639e-16)
(0.999324 -0.00195473 1.37159e-16)
(0.999702 -0.00258988 -9.23494e-17)
(1.00019 -0.0031641 -2.97383e-16)
(1.00079 -0.00365805 1.30831e-17)
(1.00148 -0.00403932 -3.51424e-17)
(1.00222 -0.00426134 -2.16773e-16)
(1.00298 -0.00430422 1.82826e-16)
(1.00372 -0.00416333 -7.8826e-16)
(1.00435 -0.00382498 -1.43517e-17)
(1.00483 -0.0033405 -1.75602e-16)
(1.00528 -0.00298827 3.28571e-17)
(1.00553 -0.00259761 -8.24555e-17)
(0.99883 -8.65e-05 -1.15182e-17)
(0.998898 -0.000677884 -1.17484e-17)
(0.999032 -0.00135012 2.0428e-17)
(0.999296 -0.00205232 -1.52531e-16)
(0.999692 -0.00271336 -2.74099e-17)
(1.0002 -0.00330712 3.63123e-16)
(1.00083 -0.00381238 -2.64753e-16)
(1.00154 -0.00419574 -3.28051e-16)
(1.0023 -0.00441129 3.51384e-16)
(1.00309 -0.00444043 -3.17956e-16)
(1.00384 -0.00428041 4.02506e-16)
(1.00448 -0.00391978 3.80838e-16)
(1.00496 -0.00341068 2.74274e-16)
(1.00541 -0.0030363 -1.82558e-16)
(1.00564 -0.00262804 -6.21672e-17)
(0.998764 -9.29584e-05 -1.24233e-17)
(0.998843 -0.000717345 -7.2104e-17)
(0.998987 -0.00142054 -9.7102e-17)
(0.999265 -0.00215186 7.12669e-17)
(0.99968 -0.00283803 1.80647e-16)
(1.00021 -0.00345012 6.33978e-17)
(1.00086 -0.0039654 2.46073e-16)
(1.0016 -0.00434981 5.37836e-17)
(1.00239 -0.0045583 -4.62013e-16)
(1.00319 -0.00457354 1.61748e-16)
(1.00396 -0.00439461 -2.28657e-16)
(1.0046 -0.00401211 -1.89876e-16)
(1.00509 -0.00347896 -2.55733e-16)
(1.00554 -0.00308278 4.04512e-17)
(1.00574 -0.00265718 1.49998e-16)
(0.998695 -9.99235e-05 -1.90707e-17)
(0.998785 -0.000758088 3.43439e-17)
(0.998939 -0.00149253 4.14611e-17)
(0.999231 -0.00225269 -1.42855e-16)
(0.999666 -0.00296312 6.97245e-17)
(1.00022 -0.00359239 -2.11642e-16)
(1.00089 -0.00411655 -2.59301e-17)
(1.00165 -0.00450117 3.18571e-16)
(1.00246 -0.00470216 -2.03297e-16)
(1.00328 -0.00470352 -2.68762e-16)
(1.00406 -0.004506 2.30899e-16)
(1.00472 -0.00410213 -6.85278e-17)
(1.00521 -0.00354551 -7.24839e-16)
(1.00566 -0.00312791 7.40147e-17)
(1.00584 -0.0026846 1.07898e-16)
(0.998624 -0.000107274 -9.81767e-18)
(0.998725 -0.000799765 3.35029e-17)
(0.998887 -0.00156552 1.26176e-17)
(0.999194 -0.00235404 1.90377e-17)
(0.999647 -0.00308786 1.20342e-16)
(1.00023 -0.00373321 6.68919e-17)
(1.00092 -0.00426524 -2.20424e-16)
(1.0017 -0.00464941 -2.01229e-17)
(1.00253 -0.00484265 6.08907e-16)
(1.00337 -0.00483027 -1.95374e-16)
(1.00416 -0.00461457 -5.74008e-18)
(1.00482 -0.00418986 2.89154e-17)
(1.00532 -0.00361038 2.78031e-17)
(1.00577 -0.00317175 -5.12172e-17)
(1.00593 -0.00271116 1.70282e-17)
(0.99855 -0.000114928 2.58688e-17)
(0.998661 -0.000842064 -6.83424e-17)
(0.998832 -0.00163898 -7.80772e-17)
(0.999154 -0.0024553 1.43948e-19)
(0.999625 -0.00321159 -1.81723e-16)
(1.00022 -0.00387204 -2.90336e-17)
(1.00094 -0.00441109 4.27913e-17)
(1.00175 -0.00479431 -4.84807e-17)
(1.00259 -0.0049797 -4.12288e-16)
(1.00345 -0.00495384 5.49161e-16)
(1.00425 -0.00472047 -3.13422e-17)
(1.00493 -0.0042755 -5.73908e-17)
(1.00542 -0.00367375 3.38249e-16)
(1.00588 -0.0032145 -3.79659e-16)
(1.00602 -0.00273632 7.99222e-18)
(0.998473 -0.000122757 2.74486e-18)
(0.998593 -0.000884646 8.19918e-17)
(0.998774 -0.00171238 2.20371e-16)
(0.99911 -0.00255582 -5.55867e-17)
(0.999599 -0.00333367 1.18107e-16)
(1.00022 -0.0040083 -1.83617e-16)
(1.00096 -0.00455368 -2.20007e-16)
(1.00179 -0.0049356 5.29329e-18)
(1.00265 -0.00511318 2.40083e-16)
(1.00352 -0.00507419 -4.79345e-16)
(1.00434 -0.00482368 1.19447e-16)
(1.00502 -0.00435903 -2.07531e-17)
(1.00552 -0.0037356 2.61375e-16)
(1.00598 -0.00325606 8.07827e-17)
(1.0061 -0.00276083 -1.25649e-16)
(0.998395 -0.000130682 1.05485e-18)
(0.998523 -0.000927234 -8.89937e-17)
(0.998713 -0.0017853 -1.25783e-16)
(0.999062 -0.00265509 2.08104e-17)
(0.999569 -0.00345362 -2.19435e-17)
(1.00021 -0.00414164 1.66666e-16)
(1.00097 -0.00469279 3.61207e-16)
(1.00182 -0.00507322 -3.20571e-16)
(1.0027 -0.00524315 3.64831e-16)
(1.00359 -0.00519147 3.22473e-17)
(1.00442 -0.0049244 7.16356e-17)
(1.00511 -0.00444068 -1.38322e-16)
(1.00562 -0.00379615 2.67035e-16)
(1.00607 -0.00329666 1.51389e-16)
(1.00618 -0.00278413 1.97307e-16)
(0.998313 -0.000138587 -8.62864e-18)
(0.998449 -0.000969544 8.48955e-17)
(0.998647 -0.00185731 1.5494e-16)
(0.999011 -0.00275264 5.35301e-17)
(0.999534 -0.00357099 1.56639e-16)
(1.00019 -0.0042717 1.20348e-16)
(1.00097 -0.0048282 -3.2443e-16)
(1.00184 -0.00520708 6.50298e-16)
(1.00275 -0.00536963 -2.04604e-16)
(1.00365 -0.00530575 -6.81212e-17)
(1.00449 -0.00502275 -2.46574e-16)
(1.00519 -0.00452056 -1.08324e-16)
(1.0057 -0.00385549 -2.97188e-16)
(1.00617 -0.0033364 -1.09588e-16)
(1.00626 -0.0028072 4.74769e-17)
(0.998229 -0.000146406 -3.06449e-17)
(0.998372 -0.00101136 -9.07951e-17)
(0.998579 -0.00192809 -1.08614e-17)
(0.998955 -0.00284813 1.0651e-16)
(0.999495 -0.00368549 -1.42552e-16)
(1.00017 -0.00439832 -1.04728e-16)
(1.00097 -0.00495988 4.05996e-16)
(1.00186 -0.00533727 -1.21288e-16)
(1.00278 -0.0054928 -5.18571e-16)
(1.0037 -0.00541729 7.13863e-17)
(1.00456 -0.005119 -1.2523e-16)
(1.00527 -0.00459894 2.31667e-16)
(1.00579 -0.00391385 3.71081e-16)
(1.00626 -0.00337551 3.30718e-16)
(1.00633 -0.00282943 -2.76581e-16)
(0.998142 -0.000154043 1.83581e-18)
(0.998291 -0.00105246 -1.75181e-17)
(0.998506 -0.00199735 -7.25085e-17)
(0.998896 -0.00294123 4.52077e-17)
(0.999451 -0.00379686 -7.90552e-17)
(1.00015 -0.00452132 1.34894e-16)
(1.00097 -0.00508777 -1.16673e-16)
(1.00188 -0.00546383 4.00952e-17)
(1.00282 -0.00561276 -1.08744e-16)
(1.00375 -0.0055262 2.76696e-16)
(1.00462 -0.00521324 3.38648e-16)
(1.00534 -0.0046759 1.9594e-18)
(1.00587 -0.00397127 -5.90631e-16)
(1.00634 -0.00341395 -4.02185e-16)
(1.0064 -0.00285166 2.73659e-16)
(0.998053 -0.000161459 4.10537e-17)
(0.998208 -0.00109271 7.40964e-17)