1.45 	0 	0 	-0.296719
2.35 	0 	0 	-0.131274
