/*--------------------------------*- C++ -*----------------------------------*\
  =========                 |
  \\      /  F ield         | OpenFOAM: The Open Source CFD Toolbox
   \\    /   O peration     | Website:  https://openfoam.org
    \\  /    A nd           | Version:  6.0
     \\/     M anipulation  |
\*---------------------------------------------------------------------------*/
FoamFile
{
    version     2.0;
    format      ascii;
    class       volScalarField;
    location    "1.5";
    object      p;
}
// * * * * * * * * * * * * * * * * * * * * * * * * * * * * * * * * * * * * * //

dimensions      [0 2 -2 0 0 0 0];

internalField   nonuniform List<scalar> 
29500
(
1.00641
1.00615
1.00567
1.00503
1.00428
1.00355
1.00281
1.00209
1.0014
1.00079
1.00028
0.999848
0.999617
0.999316
0.998968
1.00641
1.00619
1.00576
1.00519
1.0045
1.00382
1.00311
1.00237
1.00165
1.00095
1.00035
0.9998
0.999482
0.998988
0.998567
1.00641
1.00619
1.00574
1.00515
1.00443
1.00373
1.003
1.00227
1.00157
1.0009
1.00033
0.99981
0.999504
0.998955
0.998631
1.00642
1.00618
1.00573
1.00512
1.00438
1.00365
1.00292
1.0022
1.0015
1.00086
1.00031
0.999805
0.999493
0.998894
0.99853
1.00642
1.00619
1.00575
1.00514
1.00441
1.00368
1.00294
1.00221
1.00151
1.00085
1.00029
0.999765
0.99942
0.998762
0.998328
1.00643
1.0062
1.00577
1.00518
1.00446
1.00372
1.00297
1.00223
1.00151
1.00084
1.00026
0.999705
0.999332
0.998627
0.998157
1.00644
1.00621
1.00579
1.0052
1.00449
1.00375
1.00298
1.00223
1.0015
1.00081
1.00022
0.99965
0.999257
0.99852
0.998021
1.00644
1.00622
1.0058
1.00522
1.00451
1.00377
1.003
1.00223
1.00149
1.0008
1.00019
0.999608
0.999197
0.998431
0.997896
1.00645
1.00623
1.00581
1.00524
1.00453
1.00379
1.00302
1.00225
1.0015
1.00079
1.00017
0.999577
0.999144
0.998351
0.997778
1.00646
1.00623
1.00582
1.00525
1.00455
1.00382
1.00304
1.00227
1.00151
1.00079
1.00016
0.999544
0.999089
0.998272
0.997667
1.00647
1.00624
1.00582
1.00525
1.00456
1.00383
1.00306
1.00227
1.00151
1.00078
1.00014
0.999508
0.999032
0.998198
0.997565
1.00648
1.00625
1.00583
1.00526
1.00457
1.00384
1.00306
1.00227
1.0015
1.00077
1.00011
0.999469
0.998974
0.998128
0.99747
1.00649
1.00626
1.00583
1.00526
1.00457
1.00384
1.00306
1.00227
1.0015
1.00075
1.00009
0.999433
0.998921
0.998063
0.997384
1.0065
1.00627
1.00584
1.00527
1.00458
1.00384
1.00307
1.00227
1.00149
1.00074
1.00007
0.9994
0.998869
0.998003
0.997302
1.00652
1.00629
1.00586
1.00528
1.00459
1.00385
1.00307
1.00228
1.00149
1.00073
1.00005
0.999369
0.99882
0.997944
0.997225
1.00653
1.0063
1.00588
1.0053
1.00461
1.00387
1.00308
1.00228
1.00149
1.00073
1.00003
0.999338
0.998769
0.997885
0.997149
1.00655
1.00632
1.0059
1.00533
1.00463
1.00389
1.0031
1.00229
1.0015
1.00072
1.00001
0.999304
0.998716
0.997826
0.997077
1.00657
1.00634
1.00592
1.00535
1.00466
1.00391
1.00311
1.0023
1.0015
1.00071
0.999987
0.999265
0.998659
0.997765
0.997007
1.00659
1.00636
1.00594
1.00538
1.00468
1.00393
1.00313
1.00231
1.00149
1.0007
0.999961
0.999225
0.998602
0.997706
0.99694
1.00661
1.00638
1.00596
1.00541
1.00471
1.00395
1.00314
1.00231
1.00149
1.00068
0.999932
0.999183
0.998544
0.997648
0.996876
1.00663
1.0064
1.00599
1.00543
1.00474
1.00397
1.00316
1.00232
1.00149
1.00067
0.999904
0.999143
0.998489
0.997592
0.996816
1.00665
1.00642
1.00601
1.00545
1.00476
1.004
1.00318
1.00233
1.00148
1.00065
0.999877
0.999103
0.998436
0.997538
0.996758
1.00667
1.00645
1.00603
1.00547
1.00478
1.00401
1.00319
1.00233
1.00148
1.00064
0.999851
0.999066
0.998384
0.997487
0.996702
1.00669
1.00647
1.00605
1.00549
1.0048
1.00403
1.0032
1.00234
1.00148
1.00062
0.999826
0.99903
0.998334
0.997435
0.996646
1.00671
1.00649
1.00607
1.00551
1.00482
1.00405
1.00321
1.00235
1.00147
1.00061
0.999803
0.998995
0.998285
0.997385
0.996593
1.00674
1.00651
1.00609
1.00553
1.00483
1.00406
1.00322
1.00235
1.00147
1.0006
0.999779
0.998959
0.998235
0.997335
0.996539
1.00676
1.00654
1.00612
1.00556
1.00486
1.00408
1.00324
1.00236
1.00147
1.00059
0.999755
0.998924
0.998186
0.997284
0.996485
1.00679
1.00657
1.00615
1.00558
1.00488
1.0041
1.00325
1.00236
1.00147
1.00057
0.99973
0.998887
0.998136
0.997232
0.996432
1.00682
1.0066
1.00617
1.00561
1.0049
1.00412
1.00326
1.00237
1.00146
1.00056
0.999705
0.99885
0.998085
0.99718
0.996379
1.00684
1.00663
1.00621
1.00564
1.00493
1.00414
1.00328
1.00237
1.00146
1.00055
0.999678
0.998811
0.998033
0.997127
0.996325
1.00687
1.00666
1.00624
1.00567
1.00496
1.00416
1.0033
1.00238
1.00146
1.00053
0.99965
0.998772
0.997981
0.997075
0.996272
1.0069
1.00669
1.00627
1.0057
1.00499
1.00419
1.00331
1.00239
1.00145
1.00052
0.999621
0.998732
0.997929
0.997021
0.99622
1.00693
1.00672
1.0063
1.00574
1.00502
1.00421
1.00333
1.0024
1.00145
1.0005
0.999593
0.998692
0.997877
0.996969
0.996168
1.00697
1.00675
1.00633
1.00577
1.00505
1.00424
1.00335
1.0024
1.00144
1.00048
0.999563
0.998651
0.997825
0.996916
0.996116
1.007
1.00678
1.00636
1.0058
1.00508
1.00426
1.00336
1.00241
1.00144
1.00047
0.999535
0.998612
0.997774
0.996863
0.996064
1.00704
1.00682
1.0064
1.00583
1.0051
1.00428
1.00338
1.00241
1.00143
1.00045
0.999506
0.998572
0.997723
0.996811
0.996012
1.00707
1.00685
1.00643
1.00585
1.00513
1.0043
1.00339
1.00242
1.00143
1.00043
0.999478
0.998533
0.997673
0.996758
0.99596
1.00711
1.00689
1.00646
1.00589
1.00516
1.00432
1.0034
1.00242
1.00142
1.00042
0.999449
0.998493
0.997622
0.996705
0.995907
1.00714
1.00693
1.0065
1.00592
1.00519
1.00435
1.00342
1.00243
1.00142
1.0004
0.999421
0.998455
0.997572
0.996651
0.995854
1.00718
1.00696
1.00654
1.00595
1.00522
1.00437
1.00343
1.00244
1.00142
1.00039
0.999393
0.998415
0.997521
0.996597
0.995799
1.00722
1.007
1.00658
1.00599
1.00525
1.00439
1.00345
1.00244
1.00141
1.00037
0.999365
0.998375
0.997469
0.996542
0.995744
1.00726
1.00705
1.00662
1.00603
1.00528
1.00442
1.00347
1.00245
1.00141
1.00036
0.999336
0.998334
0.997417
0.996485
0.995687
1.00731
1.00709
1.00666
1.00607
1.00532
1.00445
1.00349
1.00246
1.00141
1.00034
0.999307
0.998293
0.997364
0.996428
0.995631
1.00735
1.00713
1.0067
1.00611
1.00535
1.00448
1.00351
1.00247
1.0014
1.00032
0.999277
0.998251
0.99731
0.99637
0.995572
1.00739
1.00717
1.00674
1.00615
1.00539
1.00451
1.00353
1.00248
1.0014
1.00031
0.999247
0.998208
0.997256
0.996311
0.995513
1.00744
1.00722
1.00679
1.00619
1.00543
1.00454
1.00355
1.00249
1.0014
1.00029
0.999216
0.998164
0.997201
0.996252
0.995453
1.00748
1.00726
1.00683
1.00623
1.00546
1.00457
1.00357
1.0025
1.00139
1.00027
0.999184
0.998121
0.997147
0.996192
0.995392
1.00753
1.00731
1.00687
1.00627
1.0055
1.0046
1.00359
1.0025
1.00139
1.00026
0.999152
0.998076
0.997091
0.99613
0.995329
1.00758
1.00736
1.00692
1.00631
1.00553
1.00462
1.00361
1.00251
1.00138
1.00024
0.99912
0.998032
0.997035
0.996069
0.995267
1.00763
1.00741
1.00696
1.00635
1.00557
1.00465
1.00362
1.00252
1.00138
1.00022
0.999087
0.997987
0.996979
0.996006
0.995202
1.00768
1.00745
1.00701
1.00639
1.0056
1.00468
1.00364
1.00253
1.00137
1.0002
0.999055
0.997942
0.996922
0.995943
0.995137
1.00773
1.00751
1.00706
1.00643
1.00564
1.00471
1.00366
1.00253
1.00137
1.00018
0.999022
0.997897
0.996865
0.995878
0.99507
1.00778
1.00756
1.00711
1.00648
1.00568
1.00474
1.00368
1.00254
1.00136
1.00016
0.998989
0.997851
0.996807
0.995814
0.995002
1.00784
1.00761
1.00716
1.00652
1.00572
1.00477
1.0037
1.00255
1.00136
1.00014
0.998956
0.997804
0.996748
0.995747
0.994932
1.00789
1.00767
1.00721
1.00657
1.00576
1.0048
1.00372
1.00256
1.00135
1.00013
0.998923
0.997758
0.996689
0.99568
0.994862
1.00795
1.00772
1.00726
1.00662
1.0058
1.00484
1.00375
1.00257
1.00135
1.00011
0.998889
0.99771
0.996629
0.995612
0.99479
1.00801
1.00778
1.00732
1.00667
1.00585
1.00487
1.00377
1.00259
1.00135
1.00009
0.998855
0.997662
0.996568
0.995543
0.994717
1.00806
1.00784
1.00737
1.00672
1.00589
1.00491
1.0038
1.0026
1.00134
1.00007
0.99882
0.997613
0.996506
0.995472
0.994641
1.00812
1.0079
1.00743
1.00678
1.00594
1.00495
1.00382
1.00261
1.00134
1.00005
0.998785
0.997563
0.996444
0.995402
0.994566
1.00818
1.00796
1.00749
1.00683
1.00599
1.00499
1.00385
1.00262
1.00134
1.00003
0.998749
0.997513
0.99638
0.995329
0.994487
1.00825
1.00802
1.00755
1.00688
1.00603
1.00502
1.00388
1.00263
1.00133
1.00001
0.998713
0.997462
0.996316
0.995256
0.994408
1.00831
1.00808
1.00761
1.00694
1.00608
1.00506
1.0039
1.00265
1.00133
0.999993
0.998676
0.99741
0.996251
0.995181
0.994327
1.00837
1.00815
1.00767
1.007
1.00613
1.0051
1.00393
1.00266
1.00133
0.999972
0.998639
0.997358
0.996185
0.995106
0.994245
1.00844
1.00821
1.00773
1.00705
1.00618
1.00514
1.00395
1.00267
1.00132
0.999951
0.998601
0.997304
0.996118
0.995028
0.99416
1.00851
1.00828
1.00779
1.00711
1.00623
1.00518
1.00398
1.00268
1.00132
0.99993
0.998563
0.997251
0.99605
0.99495
0.994075
1.00858
1.00834
1.00785
1.00717
1.00628
1.00522
1.00401
1.00269
1.00131
0.999909
0.998524
0.997195
0.995981
0.99487
0.993986
1.00865
1.00841
1.00792
1.00723
1.00633
1.00526
1.00404
1.00271
1.00131
0.999888
0.998485
0.99714
0.995911
0.994789
0.993898
1.00872
1.00848
1.00799
1.00729
1.00639
1.0053
1.00407
1.00272
1.00131
0.999866
0.998445
0.997084
0.995839
0.994706
0.993806
1.00879
1.00856
1.00806
1.00735
1.00644
1.00535
1.0041
1.00273
1.0013
0.999844
0.998405
0.997027
0.995767
0.994622
0.993714
1.00886
1.00863
1.00813
1.00742
1.0065
1.00539
1.00413
1.00275
1.0013
0.999822
0.998363
0.996968
0.995693
0.994536
0.993619
1.00894
1.00871
1.0082
1.00749
1.00656
1.00544
1.00416
1.00276
1.0013
0.9998
0.998322
0.99691
0.995618
0.994449
0.993523
1.00902
1.00878
1.00827
1.00755
1.00661
1.00549
1.00419
1.00278
1.00129
0.999777
0.99828
0.996849
0.995542
0.994359
0.993425
1.0091
1.00886
1.00835
1.00762
1.00667
1.00553
1.00423
1.0028
1.00129
0.999754
0.998237
0.996788
0.995464
0.994269
0.993325
1.00918
1.00894
1.00842
1.00769
1.00674
1.00558
1.00426
1.00281
1.00129
0.99973
0.998193
0.996726
0.995385
0.994177
0.993223
1.00926
1.00902
1.0085
1.00776
1.0068
1.00563
1.00429
1.00283
1.00128
0.999706
0.998149
0.996663
0.995305
0.994083
0.99312
1.00934
1.0091
1.00858
1.00784
1.00686
1.00568
1.00433
1.00284
1.00128
0.999682
0.998104
0.996598
0.995222
0.993987
0.993014
1.00943
1.00919
1.00866
1.00791
1.00692
1.00573
1.00436
1.00286
1.00127
0.999657
0.998058
0.996533
0.995139
0.99389
0.992907
1.00951
1.00927
1.00874
1.00799
1.00699
1.00578
1.0044
1.00288
1.00127
0.999632
0.998011
0.996466
0.995054
0.993791
0.992798
1.0096
1.00936
1.00883
1.00806
1.00706
1.00584
1.00443
1.00289
1.00127
0.999606
0.997964
0.996398
0.994968
0.993691
0.992687
1.00969
1.00945
1.00891
1.00814
1.00712
1.00589
1.00447
1.00291
1.00126
0.99958
0.997915
0.996328
0.99488
0.993588
0.992573
1.00978
1.00954
1.009
1.00822
1.00719
1.00595
1.00451
1.00293
1.00126
0.999554
0.997867
0.996258
0.994791
0.993485
0.992459
1.00988
1.00963
1.00909
1.0083
1.00726
1.006
1.00455
1.00295
1.00126
0.999527
0.997816
0.996186
0.994699
0.993378
0.992341
1.00997
1.00973
1.00918
1.00839
1.00733
1.00606
1.00459
1.00297
1.00125
0.9995
0.997765
0.996113
0.994607
0.993271
0.992221
1.01007
1.00982
1.00927
1.00847
1.00741
1.00612
1.00463
1.00299
1.00125
0.999472
0.997713
0.996038
0.994512
0.993161
0.992099
1.01017
1.00992
1.00936
1.00856
1.00748
1.00618
1.00467
1.00301
1.00125
0.999444
0.99766
0.995962
0.994416
0.993049
0.991975
1.01027
1.01002
1.00946
1.00864
1.00756
1.00624
1.00471
1.00303
1.00124
0.999414
0.997605
0.995885
0.994318
0.992935
0.991848
1.01037
1.01012
1.00955
1.00873
1.00764
1.0063
1.00475
1.00305
1.00124
0.999384
0.99755
0.995806
0.994219
0.99282
0.99172
1.01048
1.01022
1.00965
1.00882
1.00771
1.00636
1.00479
1.00307
1.00123
0.999353
0.997493
0.995725
0.994117
0.992702
0.991589
1.01058
1.01033
1.00975
1.00892
1.00779
1.00643
1.00484
1.00309
1.00123
0.999323
0.997436
0.995644
0.994015
0.992582
0.991455
1.01069
1.01044
1.00985
1.00901
1.00788
1.00649
1.00488
1.00311
1.00122
0.99929
0.997377
0.995561
0.99391
0.99246
0.991319
1.0108
1.01054
1.00996
1.00911
1.00796
1.00656
1.00493
1.00313
1.00122
0.999258
0.997318
0.995477
0.993804
0.992336
0.991181
1.01091
1.01066
1.01006
1.0092
1.00804
1.00662
1.00497
1.00315
1.00121
0.999225
0.997257
0.99539
0.993695
0.992209
0.991039
1.01103
1.01077
1.01017
1.0093
1.00813
1.00669
1.00502
1.00318
1.00121
0.999192
0.997196
0.995304
0.993585
0.992081
0.990896
1.01114
1.01088
1.01028
1.0094
1.00822
1.00676
1.00507
1.0032
1.0012
0.999158
0.997134
0.995214
0.993473
0.991949
0.990749
1.01126
1.011
1.0104
1.00951
1.00831
1.00684
1.00512
1.00322
1.0012
0.999124
0.997071
0.995125
0.993359
0.991816
0.9906
1.01138
1.01112
1.01051
1.00961
1.0084
1.00691
1.00517
1.00325
1.00119
0.999088
0.997006
0.995032
0.993242
0.991679
0.990447
1.0115
1.01124
1.01063
1.00972
1.0085
1.00698
1.00522
1.00327
1.00119
0.999052
0.99694
0.994939
0.993124
0.991541
0.990293
1.01163
1.01137
1.01075
1.00983
1.00859
1.00706
1.00527
1.00329
1.00118
0.999015
0.996873
0.994844
0.993004
0.991399
0.990134
1.01176
1.01149
1.01087
1.00994
1.00869
1.00714
1.00533
1.00332
1.00118
0.998978
0.996805
0.994747
0.992881
0.991255
0.989973
1.01188
1.01162
1.01099
1.01006
1.00879
1.00722
1.00538
1.00334
1.00117
0.99894
0.996735
0.994648
0.992756
0.991108
0.989808
1.01202
1.01175
1.01112
1.01017
1.00889
1.0073
1.00544
1.00337
1.00116
0.998902
0.996665
0.994549
0.992629
0.990959
0.989641
1.01215
1.01188
1.01124
1.01029
1.00899
1.00738
1.00549
1.0034
1.00116
0.998862
0.996593
0.994446
0.9925
0.990807
0.98947
1.01229
1.01202
1.01137
1.01041
1.0091
1.00746
1.00555
1.00342
1.00115
0.998823
0.996521
0.994343
0.992368
0.990652
0.989297
1.01243
1.01216
1.01151
1.01054
1.0092
1.00755
1.00561
1.00345
1.00114
0.998782
0.996446
0.994237
0.992234
0.990493
0.989119
1.01257
1.0123
1.01164
1.01066
1.00931
1.00763
1.00567
1.00348
1.00114
0.998741
0.996371
0.994129
0.992098
0.990332
0.988938
1.01271
1.01244
1.01178
1.01079
1.00942
1.00772
1.00573
1.00351
1.00113
0.998699
0.996294
0.994019
0.991958
0.990168
0.988753
1.01286
1.01259
1.01192
1.01092
1.00953
1.00781
1.00579
1.00354
1.00113
0.998657
0.996217
0.993908
0.991816
0.99
0.988566
1.01301
1.01274
1.01206
1.01105
1.00965
1.0079
1.00585
1.00356
1.00112
0.998614
0.996137
0.993794
0.991671
0.989829
0.988373
1.01316
1.01289
1.01221
1.01119
1.00977
1.00799
1.00591
1.0036
1.00112
0.998571
0.996057
0.993678
0.991524
0.989655
0.988178
1.01332
1.01304
1.01236
1.01133
1.00988
1.00809
1.00598
1.00363
1.00111
0.998526
0.995974
0.99356
0.991372
0.989476
0.987977
1.01347
1.0132
1.01251
1.01147
1.01001
1.00818
1.00605
1.00366
1.0011
0.998481
0.99589
0.993439
0.991219
0.989295
0.987774
1.01363
1.01336
1.01266
1.01161
1.01013
1.00828
1.00611
1.00369
1.0011
0.998435
0.995804
0.993316
0.991061
0.989109
0.987565
1.0138
1.01353
1.01282
1.01176
1.01026
1.00838
1.00618
1.00373
1.00109
0.998388
0.995716
0.99319
0.990901
0.98892
0.987354
1.01397
1.01369
1.01298
1.0119
1.01039
1.00849
1.00625
1.00376
1.00108
0.998339
0.995627
0.993061
0.990737
0.988726
0.987136
1.01414
1.01386
1.01314
1.01206
1.01052
1.00859
1.00633
1.00379
1.00108
0.99829
0.995536
0.992931
0.99057
0.988529
0.986916
1.01431
1.01403
1.01331
1.01221
1.01065
1.0087
1.0064
1.00383
1.00107
0.99824
0.995442
0.992796
0.990399
0.988328
0.986689
1.01449
1.01421
1.01348
1.01237
1.01079
1.00881
1.00648
1.00387
1.00107
0.998189
0.995347
0.99266
0.990225
0.988123
0.98646
1.01466
1.01439
1.01365
1.01253
1.01093
1.00892
1.00655
1.0039
1.00106
0.998136
0.995249
0.99252
0.990047
0.987913
0.986224
1.01485
1.01457
1.01383
1.01269
1.01107
1.00903
1.00663
1.00394
1.00105
0.998083
0.99515
0.992377
0.989866
0.9877
0.985985
1.01503
1.01476
1.01401
1.01286
1.01121
1.00915
1.00671
1.00398
1.00104
0.998028
0.995048
0.992231
0.98968
0.987481
0.98574
1.01522
1.01495
1.01419
1.01303
1.01136
1.00927
1.0068
1.00402
1.00104
0.997972
0.994944
0.992083
0.989491
0.987259
0.985491
1.01542
1.01515
1.01438
1.0132
1.01151
1.00939
1.00688
1.00406
1.00103
0.997914
0.994837
0.99193
0.989297
0.987032
0.985236
1.01561
1.01534
1.01457
1.01338
1.01167
1.00951
1.00697
1.0041
1.00102
0.997856
0.994729
0.991774
0.9891
0.986801
0.984978
1.01581
1.01554
1.01477
1.01356
1.01182
1.00964
1.00706
1.00414
1.00101
0.997795
0.994617
0.991615
0.988898
0.986564
0.984713
1.01602
1.01575
1.01496
1.01374
1.01198
1.00977
1.00715
1.00419
1.001
0.997733
0.994503
0.991452
0.988693
0.986324
0.984445
1.01623
1.01596
1.01517
1.01393
1.01215
1.0099
1.00724
1.00423
1.00099
0.997669
0.994385
0.991285
0.988483
0.986078
0.98417
1.01644
1.01617
1.01537
1.01413
1.01232
1.01004
1.00733
1.00428
1.00099
0.997604
0.994266
0.991115
0.988269
0.985827
0.983891
1.01666
1.01639
1.01558
1.01432
1.01249
1.01018
1.00743
1.00432
1.00097
0.997536
0.994142
0.990941
0.988049
0.985571
0.983605
1.01688
1.01662
1.0158
1.01452
1.01266
1.01032
1.00752
1.00437
1.00096
0.997467
0.994017
0.990764
0.987826
0.985311
0.983314
1.0171
1.01684
1.01602
1.01473
1.01284
1.01046
1.00762
1.00441
1.00095
0.997396
0.993888
0.990581
0.987598
0.985044
0.983017
1.01733
1.01707
1.01624
1.01493
1.01302
1.01061
1.00773
1.00446
1.00094
0.997323
0.993756
0.990396
0.987365
0.984773
0.982714
1.01757
1.01731
1.01647
1.01515
1.01321
1.01076
1.00783
1.00451
1.00093
0.997247
0.993621
0.990206
0.987127
0.984495
0.982404
1.01781
1.01755
1.01671
1.01537
1.0134
1.01091
1.00793
1.00456
1.00091
0.997171
0.993483
0.990012
0.986885
0.984213
0.982089
1.01805
1.0178
1.01694
1.01559
1.01359
1.01107
1.00804
1.0046
1.0009
0.997091
0.993341
0.989813
0.986637
0.983924
0.981766
1.0183
1.01805
1.01719
1.01582
1.01379
1.01123
1.00815
1.00465
1.00088
0.99701
0.993196
0.989611
0.986384
0.983629
0.981438
1.01856
1.01831
1.01744
1.01605
1.014
1.01139
1.00826
1.0047
1.00087
0.996926
0.993048
0.989403
0.986125
0.983328
0.981101
1.01881
1.01857
1.01769
1.01629
1.0142
1.01156
1.00838
1.00475
1.00085
0.99684
0.992896
0.989192
0.985861
0.98302
0.980759
1.01908
1.01884
1.01795
1.01653
1.01442
1.01173
1.00849
1.00481
1.00083
0.996751
0.99274
0.988975
0.98559
0.982706
0.980408
1.01935
1.01911
1.01822
1.01678
1.01463
1.0119
1.00861
1.00486
1.00081
0.99666
0.992581
0.988753
0.985315
0.982385
0.980052
1.01963
1.01939
1.01849
1.01703
1.01485
1.01208
1.00873
1.00491
1.00079
0.996566
0.992417
0.988526
0.985032
0.982057
0.979687
1.01991
1.01967
1.01876
1.01729
1.01508
1.01226
1.00885
1.00496
1.00077
0.99647
0.99225
0.988294
0.984744
0.981722
0.979315
1.02019
1.01996
1.01905
1.01755
1.01531
1.01245
1.00898
1.00502
1.00075
0.996371
0.992077
0.988055
0.984448
0.981378
0.978934
1.02049
1.02026
1.01933
1.01782
1.01555
1.01264
1.00911
1.00507
1.00072
0.99627
0.991901
0.987812
0.984146
0.981029
0.978546
1.02079
1.02056
1.01963
1.0181
1.01579
1.01283
1.00923
1.00512
1.0007
0.996164
0.99172
0.987562
0.983836
0.98067
0.978148
1.0211
1.02087
1.01993
1.01838
1.01604
1.01303
1.00937
1.00518
1.00067
0.996057
0.991535
0.987306
0.98352
0.980304
0.977743
1.02141
1.02119
1.02024
1.01867
1.01629
1.01323
1.0095
1.00523
1.00064
0.995945
0.991344
0.987044
0.983195
0.979928
0.977328
1.02173
1.02152
1.02056
1.01897
1.01655
1.01344
1.00964
1.00529
1.00061
0.995831
0.991148
0.986775
0.982864
0.979545
0.976905
1.02205
1.02185
1.02088
1.01927
1.01682
1.01365
1.00978
1.00535
1.00058
0.995712
0.990946
0.986498
0.982523
0.979153
0.976472
1.02239
1.02219
1.02121
1.01958
1.01709
1.01387
1.00992
1.00541
1.00055
0.99559
0.99074
0.986215
0.982175
0.978752
0.97603
1.02273
1.02253
1.02155
1.0199
1.01737
1.01409
1.01006
1.00546
1.00052
0.995464
0.990526
0.985924
0.981817
0.978341
0.975578
1.02308
1.02289
1.02189
1.02022
1.01765
1.01431
1.01021
1.00552
1.00048
0.995334
0.990307
0.985626
0.981452
0.977921
0.975116
1.02343
1.02325
1.02225
1.02055
1.01794
1.01454
1.01036
1.00558
1.00044
0.995198
0.990081
0.985319
0.981076
0.97749
0.974644
1.0238
1.02362
1.02261
1.02089
1.01824
1.01477
1.01051
1.00564
1.0004
0.995059
0.989849
0.985004
0.980692
0.977051
0.974162
1.02417
1.024
1.02298
1.02124
1.01854
1.01501
1.01067
1.0057
1.00036
0.994914
0.989608
0.984679
0.980297
0.9766
0.973669
1.02455
1.02438
1.02336
1.0216
1.01885
1.01526
1.01082
1.00576
1.00031
0.994764
0.989362
0.984347
0.979893
0.97614
0.973166
1.02494
1.02478
1.02375
1.02196
1.01917
1.01551
1.01099
1.00581
1.00026
0.994608
0.989106
0.984004
0.979478
0.975668
0.972651
1.02534
1.02519
1.02415
1.02233
1.0195
1.01576
1.01115
1.00587
1.00021
0.994447
0.988843
0.983653
0.979054
0.975186
0.972127
1.02574
1.0256
1.02456
1.02272
1.01983
1.01603
1.01132
1.00593
1.00016
0.994279
0.988571
0.983291
0.978617
0.974691
0.971589
1.02616
1.02603
1.02497
1.02311
1.02017
1.01629
1.01149
1.00599
1.0001
0.994105
0.988291
0.982919
0.978171
0.974187
0.971042
1.02659
1.02646
1.0254
1.02351
1.02052
1.01657
1.01166
1.00605
1.00004
0.993923
0.988001
0.982536
0.977711
0.973669
0.970481
1.02702
1.02691
1.02584
1.02392
1.02088
1.01685
1.01183
1.00611
0.999969
0.993735
0.987702
0.982143
0.977241
0.97314
0.96991
1.02747
1.02737
1.02629
1.02434
1.02125
1.01713
1.01201
1.00616
0.999897
0.993539
0.987393
0.981737
0.976758
0.972597
0.969325
1.02793
1.02784
1.02675
1.02478
1.02163
1.01742
1.01219
1.00622
0.999821
0.993335
0.987074
0.98132
0.976263
0.972043
0.968728
1.0284
1.02832
1.02722
1.02522
1.02201
1.01772
1.01238
1.00627
0.999738
0.993122
0.986743
0.980891
0.975754
0.971474
0.968117
1.02888
1.02881
1.02771
1.02568
1.02241
1.01802
1.01256
1.00633
0.999651
0.992901
0.986402
0.980449
0.975233
0.970894
0.967494
1.02937
1.02931
1.02821
1.02614
1.02281
1.01834
1.01275
1.00638
0.999557
0.992669
0.986048
0.979994
0.974697
0.970298
0.966856
1.02987
1.02983
1.02872
1.02662
1.02323
1.01865
1.01294
1.00643
0.999458
0.992429
0.985684
0.979526
0.974148
0.969689
0.966205
1.03039
1.03036
1.02924
1.02711
1.02365
1.01898
1.01314
1.00647
0.999351
0.992178
0.985305
0.979043
0.973583
0.969064
0.965539
1.03092
1.0309
1.02978
1.02762
1.02409
1.01931
1.01334
1.00652
0.999238
0.991917
0.984914
0.978547
0.973005
0.968425
0.964859
1.03146
1.03146
1.03033
1.02814
1.02454
1.01965
1.01353
1.00656
0.999115
0.991643
0.984509
0.978034
0.972409
0.96777
0.964163
1.03202
1.03204
1.0309
1.02867
1.025
1.02
1.01374
1.00659
0.998986
0.991359
0.98409
0.977508
0.971799
0.967099
0.963452
1.03259
1.03262
1.03148
1.02921
1.02547
1.02035
1.01394
1.00663
0.998846
0.991061
0.983656
0.976963
0.971171
0.966411
0.962724
1.03317
1.03323
1.03208
1.02978
1.02595
1.02071
1.01414
1.00666
0.998699
0.990751
0.983207
0.976404
0.970527
0.965707
0.96198
1.03377
1.03385
1.03269
1.03035
1.02644
1.02108
1.01435
1.00668
0.99854
0.990425
0.98274
0.975825
0.969865
0.964985
0.961219
1.03439
1.03449
1.03332
1.03094
1.02695
1.02146
1.01456
1.0067
0.998371
0.990087
0.982258
0.97523
0.969185
0.964245
0.960441
1.03503
1.03514
1.03397
1.03155
1.02747
1.02184
1.01476
1.00671
0.99819
0.989732
0.981757
0.974615
0.968485
0.963487
0.959644
1.03568
1.03581
1.03464
1.03218
1.028
1.02223
1.01497
1.00672
0.997998
0.989361
0.981239
0.973982
0.967766
0.962709
0.95883
1.03634
1.0365
1.03532
1.03282
1.02855
1.02263
1.01518
1.00672
0.997792
0.988973
0.9807
0.973327
0.967027
0.961912
0.957996
1.03703
1.03722
1.03603
1.03348
1.02911
1.02304
1.01539
1.00671
0.997573
0.988568
0.980142
0.972653
0.966267
0.961095
0.957143
1.03774
1.03795
1.03676
1.03416
1.02969
1.02345
1.0156
1.0067
0.997338
0.988142
0.979562
0.971955
0.965485
0.960256
0.95627
1.03846
1.0387
1.0375
1.03486
1.03028
1.02388
1.01581
1.00667
0.997088
0.987698
0.978961
0.971236
0.964682
0.959396
0.955376
1.03921
1.03947
1.03827
1.03558
1.03089
1.0243
1.01601
1.00663
0.99682
0.987232
0.978336
0.970492
0.963854
0.958513
0.954461
1.03997
1.04027
1.03907
1.03632
1.03151
1.02474
1.01622
1.00659
0.996536
0.986744
0.977688
0.969725
0.963004
0.957609
0.953525
1.04076
1.04109
1.03988
1.03709
1.03215
1.02519
1.01642
1.00653
0.99623
0.986231
0.977013
0.968931
0.962128
0.95668
0.952566
1.04158
1.04194
1.04073
1.03787
1.03281
1.02564
1.01662
1.00645
0.995905
0.985695
0.976313
0.968112
0.961227
0.955727
0.951584
1.04241
1.04281
1.04159
1.03868
1.03348
1.0261
1.01681
1.00636
0.995557
0.985132
0.975584
0.967264
0.960299
0.954749
0.950579
1.04327
1.04371
1.04249
1.03951
1.03417
1.02656
1.01699
1.00626
0.995186
0.984542
0.974827
0.966389
0.959344
0.953745
0.94955
1.04416
1.04463
1.04341
1.04037
1.03488
1.02703
1.01717
1.00614
0.994788
0.983921
0.974039
0.965483
0.958361
0.952715
0.948495
1.04507
1.04559
1.04437
1.04126
1.0356
1.02751
1.01734
1.00599
0.994364
0.98327
0.97322
0.964547
0.957349
0.951658
0.947416
1.04601
1.04657
1.04535
1.04217
1.03634
1.02799
1.0175
1.00583
0.99391
0.982586
0.972366
0.963578
0.956306
0.950572
0.94631
1.04698
1.04759
1.04637
1.04311
1.03711
1.02848
1.01765
1.00564
0.993426
0.981868
0.971479
0.962576
0.955233
0.949458
0.945177
1.04799
1.04864
1.04742
1.04408
1.03789
1.02896
1.01779
1.00543
0.992907
0.981112
0.970555
0.961539
0.954127
0.948313
0.944017
1.04902
1.04973
1.0485
1.04508
1.03869
1.02946
1.01791
1.00518
0.992354
0.980319
0.969593
0.960467
0.952988
0.947139
0.942829
1.05009
1.05085
1.04962
1.04611
1.03951
1.02995
1.01802
1.00491
0.99176
0.979484
0.96859
0.959357
0.951815
0.945933
0.941612
1.05119
1.05201
1.05078
1.04718
1.04035
1.03044
1.01811
1.0046
0.991128
0.978608
0.967547
0.958209
0.950607
0.944695
0.940366
1.05233
1.05321
1.05198
1.04828
1.0412
1.03093
1.01817
1.00426
0.99045
0.977684
0.96646
0.95702
0.949362
0.943423
0.939088
1.0535
1.05445
1.05322
1.04941
1.04208
1.03142
1.01821
1.00388
0.989727
0.976714
0.965328
0.955791
0.94808
0.942119
0.937781
1.05472
1.05573
1.05451
1.05058
1.04297
1.0319
1.01822
1.00345
0.988952
0.975693
0.964148
0.954517
0.946758
0.940778
0.936441
1.05598
1.05706
1.05584
1.05179
1.04389
1.03237
1.0182
1.00298
0.988125
0.97462
0.962919
0.953201
0.945398
0.939403
0.935069
1.05728
1.05844
1.05722
1.05303
1.04482
1.03283
1.01814
1.00245
0.98724
0.973489
0.961638
0.951836
0.943996
0.93799
0.933663
1.05863
1.05987
1.05865
1.05432
1.04576
1.03328
1.01804
1.00187
0.986295
0.972301
0.960304
0.950426
0.942553
0.93654
0.932223
1.06003
1.06135
1.06013
1.05565
1.04672
1.03371
1.0179
1.00123
0.985285
0.97105
0.958914
0.948965
0.941065
0.935051
0.930748
1.06148
1.06289
1.06167
1.05702
1.0477
1.03412
1.01771
1.00052
0.984206
0.969735
0.957466
0.947455
0.939534
0.933524
0.929238
1.06298
1.06448
1.06327
1.05843
1.04869
1.03451
1.01746
0.999744
0.983053
0.96835
0.955957
0.945891
0.937957
0.931955
0.927691
1.06454
1.06615
1.06493
1.05989
1.04969
1.03486
1.01715
0.998888
0.981822
0.966895
0.954386
0.944274
0.936334
0.930346
0.926108
1.06616
1.06787
1.06666
1.0614
1.05069
1.03517
1.01676
0.997947
0.980508
0.965364
0.95275
0.9426
0.934662
0.928694
0.924485
1.06785
1.06967
1.06846
1.06295
1.05169
1.03544
1.0163
0.996916
0.979106
0.963756
0.951047
0.940871
0.932941
0.927
0.922825
1.0696
1.07154
1.07032
1.06455
1.0527
1.03565
1.01575
0.995786
0.97761
0.962065
0.949274
0.939081
0.93117
0.925262
0.921124
1.07142
1.07348
1.07227
1.06619
1.0537
1.03581
1.01511
0.994552
0.976017
0.960289
0.947429
0.937233
0.929349
0.923479
0.919383
1.07331
1.07551
1.07429
1.06789
1.05468
1.03589
1.01436
0.993203
0.974318
0.958423
0.94551
0.935322
0.927474
0.92165
0.9176
1.07528
1.07763
1.0764
1.06962
1.05565
1.03589
1.01349
0.991733
0.972511
0.956465
0.943515
0.933349
0.925548
0.919775
0.915775
1.07734
1.07985
1.07859
1.0714
1.05659
1.0358
1.01249
0.990131
0.970587
0.954411
0.941441
0.93131
0.923566
0.917853
0.913908
1.07949
1.08216
1.08088
1.07323
1.05749
1.03559
1.01135
0.988389
0.968542
0.952257
0.939287
0.929207
0.92153
0.915883
0.911997
1.08173
1.08458
1.08327
1.07509
1.05834
1.03526
1.01006
0.986496
0.96637
0.95
0.93705
0.927037
0.919437
0.913864
0.910042
1.08407
1.08712
1.08576
1.07699
1.05912
1.03479
1.00859
0.984445
0.964066
0.947638
0.934729
0.924799
0.917289
0.911796
0.908043
1.08652
1.08978
1.08835
1.07891
1.05982
1.03415
1.00693
0.982223
0.961622
0.945166
0.932322
0.922492
0.915083
0.909678
0.905998
1.08908
1.09258
1.09106
1.08086
1.06042
1.03333
1.00507
0.979823
0.959036
0.942583
0.929829
0.920117
0.91282
0.907511
0.903907
1.09177
1.09551
1.09388
1.08281
1.0609
1.0323
1.00299
0.977232
0.9563
0.939885
0.927247
0.91767
0.910499
0.905291
0.90177
1.09458
1.0986
1.09682
1.08476
1.06123
1.03104
1.00067
0.974442
0.953412
0.937071
0.924576
0.915155
0.90812
0.903022
0.899586
1.09754
1.10185
1.09988
1.08669
1.06138
1.02951
0.998092
0.971443
0.950367
0.934139
0.921815
0.912568
0.905682
0.9007
0.897355
1.10066
1.10528
1.10306
1.08858
1.06132
1.02768
0.995235
0.968228
0.947161
0.931088
0.918965
0.909912
0.903186
0.898327
0.895075
1.10394
1.1089
1.10635
1.0904
1.061
1.02553
0.992081
0.964787
0.943792
0.927917
0.916025
0.907185
0.900631
0.895901
0.892747
1.1074
1.11273
1.10977
1.09212
1.06039
1.02302
0.988612
0.961116
0.940258
0.924627
0.912996
0.90439
0.89802
0.893424
0.890371
1.11105
1.11678
1.11329
1.0937
1.05943
1.0201
0.984811
0.957207
0.936558
0.921217
0.909878
0.901525
0.89535
0.890895
0.887945
1.11492
1.12108
1.11691
1.0951
1.05807
1.01674
0.980661
0.953058
0.932693
0.91769
0.906675
0.898595
0.892624
0.888315
0.88547
1.11902
1.12563
1.1206
1.09626
1.05624
1.0129
0.976149
0.948668
0.928664
0.914046
0.903386
0.895599
0.889843
0.885682
0.882945
1.12337
1.13045
1.12435
1.09712
1.05388
1.00855
0.971265
0.944038
0.924475
0.910289
0.900016
0.89254
0.887007
0.882999
0.880371
1.12801
1.13557
1.12812
1.09758
1.05091
1.00363
0.965999
0.93917
0.920129
0.906422
0.896567
0.889419
0.884118
0.880265
0.877746
1.13297
1.141
1.13186
1.09757
1.04725
0.998128
0.960353
0.934072
0.915632
0.902451
0.893044
0.886241
0.881179
0.877482
0.875071
1.13827
1.14676
1.13551
1.09697
1.04282
0.992001
0.954327
0.928753
0.91099
0.89838
0.889449
0.883007
0.878189
0.874649
0.872345
1.14396
1.15284
1.13899
1.09567
1.03753
0.98523
0.947933
0.923227
0.906214
0.894216
0.88579
0.879723
0.875153
0.871768
0.86957
1.15009
1.15926
1.14219
1.09351
1.03129
0.977799
0.941188
0.917508
0.901311
0.889966
0.882071
0.876391
0.872072
0.868841
0.866744
1.1567
1.16601
1.145
1.09034
1.02401
0.969709
0.934119
0.911616
0.896294
0.885639
0.878299
0.873017
0.86895
0.865867
0.863868
1.16388
1.17306
1.14723
1.08599
1.01563
0.960973
0.926759
0.905571
0.891175
0.881243
0.874481
0.869605
0.865789
0.862849
0.860941
1.17168
1.18036
1.14871
1.08025
1.00607
0.951624
0.919151
0.899398
0.885966
0.876789
0.870626
0.866163
0.862594
0.859788
0.857964
1.18019
1.18784
1.14918
1.07294