/*--------------------------------*- C++ -*----------------------------------*\
  =========                 |
  \\      /  F ield         | OpenFOAM: The Open Source CFD Toolbox
   \\    /   O peration     | Website:  https://openfoam.org
    \\  /    A nd           | Version:  6.0
     \\/     M anipulation  |
\*---------------------------------------------------------------------------*/
FoamFile
{
    version     2.0;
    format      ascii;
    class       surfaceScalarField;
    location    "1.5";
    object      phi;
}
// * * * * * * * * * * * * * * * * * * * * * * * * * * * * * * * * * * * * * //

dimensions      [0 3 -1 0 0 0 0];

internalField   nonuniform List<scalar> 
58656
(
2.37903e-05
0.00311205
1.43647e-10
4.78827e-05
0.00307725
7.1689e-05
0.00300893
9.48178e-05
0.00290772
0.000116964
0.00277469
0.000137856
0.0026113
0.00015725
0.00241937
0.000174919
0.00220103
0.000190661
0.00195875
0.000204297
0.00169525
0.000215674
0.00141344
0.000224658
0.00111666
0.000231139
0.000807966
0.000235071
0.000492333
0.000181835
0.000238512
2.36411e-05
0.0030884
-2.45535e-10
4.75814e-05
0.0030533
7.12364e-05
0.00298528
9.42175e-05
0.00288474
0.000116222
0.00275268
0.000136981
0.00259054
0.00015625
0.0024001
0.000173806
0.00218347
0.000189448
0.0019431
0.000202998
0.00168169
0.000214302
0.00140212
0.000223233
0.00110772
0.000229638
0.000801547
0.000233882
0.00048807
0.000178211
0.000237475
2.34926e-05
0.00306491
-8.5755e-10
4.72814e-05
0.00302952
7.0786e-05
0.00296177
9.36206e-05
0.0028619
0.000115485
0.00273082
0.000136112
0.00256991
0.000155258
0.00238095
0.000172703
0.00216603
0.000188245
0.00192756
0.000201708
0.00166823
0.00021294
0.00139089
0.000221821
0.00109884
0.000228168
0.000795203
0.000232331
0.000483912
0.000174993
0.000235566
2.3345e-05
0.00304157
-1.55837e-09
4.69832e-05
0.00300588
7.03382e-05
0.00293841
9.30272e-05
0.00283921
0.000114752
0.00270909
0.000135248
0.00254942
0.000154273
0.00236192
0.000171606
0.00214869
0.000187049
0.00191211
0.000200426
0.00165485
0.000211585
0.00137972
0.000220417
0.00109
0.000226725
0.000788884
0.000230764
0.000479857
0.000172091
0.000233637
2.31983e-05
0.00301837
-2.48494e-09
4.66865e-05
0.00298239
6.98928e-05
0.00291521
9.24373e-05
0.00281667
0.000114024
0.0026875
0.00013439
0.00252905
0.000153294
0.00234302
0.000170517
0.00213147
0.00018586
0.00189677
0.000199152
0.00164156
0.00021024
0.00136864
0.000219021
0.00108122
0.000225306
0.000782603
0.000229264
0.000475907
0.000169524
0.000231849
2.30523e-05
0.00299532
-3.60938e-09
4.63915e-05
0.00295905
6.945e-05
0.00289215
9.18509e-05
0.00279426
0.000113301
0.00266605
0.000133537
0.00250881
0.000152321
0.00232423
0.000169434
0.00211435
0.000184679
0.00188152
0.000197886
0.00162834
0.000208903
0.00135761
0.000217633
0.00107248
0.000223901
0.000776325
0.000227812
0.000471981
0.000167136
0.000230172
2.29072e-05
0.00297242
-4.83756e-09
4.60981e-05
0.00293585
6.90098e-05
0.00286923
9.12682e-05
0.00277201
0.000112582
0.00264473
0.00013269
0.0024887
0.000151354
0.00230556
0.000168358
0.00209735
0.000183506
0.00186637
0.000196629
0.00161522
0.000207576
0.00134667
0.000216252
0.00106381
0.000222504
0.000770078
0.000226386
0.000468108
0.000164961
0.000228576
2.27628e-05
0.00294966
-6.20155e-09
4.58064e-05
0.00291281
6.85723e-05
0.00284647
9.06893e-05
0.00274989
0.000111868
0.00262355
0.000131848
0.00246872
0.000150394
0.00228702
0.000167289
0.00208045
0.000182341
0.00185132
0.00019538
0.00160218
0.000206257
0.00133579
0.000214879
0.00105518
0.000221112
0.000763836
0.000224974
0.000464233
0.000162872
0.000227034
2.26193e-05
0.00292705
-7.61104e-09
4.55165e-05
0.00288991
6.81376e-05
0.00282384
9.01141e-05
0.00272791
0.000111159
0.00260251
0.000131012
0.00244887
0.000149439
0.00226859
0.000166227
0.00206366
0.000181182
0.00183636
0.000194139
0.00158922
0.000204947
0.00132498
0.000213515
0.00104661
0.000219724
0.000757633
0.00022357
0.000460397
0.000160928
0.000225528
2.24767e-05
0.00290458
-9.00856e-09
4.52283e-05
0.00286716
6.77057e-05
0.00280137
8.95428e-05
0.00270607
0.000110454
0.0025816
0.000130181
0.00242914
0.000148491
0.00225028
0.000165171
0.00204698
0.000180032
0.0018215
0.000192906
0.00157634
0.000203646
0.00131423
0.000212159
0.00103809
0.000218341
0.000751441
0.000222171
0.000456556
0.000159028
0.000224045
2.2335e-05
0.00288225
-1.03882e-08
4.4942e-05
0.00284455
6.72766e-05
0.00277903
8.89752e-05
0.00268437
0.000109754
0.00256082
0.000129355
0.00240954
0.000147549
0.00223208
0.000164123
0.00203041
0.000178888
0.00180673
0.000191681
0.00156355
0.000202354
0.00130356
0.000210812
0.00102964
0.000216965
0.000745295
0.000220776
0.000452755
0.000157241
0.000222578
2.21941e-05
0.00286007
-1.17173e-08
4.46575e-05
0.00282209
6.68503e-05
0.00275684
8.84113e-05
0.00266281
0.000109058
0.00254017
0.000128535
0.00239006
0.000146612
0.002214
0.000163081
0.00201394
0.000177752
0.00179206
0.000190464
0.00155084
0.00020107
0.00129295
0.000209474
0.00102123
0.000215594
0.000739166
0.000219387
0.000448952
0.000155478
0.000221126
2.20542e-05
0.00283803
-1.3009e-08
4.43749e-05
0.00279977
6.64268e-05
0.00273478
8.78511e-05
0.00264139
0.000108367
0.00251965
0.00012772
0.0023707
0.000145682
0.00219604
0.000162046
0.00199757
0.000176624
0.00177748
0.000189255
0.00153821
0.000199795
0.00128242
0.000208145
0.00101288
0.000214232
0.000733086
0.000218003
0.000445191
0.00015381
0.000219687
2.19153e-05
0.00281613
-1.42928e-08
4.40941e-05
0.00277759
6.6006e-05
0.00271287
8.72945e-05
0.0026201
0.00010768
0.00249927
0.00012691
0.00235147
0.000144758
0.00217819
0.000161017
0.00198131
0.000175502
0.00176299
0.000188054
0.00152565
0.000198528
0.00127194
0.000206825
0.00100458
0.000212876
0.000727026
0.000216626
0.000441431
0.000152154
0.000218261
2.17772e-05
0.00279436
-1.55871e-08
4.38151e-05
0.00275555
6.5588e-05
0.0026911
8.67416e-05
0.00259894
0.000106997
0.00247901
0.000126105
0.00233237
0.000143839
0.00216046
0.000159995
0.00196516
0.000174388
0.0017486
0.00018686
0.00151318
0.000197269
0.00126153
0.000205513
0.000996342
0.000211529
0.000721017
0.000215256
0.000437716
0.000150583
0.000216849
2.16401e-05
0.00277274
-1.69202e-08
4.3538e-05
0.00273365
6.51728e-05
0.00266946
8.61921e-05
0.00257792
0.000106319
0.00245888
0.000125305
0.00231338
0.000142926
0.00214283
0.000158979
0.0019491
0.000173281
0.0017343
0.000185674
0.00150079
0.000196018
0.00125118
0.000204211
0.000988144
0.00021019
0.000715029
0.000213894
0.000434002
0.000149011
0.00021545
2.15039e-05
0.00275125
-1.82974e-08
4.32627e-05
0.00271189
6.47602e-05
0.00264796
8.56461e-05
0.00255704
0.000105645
0.00243888
0.000124511
0.00229451
0.000142019
0.00212533
0.00015797
0.00193315
0.000172181
0.00172009
0.000184496
0.00148848
0.000194776
0.00124091
0.000202917
0.000980007
0.00020886
0.000709093
0.000212541
0.000430332
0.000147511
0.000214063
2.13687e-05
0.0027299
-1.97124e-08
4.29892e-05
0.00269027
6.43502e-05
0.0026266
8.51036e-05
0.00253628
0.000104976
0.00241901
0.000123721
0.00227577
0.000141118
0.00210793
0.000156967
0.0019173
0.000171088
0.00170596
0.000183325
0.00147623
0.000193541
0.00123069
0.000201631
0.000971911
0.000207538
0.000703178
0.000211195
0.000426665
0.000146004
0.000212688
2.12343e-05
0.00270869
-2.11448e-08
4.27175e-05
0.00266878
6.39429e-05
0.00260538
8.45644e-05
0.00251566
0.00010431
0.00239926
0.000122936
0.00225714
0.000140222
0.00209064
0.000155971
0.00190155
0.000170002
0.00169193
0.000182162
0.00146408
0.000192314
0.00122054
0.000200354
0.000963876
0.000206224
0.000697315
0.000209858
0.000423042
0.000144564
0.000211324
2.11007e-05
0.00268761
-2.25642e-08
4.24475e-05
0.00264743
6.35381e-05
0.00258428
8.40286e-05
0.00249517
0.000103649
0.00237964
0.000122156
0.00223863
0.000139332
0.00207346
0.000154981
0.0018859
0.000168923
0.00167799
0.000181006
0.00145199
0.000191096
0.00121044
0.000199086
0.000955881
0.000204919
0.000691475
0.00020853
0.000419421
0.000143112
0.00020997
2.0968e-05
0.00266667
-2.3938e-08
4.21792e-05
0.00262622
6.31359e-05
0.00256333
8.34961e-05
0.00247481
0.000102991
0.00236015
0.000121381
0.00222024
0.000138448
0.0020564
0.000153997
0.00187035
0.000167852
0.00166413
0.000179858
0.00143999
0.000189885
0.00120042
0.000197825
0.000947945
0.000203622
0.000685684
0.000207209
0.000415845
0.000141722
0.000208626
2.08362e-05
0.00264585
-2.52368e-08
4.19126e-05
0.00260515
6.27361e-05
0.0025425
8.29669e-05
0.00245457
0.000102338
0.00234077
0.00012061
0.00220197
0.000137569
0.00203943
0.00015302
0.0018549
0.000166786
0.00165036
0.000178718
0.00142805
0.000188682
0.00119045
0.000196573
0.000940048
0.000202333
0.000679917
0.000205897
0.000412272
0.000140317
0.000207292
2.07051e-05
0.00262518
-2.64342e-08
4.16476e-05
0.0025842
6.23388e-05
0.00252181
8.24409e-05
0.00243447
0.000101689
0.00232153
0.000119845
0.00218381
0.000136696
0.00202258
0.000152049
0.00183955
0.000165728
0.00163669
0.000177584
0.0014162
0.000187486
0.00118055
0.000195329
0.00093221
0.000201053
0.000674199
0.000204593
0.000408742
0.00013897
0.000205967
2.05748e-05
0.00260463
-2.75135e-08
4.13842e-05
0.00256339
6.19439e-05
0.00250125
8.19182e-05
0.0024145
0.000101044
0.0023024
0.000119084
0.00216577
0.000135828
0.00200584
0.000151084
0.00182429
0.000164677
0.00162309
0.000176458
0.00140441
0.000186298
0.00117071
0.000194092
0.000924411
0.000199781
0.000668503
0.000203298
0.000405216
0.000137603
0.000204652
2.04453e-05
0.00258421
-2.84591e-08
4.11224e-05
0.00254271
6.15515e-05
0.00248082
8.13987e-05
0.00239465
0.000100402
0.0022834
0.000118329
0.00214784
0.000134966
0.0019892
0.000150125
0.00180913
0.000163632
0.00160959
0.000175339
0.00139271
0.000185118
0.00116093
0.000192864
0.00091667
0.000198517
0.000662857
0.00020201
0.000401734
0.00013629
0.000203346
2.03166e-05
0.00256392
-2.9262e-08
4.08623e-05
0.00252217
6.11614e-05
0.00246052
8.08825e-05
0.00237493
9.97654e-05
0.00226451
0.000117578
0.00213003
0.00013411
0.00197267
0.000149172
0.00179407
0.000162595
0.00159616
0.000174228
0.00138107
0.000183946
0.00115121
0.000191643
0.000908967
0.00019726
0.000657233
0.000200731
0.000398254
0.000134956
0.00020205
2.01886e-05
0.00254376
-2.99124e-08
4.06036e-05
0.00250175
6.07737e-05
0.00244035
8.03694e-05
0.00235533
9.91322e-05
0.00224575
0.000116831
0.00211233
0.000133259
0.00195624
0.000148226
0.0017791
0.000161563
0.00158282
0.000173124
0.00136952
0.000182781
0.00114156
0.000190431
0.000901322
0.000196012
0.000651658
0.00019946
0.000394817
0.000133674
0.000200763
2.00613e-05
0.00252373
-3.04055e-08
4.03466e-05
0.00248147
6.03884e-05
0.00242031
7.98595e-05
0.00233586
9.85031e-05
0.0022271
0.00011609
0.00209474
0.000132413
0.00193991
0.000147286
0.00176423
0.000160539
0.00156957
0.000172026
0.00135803
0.000181623
0.00113196
0.000189226
0.000893715
0.000194772
0.000646105
0.000198197
0.000391384
0.000132369
0.000199485
1.99348e-05
0.00250383
-3.0739e-08
4.00911e-05
0.00246131
6.00055e-05
0.00240039
7.93528e-05
0.00231651
9.78779e-05
0.00220858
0.000115353
0.00207727
0.000131573
0.0019237
0.000146351
0.00174945
0.000159521
0.0015564
0.000170936
0.00134661
0.000180473
0.00112242
0.000188028
0.000886164
0.000193539
0.000640601
0.000196941
0.000387993
0.000131112
0.000198216
1.9809e-05
0.00248405
-3.09203e-08
3.98371e-05
0.00244128
5.96249e-05
0.0023806
7.88492e-05
0.00229729
9.72566e-05
0.00219017
0.000114621
0.0020599
0.000130738
0.00190758
0.000145423
0.00173476
0.00015851
0.00154331
0.000169853
0.00133527
0.00017933
0.00111294
0.000186838
0.000878651
0.000192314
0.000635118
0.000195694
0.000384605
0.000129832
0.000196956
1.9684e-05
0.00246439
-3.09644e-08
3.95847e-05
0.00242138
5.92467e-05
0.00236094
7.83488e-05
0.00227818
9.66393e-05
0.00217188
0.000113893
0.00204265
0.000129908
0.00189156
0.000144501
0.00172017
0.000157505
0.00153031
0.000168777
0.001324
0.000178195
0.00110353
0.000185656
0.000871194
0.000191097
0.000629684
0.000194455
0.000381258
0.000128599
0.000195704
1.95596e-05
0.00244486
-3.08992e-08
3.93339e-05
0.0024016
5.88708e-05
0.0023414
7.78515e-05
0.0022592
9.60259e-05
0.0021537
0.00011317
0.0020255
0.000129084
0.00187565
0.000143584
0.00170567
0.000156506
0.00151738
0.000167708
0.00131279
0.000177067
0.00109417
0.000184481
0.000863774
0.000189888
0.000624271
0.000193223
0.000377916
0.000127345
0.00019446
1.9436e-05
0.00242546
-3.07596e-08
3.90845e-05
0.00238195
5.84973e-05
0.00232199
7.73573e-05
0.00224034
9.54163e-05
0.00213564
0.000112452
0.00200847
0.000128265
0.00185983
0.000142674
0.00169126
0.000155515
0.00150454
0.000166645
0.00130167
0.000175946
0.00108487
0.000183314
0.00085641
0.000188686
0.000618905
0.000191999
0.000374614
0.000126137
0.000193224
1.93131e-05
0.00240617
-3.05876e-08
3.88367e-05
0.00236243
5.8126e-05
0.0023027
7.68663e-05
0.0022216
9.48107e-05
0.0021177
0.000111739
0.00199154
0.000127451
0.00184412
0.000141769
0.00167694
0.000154529
0.00149178
0.00016559
0.0012906
0.000174832
0.00107562
0.000182154
0.000849083
0.000187492
0.000613561
0.000190783
0.000371316
0.000124909
0.000191996
1.91909e-05
0.00238701
-3.04225e-08
3.85904e-05
0.00234303
5.77571e-05
0.00228353
7.63783e-05
0.00220298
9.42089e-05
0.00209987
0.00011103
0.00197472
0.000126643
0.00182851
0.00014087
0.00166272
0.00015355
0.0014791
0.000164541
0.00127961
0.000173725
0.00106644
0.000181002
0.000841811
0.000186306
0.000608264
0.000189575
0.000368058
0.000123723
0.000190777
1.90694e-05
0.00236797
-3.02994e-08
3.83456e-05
0.00232375
5.73905e-05
0.00226448
7.58934e-05
0.00218447
9.36109e-05
0.00208215
0.000110325
0.001958
0.00012584
0.00181299
0.000139977
0.00164858
0.000152577
0.0014665
0.000163499
0.00126869
0.000172626
0.00105731
0.000179857
0.000834575
0.000185127
0.000602988
0.000188374
0.000364804
0.00012252
0.000189565
1.89486e-05
0.00234905
-3.02408e-08
3.81023e-05
0.0023046
5.70262e-05
0.00224556
7.54116e-05
0.00216609
9.30167e-05
0.00206454
0.000109625
0.00194139
0.000125041
0.00179757
0.000139089
0.00163453
0.00015161
0.00145398
0.000162463
0.00125784
0.000171533
0.00104825
0.000178719
0.000827393
0.000183955
0.000597759
0.000187181
0.00036159
0.00012136
0.000188361
1.88286e-05
0.00233025
-3.02584e-08
3.78605e-05
0.00228557
5.66642e-05
0.00222676
7.49329e-05
0.00214782
9.24263e-05
0.00204705
0.000108929
0.00192489
0.000124248
0.00178225
0.000138208
0.00162057
0.000150649
0.00144154
0.000161435
0.00124705
0.000170447
0.00103923
0.000177589
0.000820247
0.000182791
0.00059255
0.000185995
0.00035838
0.000120181
0.000187165
1.87093e-05
0.00231158
-3.03498e-08
3.76202e-05
0.00226665
5.63044e-05
0.00220807
7.44572e-05
0.00212967
9.18397e-05
0.00202967
0.000108238
0.00190849
0.00012346
0.00176703
0.000137331
0.0016067
0.000149695
0.00142918
0.000160412
0.00123633
0.000169369
0.00103028
0.000176465
0.000813155
0.000181635
0.000587387
0.000184817
0.000355209
0.000119043
0.000185977
1.85907e-05
0.00229301
-3.0506e-08
3.73814e-05
0.00224786
5.59469e-05
0.0021895
7.39845e-05
0.00211163
9.12568e-05
0.00201239
0.000107551
0.00189219
0.000122677
0.0017519
0.000136461
0.00159291
0.000148746
0.00141689
0.000159397
0.00122568
0.000168297
0.00102137
0.000175349
0.000806099
0.000180485
0.000582246
0.000183647
0.000352042
0.000117886
0.000184797
1.84728e-05
0.00227457
-3.07117e-08
3.71441e-05
0.00222919
5.55917e-05
0.00217106
7.35147e-05
0.0020937
9.06776e-05
0.00199523
0.000106869
0.001876
0.000121899
0.00173688
0.000135596
0.00157922
0.000147804
0.00140468
0.000158387
0.0012151
0.000167232
0.00101253
0.00017424
0.000799096
0.000179343
0.000577148
0.000182484
0.000348913
0.000116771
0.000183625
1.83556e-05
0.00225625
-3.09535e-08
3.69083e-05
0.00221064
5.52387e-05
0.00215272
7.3048e-05
0.00207589
9.0102e-05
0.00197817
0.000106191
0.00185991
0.000121126
0.00172194
0.000134736
0.00156561
0.000146868
0.00139255
0.000157385
0.00120458
0.000166173
0.00100374
0.000173137
0.000792127
0.000178208
0.000572072
0.000181328
0.000345788
0.000115635
0.00018246
1.82392e-05
0.00223804
-3.12196e-08
3.6674e-05
0.0021922
5.48879e-05
0.00213451
7.25842e-05
0.0020582
8.95302e-05
0.00196123
0.000105517
0.00184392
0.000120358
0.0017071
0.000133882
0.00155208
0.000145937
0.0013805
0.000156388
0.00119413
0.000165122
0.000995011
0.000172042
0.000785212
0.000177081
0.00056704
0.00018018
0.000342701
0.00011454
0.000181304
1.81235e-05
0.00221994
-3.15042e-08
3.64411e-05
0.00217388
5.45394e-05
0.00211641
7.21234e-05
0.00204061
8.89619e-05
0.00194439
0.000104848
0.00182804
0.000119595
0.00169235
0.000133034
0.00153864
0.000145013
0.00136852
0.000155398
0.00118374
0.000164077
0.000986329
0.000170954
0.000778331
0.00017596
0.000562029
0.000179039
0.000339618
0.000113421
0.000180154
1.80085e-05
0.00220197
-3.18043e-08
3.62097e-05
0.00215568
5.41931e-05
0.00209843
7.16655e-05
0.00202314
8.83973e-05
0.00192765
0.000104183
0.00181225
0.000118837
0.0016777
0.000132191
0.00152529
0.000144094
0.00135661
0.000154414
0.00117343
0.000163039
0.000977708
0.000169873
0.000771502
0.000174847
0.000557061
0.000177906
0.000336571
0.000112343
0.000179012
1.78942e-05
0.0021841
-3.212e-08
3.59798e-05
0.00213759
5.38489e-05
0.00208056
7.12104e-05
0.00200577
8.78362e-05
0.00191103
0.000103522
0.00179656
0.000118083
0.00166313
0.000131353
0.00151202
0.000143182
0.00134478
0.000153437
0.00116317
0.000162007
0.000969134
0.000168798
0.000764707
0.000173741
0.000552113
0.000176779
0.000333529
0.000111242
0.000177877
1.77807e-05
0.00216636
-3.24502e-08
3.57513e-05
0.00211962
5.35069e-05
0.0020628
7.07583e-05
0.00198852
8.72787e-05
0.00189451
0.000102865
0.00178098
0.000117334
0.00164866
0.000130521
0.00149883
0.000142275
0.00133303
0.000152466
0.00115298
0.000160982
0.000960621
0.000167731
0.000757963
0.000172642
0.000547208
0.00017566
0.000330524
0.000110181
0.00017675
1.76678e-05
0.00214872
-3.27935e-08
3.55243e-05
0.00210177
5.31671e-05
0.00204516
7.03091e-05
0.00197138
8.67248e-05
0.00187809
0.000102212
0.00176549
0.00011659
0.00163428
0.000129693
0.00148573
0.000141374
0.00132135
0.000151501
0.00114285
0.000159964
0.000952155
0.00016667
0.000751253
0.00017155
0.000542323
0.000174548
0.000327522
0.000109096
0.00017563
1.75557e-05
0.0021312
-3.31455e-08
3.52987e-05
0.00208402
5.28295e-05
0.00202763
6.98627e-05
0.00195435
8.61744e-05
0.00186178
0.000101564
0.0017501
0.000115851
0.00162
0.000128872
0.00147271
0.000140478
0.00130974
0.000150542
0.00113279
0.000158952
0.000943748
0.000165616
0.000744594
0.000170465
0.000537481
0.000173444
0.000324555
0.000108049
0.000174517
1.74444e-05
0.00211379
-3.35014e-08
3.50745e-05
0.00206639
5.2494e-05
0.0020102
6.94191e-05
0.00193742
8.56275e-05
0.00184557
0.00010092
0.00173481
0.000115117
0.0016058
0.000128055
0.00145977
0.000139589
0.00129821
0.000149589
0.00112279
0.000157946
0.000935388
0.000164568
0.000737968
0.000169386
0.000532658
0.000172346
0.00032159
0.000106979
0.000173411
1.73337e-05
0.00209649
-3.38559e-08
3.48518e-05
0.00204887
5.21606e-05
0.0019929
6.89784e-05
0.0019206
8.50841e-05
0.00182946
0.00010028
0.00171961
0.000114387
0.00159169
0.000127244
0.00144691
0.000138705
0.00128675
0.000148642
0.00111285
0.000156947
0.000927087
0.000163528
0.000731393
0.000168315
0.000527878
0.000171255
0.000318662
0.000105946
0.000172313
1.72237e-05
0.00207929
-3.42061e-08
3.46305e-05
0.00203146
5.18294e-05
0.00197569
6.85405e-05
0.00190389
8.45441e-05
0.00181346
9.96435e-05
0.00170451
0.000113662
0.00157767
0.000126437
0.00143414
0.000137827
0.00127536
0.000147702
0.00110298
0.000155954
0.000918831
0.000162494
0.000724849
0.000167251
0.000523116
0.000170171
0.000315735
0.000104889
0.000171221
1.71145e-05
0.00206221
-3.45507e-08
3.44106e-05
0.00201417
5.15003e-05
0.0019586
6.81053e-05
0.00188728
8.40076e-05
0.00179756
9.90115e-05
0.00168951
0.000112941
0.00156375
0.000125636
0.00142144
0.000136954
0.00126404
0.000146767
0.00109317
0.000154968
0.000910633
0.000161466
0.000718356
0.000166193
0.000518396
0.000169095
0.000312844
0.000103869
0.000170137
1.7006e-05
0.00204524
-3.48911e-08
3.41921e-05
0.00199698
5.11733e-05
0.00194162
6.7673e-05
0.00187078
8.34745e-05
0.00178175
9.83835e-05
0.0016746
0.000112225
0.0015499
0.00012484
0.00140883
0.000136087
0.00125279
0.000145838
0.00108341
0.000153988
0.000902481
0.000160445
0.000711895
0.000165142
0.000513694
0.000168025
0.000309953
0.000102826
0.00016906
1.68982e-05
0.00202838
-3.52286e-08
3.3975e-05
0.0019799
5.08484e-05
0.00192475
6.72434e-05
0.00185439
8.29449e-05
0.00176605
9.77595e-05
0.00165978
0.000111514
0.00153615
0.00012405
0.00139629
0.000135225
0.00124162
0.000144915
0.00107373
0.000153014
0.000894386
0.000159431
0.000705482
0.000164098
0.000509034
0.000166962
0.000307097
0.000101818
0.00016799
1.67911e-05
0.00201162
-3.55639e-08
3.37593e-05
0.00196293
5.05255e-05
0.00190798
6.68166e-05
0.0018381
8.24186e-05
0.00175045
9.71395e-05
0.00164506
0.000110807
0.00152248
0.000123264
0.00138383
0.000134369
0.00123051
0.000143998
0.00106409
0.000152046
0.000886335
0.000158423
0.000699102
0.000163061
0.000504391
0.000165906
0.000304244
0.00010079
0.000166926
1.66847e-05
0.00199497
-3.58938e-08
3.3545e-05
0.00194607
5.02047e-05
0.00189132
6.63925e-05
0.00182191
8.18957e-05
0.00173494
9.65235e-05
0.00163043
0.000110105
0.0015089
0.000122483
0.00137146
0.000133519
0.00121948
0.000143087
0.00105453
0.000151085
0.000878342
0.000157422
0.00069277
0.00016203
0.00049979
0.000164857
0.000301424
9.97972e-05
0.00016587
1.65789e-05
0.00197843
-3.62112e-08
3.33321e-05
0.00192932
4.9886e-05
0.00187477
6.59711e-05
0.00180582
8.13761e-05
0.00171954
9.59115e-05
0.0016159
0.000109407
0.0014954
0.000121707
0.00135915
0.000132673
0.00120851
0.000142182
0.00104502
0.000150129
0.000870392
0.000156426
0.000686469
0.000161006
0.000495206
0.000163814
0.000298608
9.87844e-05
0.000164821
1.64739e-05
0.00196199
-3.65041e-08
3.31206e-05
0.00191267
4.95694e-05
0.00185832
6.55524e-05
0.00178984
8.08599e-05
0.00170423
9.53033e-05
0.00160145
0.000108714
0.00148199
0.000120936
0.00134693
0.000131834
0.00119762
0.000141283
0.00103557
0.00014918
0.000862498
0.000155438
0.000680217
0.000159988
0.000490663
0.000162778
0.000295825
9.78061e-05
0.000163778
1.63696e-05
0.00194566
-3.67579e-08
3.29104e-05
0.00189613
4.92548e-05
0.00184197
6.51364e-05
0.00177396
8.03469e-05
0.00168902
9.46991e-05
0.0015871
0.000108025
0.00146867
0.000120171
0.00133478
0.000130999
0.00118679
0.000140389
0.00102618
0.000148237
0.000854647
0.000154455
0.000673995
0.000158977
0.000486137
0.000161749
0.000293045
9.68086e-05
0.000162742
1.6266e-05
0.00192943
-3.69568e-08
3.27016e-05
0.00187969
4.89422e-05
0.00182573
6.47231e-05
0.00175817
7.98373e-05
0.00167391
9.40987e-05
0.00157284
0.00010734
0.00145543
0.00011941
0.00132272
0.00013017
0.00117603
0.000139501
0.00101685
0.0001473
0.000846853
0.000153479
0.00066782
0.000157972
0.000481651
0.000160727
0.000290299
9.5846e-05
0.000161713
1.6163e-05
0.0019133
-3.70878e-08
3.24942e-05
0.00186336
4.86316e-05
0.00180959
6.43124e-05
0.00174249
7.93309e-05
0.00165889
9.35022e-05
0.00155867
0.00010666
0.00144227
0.000118654
0.00131072
0.000129347
0.00116533
0.000138619
0.00100757
0.000146369
0.0008391
0.000152509
0.000661676
0.000156974
0.000477182
0.000159711
0.000287556
9.48633e-05
0.000160691
1.60607e-05
0.00189728
-3.71426e-08
3.22881e-05
0.00184713
4.8323e-05
0.00179356
6.39044e-05
0.00172691
7.88278e-05
0.00164396
9.29094e-05
0.00154459
0.000105984
0.00142919
0.000117902
0.0012988
0.000128528
0.00115471
0.000137742
0.000998363
0.000145444
0.000831403
0.000151546
0.000655579
0.000155982
0.000472752
0.000158702
0.000284845
9.39147e-05
0.000159676
1.59591e-05
0.00188135
-3.71207e-08
3.20833e-05
0.00183101
4.80164e-05
0.00177762
6.3499e-05
0.00171143
7.83279e-05
0.00162913
9.23205e-05
0.00153059
0.000105313
0.0014162
0.000117156
0.00128696
0.000127715
0.00114415
0.000136872
0.000989204
0.000144525
0.000823747
0.000150588
0.000649512
0.000154997
0.00046834
0.000157699
0.000282137
9.29455e-05
0.000158667
1.58581e-05
0.00186553
-3.70294e-08
3.18798e-05
0.00181499
4.77117e-05
0.00176179
6.30962e-05
0.00169604
7.78312e-05
0.0016144
9.17354e-05
0.00151669
0.000104646
0.00140329
0.000116414
0.00127519
0.000126907
0.00113366
0.000136006
0.000980108
0.000143611
0.000816146
0.000149637
0.000643491
0.000154018
0.000463966
0.000156703
0.000279462
9.20097e-05
0.000157665
1.57578e-05
0.00184981
-3.68837e-08
3.16777e-05
0.00179907
4.74091e-05
0.00174606
6.26959e-05
0.00168075
7.73376e-05
0.00159975
9.1154e-05
0.00150287
0.000103983
0.00139046
0.000115677
0.0012635
0.000126104
0.00112323
0.000135146
0.000971064
0.000142704
0.000808586
0.000148692
0.000637499
0.000153045
0.000459608
0.000155713
0.000276789
9.10532e-05
0.000156669
1.56582e-05
0.00183419
-3.67044e-08
3.14769e-05
0.00178325
4.71083e-05
0.00173043
6.22983e-05
0.00166556
7.68473e-05
0.00158521
9.05764e-05
0.00148914
0.000103325
0.00137771
0.000114945
0.00125188
0.000125307
0.00111287
0.000134292
0.000962081
0.000141802
0.000801079
0.000147753
0.000631553
0.000152079
0.000455289
0.00015473
0.000274148
9.01291e-05
0.00015568
1.55592e-05
0.00181866
-3.65151e-08
3.12774e-05
0.00176753
4.68096e-05
0.00171489
6.19032e-05
0.00165047
7.63601e-05
0.00157075
9.00024e-05
0.0014755
0.00010267
0.00136504
0.000114218
0.00124033
0.000124514
0.00110257
0.000133443
0.000953149
0.000140907
0.000793614
0.00014682
0.000625637
0.000151119
0.000450987
0.000153753
0.00027151
8.91846e-05
0.000154697
1.54608e-05
0.00180324
-3.6339e-08
3.10791e-05
0.00175191
4.65127e-05
0.00169946
6.15106e-05
0.00163547
7.5876e-05
0.00155638
8.94322e-05
0.00146194
0.00010202
0.00135245
0.000113495
0.00122886
0.000123727
0.00109234
0.0001326
0.000944279
0.000140017
0.000786201
0.000145893
0.000619765
0.000150165
0.000446722
0.000152783
0.000268904
8.82731e-05
0.000153721
1.53631e-05
0.00178791
-3.61967e-08
3.08822e-05
0.00173639
4.62177e-05
0.00168412
6.11206e-05
0.00162057
7.5395e-05
0.00154211
8.88655e-05
0.00144847
0.000101374
0.00133994
0.000112777
0.00121745
0.000122944
0.00108217
0.000131762
0.000935459
0.000139132
0.000778828
0.000144972
0.000613922
0.000149217
0.000442474
0.000151819
0.000266299
8.734e-05
0.000152751
1.5266e-05
0.00177268
-3.61032e-08
3.06865e-05
0.00172097
4.59247e-05
0.00166888
6.0733e-05
0.00160576
7.49172e-05
0.00152792
8.83026e-05
0.00143509
0.000100732
0.00132751
0.000112063
0.00120612
0.000122167
0.00107207
0.00013093
0.0009267
0.000138254
0.000771508
0.000144057
0.000608124
0.000148275
0.000438262
0.000150861
0.000263725
8.64383e-05
0.000151787
1.51695e-05
0.00175755
-3.60678e-08
3.0492e-05
0.00170565
4.56335e-05
0.00165374
6.0348e-05
0.00159104
7.44423e-05
0.00151383
8.77432e-05
0.00142178
0.000100095
0.00131516
0.000111355
0.00119486
0.000121395
0.00106203
0.000130103
0.00091799
0.000137381
0.000764227
0.000143148
0.000602354
0.00014734
0.000434067
0.000149909
0.000261152
8.55155e-05
0.00015083
1.50737e-05
0.00174251
-3.60938e-08
3.02989e-05
0.00169042
4.53442e-05
0.0016387
5.99654e-05
0.00157642
7.39706e-05
0.00149982
8.71875e-05
0.00140857
9.94612e-05
0.00130289
0.00011065
0.00118367
0.000120628
0.00105205
0.000129281
0.000909339
0.000136514
0.000756998
0.000142245
0.000596628
0.000146411
0.000429908
0.000148963
0.000258611
8.46243e-05
0.000149878
1.49784e-05
0.00172756
-3.61792e-08
3.01069e-05
0.00167529
4.50567e-05
0.00162374
5.95852e-05
0.00156189
7.35019e-05
0.0014859
8.66353e-05
0.00139543
9.88317e-05
0.00129069
0.00010995
0.00117255
0.000119865
0.00104214
0.000128464
0.000900738
0.000135652
0.000749808
0.000141347
0.000590929
0.000145487
0.000425766
0.000148024
0.00025607
8.37116e-05
0.000148933
1.48838e-05
0.00171272
-3.63188e-08
2.99162e-05
0.00166026
4.47711e-05
0.00160889
5.92076e-05
0.00154746
7.30361e-05
0.00147208
8.60867e-05
0.00138238
9.82062e-05
0.00127857
0.000109255
0.0011615
0.000119108
0.00103228
0.000127653
0.000892196
0.000134796
0.000742669
0.000140456
0.000585275
0.00014457
0.000421659
0.000147091
0.000253558
8.28296e-05
0.000147994
1.47898e-05
0.00169796
-3.65054e-08
2.97267e-05
0.00164532
4.44874e-05
0.00159413
5.88323e-05
0.00153311
7.25734e-05
0.00145833
8.55416e-05
0.00136941
9.75848e-05
0.00126653
0.000108564
0.00115052
0.000118355
0.00102249
0.000126847
0.000883702
0.000133945
0.000735569
0.00013957
0.000579647
0.000143658
0.000417568
0.000146164
0.000251048
8.19271e-05
0.000147062
1.46963e-05
0.0016833
-3.67316e-08
2.95385e-05
0.00163048
4.42054e-05
0.00157946
5.84594e-05
0.00151886
7.21136e-05
0.00144468
8.5e-05
0.00135653
9.69675e-05
0.00125456
0.000107878
0.00113961
0.000117608
0.00101276
0.000126046
0.000875266
0.0001331
0.000728519
0.00013869
0.000574063
0.000142753
0.000413512
0.000145242
0.000248567
8.10537e-05
0.000146135
1.46035e-05
0.00166873
-3.6991e-08
2.93514e-05
0.00161573
4.39253e-05
0.00156489
5.8089e-05
0.00150469
7.16568e-05
0.00143111
8.44619e-05
0.00134372
9.6354e-05
0.00124267
0.000107196
0.00112877
0.000116865
0.00100309
0.000125251
0.000866877
0.000132261
0.000721507
0.000137816
0.000568505
0.000141853
0.000409471
0.000144327
0.000246087
8.01624e-05
0.000145214
1.45113e-05
0.00165426
-3.72793e-08
2.91655e-05
0.00160108
4.36469e-05
0.0015504
5.77209e-05
0.00149062
7.1203e-05
0.00141763
8.39273e-05
0.001331
9.57446e-05
0.00123085
0.000106519
0.001118
0.000116127
0.000993488
0.000124461
0.000858547
0.000131427
0.000714544
0.000136947
0.00056299
0.000140959
0.000405466
0.000143418
0.000243637
7.93011e-05
0.0001443
1.44196e-05
0.00163988
-3.7594e-08
2.89808e-05
0.00158651
4.33704e-05
0.00153601
5.73552e-05
0.00147663
7.07521e-05
0.00140423
8.33961e-05
0.00131835
9.51391e-05
0.00121911
0.000105845
0.00110729
0.000115394
0.000983938
0.000123675
0.000850263
0.000130598
0.000707619
0.000136084
0.000557501
0.000140071
0.000401476
0.000142515
0.000241188
7.8422e-05
0.000143391
1.43286e-05
0.00162559
-3.79349e-08
2.87973e-05
0.00157205
4.30956e-05
0.00152172
5.69919e-05
0.00146274
7.0304e-05
0.00139092
8.28684e-05
0.00130579
9.45375e-05
0.00120744
0.000105177
0.00109665
0.000114665
0.000974452
0.000122895
0.000842036
0.000129775
0.000700743
0.000135227
0.000552054
0.000139189
0.00039752
0.000141617
0.000238768
7.75718e-05
0.000142489
1.42381e-05
0.00161138
-3.83027e-08
2.8615e-05
0.00155767
4.28226e-05
0.00150751
5.66308e-05
0.00144893
6.98589e-05
0.00137769
8.23441e-05
0.0012933
9.39398e-05
0.00119584
0.000104512
0.00108608
0.000113941