/*--------------------------------*- C++ -*----------------------------------*\
  =========                 |
  \\      /  F ield         | OpenFOAM: The Open Source CFD Toolbox
   \\    /   O peration     | Website:  https://openfoam.org
    \\  /    A nd           | Version:  6.0
     \\/     M anipulation  |
\*---------------------------------------------------------------------------*/
FoamFile
{
    version     2.0;
    format      ascii;
    class       volVectorField;
    location    "1.5";
    object      U;
}
// * * * * * * * * * * * * * * * * * * * * * * * * * * * * * * * * * * * * * //

dimensions      [0 1 -1 0 0 0 0];

internalField   nonuniform List<vector> 
29500
(
(0.999997 -4.6972e-06 1.30719e-18)
(0.999969 -1.7906e-05 7.31913e-18)
(0.999922 -4.2868e-05 2.54264e-16)
(0.999865 -8.14607e-05 5.00381e-17)
(0.999813 -0.00012978 -3.17256e-16)
(0.999772 -0.000185925 4.90162e-17)
(0.999753 -0.000243186 -2.7155e-16)
(0.999762 -0.000287148 1.44662e-16)
(0.999803 -0.000300475 5.83463e-16)
(0.999872 -0.000261805 -5.0051e-17)
(0.99996 -0.000158296 -7.05803e-16)
(1.00006 7.08047e-05 -3.36246e-16)
(1.00015 0.000383864 2.33465e-16)
(1.00009 0.00121944 -1.03699e-15)
(1.00464 0.00503692 2.606e-16)
(0.999993 -1.43547e-05 -4.53915e-17)
(0.999945 -4.77993e-05 1.18305e-16)
(0.999861 -9.83585e-05 -1.74107e-16)
(0.999763 -0.000169432 -4.14275e-16)
(0.999674 -0.000257937 4.09456e-16)
(0.999603 -0.000362452 6.33716e-17)
(0.999572 -0.000471038 3.07186e-16)
(0.999594 -0.000554242 -1.18218e-16)
(0.999673 -0.000579924 -5.04079e-16)
(0.999804 -0.000510553 -6.12168e-16)
(0.999968 -0.000328478 3.51111e-16)
(1.00015 7.34113e-05 8.52426e-17)
(1.00035 0.000599135 -5.22686e-16)
(0.999959 0.00187674 2.78036e-16)
(1.00667 0.00679261 -1.80102e-16)
(0.999991 -2.45025e-05 -1.46307e-17)
(0.99995 -7.26099e-05 -1.09176e-16)
(0.999877 -0.000131147 -1.35054e-16)
(0.999797 -0.000201947 2.03293e-16)
(0.999726 -0.000285645 -3.12301e-16)
(0.99967 -0.000383914 -7.07704e-17)
(0.999649 -0.000488497 3.17148e-16)
(0.999675 -0.000569914 -7.37986e-16)
(0.999754 -0.000597068 -5.92411e-17)
(0.999879 -0.000535621 1.93228e-16)
(1.00004 -0.000374645 1.13483e-16)
(1.00021 -1.53167e-05 1.95266e-16)
(1.00047 0.000448932 -2.39094e-17)
(0.9998 0.00150875 3.88909e-16)
(1.0056 0.00473626 1.63423e-16)
(0.999988 -3.52103e-05 7.91563e-17)
(0.999955 -9.70374e-05 6.81314e-17)
(0.999896 -0.000162562 -7.62465e-18)
(0.999835 -0.000232026 1.22289e-16)
(0.999786 -0.000309923 -1.34231e-16)
(0.999748 -0.000399356 8.36801e-17)
(0.999739 -0.00049609 -4.64604e-16)
(0.999768 -0.000572599 1.62188e-16)
(0.999844 -0.000600425 1.07656e-16)
(0.999959 -0.000548094 -4.3153e-16)
(1.00011 -0.000408634 1.91437e-17)
(1.00026 -9.06544e-05 2.02125e-16)
(1.00059 0.000338351 3.61125e-16)
(0.999841 0.00123476 -9.96136e-17)
(1.00446 0.00381575 3.4727e-17)
(0.999984 -4.60683e-05 -5.97599e-17)
(0.999953 -0.000121494 -9.60874e-17)
(0.999897 -0.000197311 1.28713e-16)
(0.999841 -0.000273165 -1.8194e-16)
(0.999801 -0.000356602 3.04433e-16)
(0.999774 -0.000449062 -1.04669e-16)
(0.999776 -0.000547372 2.16296e-16)
(0.999814 -0.000623685 9.28661e-17)
(0.999895 -0.00065026 -3.27499e-16)
(1.00002 -0.000594242 4.57391e-16)
(1.00017 -0.0004491 -2.95503e-16)
(1.00032 -0.000121431 -2.72854e-16)
(1.00073 0.000343272 7.93686e-17)
(1.00006 0.00120564 -2.47996e-16)
(1.0038 0.00370776 2.47228e-16)
(0.999978 -5.6827e-05 2.97995e-17)
(0.999949 -0.000144831 1.00046e-16)
(0.999892 -0.000231509 4.16426e-18)
(0.999839 -0.000316422 2.16288e-16)
(0.999804 -0.000409346 1.94315e-16)
(0.999787 -0.000508192 1.55112e-16)
(0.999801 -0.000609026 -5.32199e-16)
(0.999851 -0.000683249 2.07996e-16)
(0.999945 -0.000704136 8.63381e-17)
(1.00008 -0.00063735 1.54406e-16)
(1.00025 -0.000477072 4.95018e-16)
(1.0004 -0.000129174 2.97265e-16)
(1.00087 0.000377021 2.16897e-18)
(1.00034 0.00121745 4.28459e-16)
(1.00344 0.00350319 -1.72327e-16)
(0.999973 -6.74879e-05 -1.51303e-17)
(0.999945 -0.000166802 -5.03593e-17)
(0.99989 -0.000263345 1.90638e-17)
(0.999841 -0.000356829 -1.99931e-17)
(0.999813 -0.000458798 -4.29889e-16)
(0.999808 -0.000563127 2.40342e-16)
(0.999835 -0.00066439 6.18679e-16)
(0.999898 -0.000733991 3.1235e-16)
(1 -0.000747392 6.84166e-16)
(1.00015 -0.000670532 -3.56752e-16)
(1.00033 -0.000499384 -4.19736e-16)
(1.00049 -0.000143646 -7.57698e-16)
(1.00098 0.000383439 -2.08335e-16)
(1.00063 0.00117897 -3.01553e-16)
(1.00327 0.00318231 -1.73147e-16)
(0.999966 -7.81278e-05 3.8126e-17)
(0.999941 -0.000187869 5.98761e-17)
(0.999891 -0.000293702 -3.59167e-17)
(0.999847 -0.000395766 1.16561e-16)
(0.999825 -0.000507166 1.33851e-16)
(0.99983 -0.000617829 -7.32997e-16)
(0.999869 -0.000720365 6.65988e-17)
(0.999944 -0.000786495 -4.05236e-16)
(1.00006 -0.000794184 -8.13872e-16)
(1.00021 -0.000710541 -2.82339e-16)
(1.00041 -0.000533302 5.41579e-16)
(1.00056 -0.00017806 7.2851e-16)
(1.00108 0.000359428 2.58118e-16)
(1.00089 0.00110792 2.77962e-16)
(1.00321 0.00289164 -2.47137e-16)
(0.999959 -8.88014e-05 -2.38075e-17)
(0.999937 -0.000208455 -1.41289e-16)
(0.999891 -0.000323523 1.97625e-17)
(0.999853 -0.000434719 -5.93272e-17)
(0.999836 -0.000556526 3.63779e-16)
(0.999849 -0.000675264 3.08806e-16)
(0.999898 -0.000781267 -7.93576e-16)
(0.999984 -0.000846373 4.47146e-16)
(1.00011 -0.000850623 -1.86375e-16)
(1.00027 -0.000762299 7.34859e-16)
(1.00048 -0.000580184 -8.76183e-16)
(1.00064 -0.000226199 -3.20823e-16)
(1.00116 0.000321127 9.39575e-18)
(1.00112 0.0010343 7.20366e-16)
(1.0032 0.00265028 -4.58778e-16)
(0.999952 -9.95621e-05 -3.21331e-17)
(0.999933 -0.000228818 1.29735e-16)
(0.999893 -0.000353086 -4.31673e-17)
(0.99986 -0.000473543 -2.80411e-16)
(0.999848 -0.000605718 -2.11973e-16)
(0.999868 -0.000732872 1.60228e-16)
(0.999926 -0.000843131 2.56378e-16)
(1.00002 -0.000908222 -8.18513e-16)
(1.00016 -0.000909784 2.50491e-16)
(1.00033 -0.00081714 -9.54418e-16)
(1.00055 -0.000629508 -3.17016e-16)
(1.00072 -0.000275561 -3.17517e-16)
(1.00124 0.000281643 -5.5253e-16)
(1.00132 0.000968745 -3.83256e-16)
(1.00322 0.002439 4.03253e-16)
(0.999943 -0.000110473 2.27302e-17)
(0.999928 -0.000249192 -1.13038e-16)
(0.999894 -0.000382585 2.33515e-16)
(0.999869 -0.000511953 1.97889e-16)
(0.999864 -0.000653406 3.2167e-16)
(0.999891 -0.000787842 2.60663e-16)
(0.999958 -0.000901602 2.81655e-16)
(1.00006 -0.000966292 6.17319e-16)
(1.00021 -0.000964852 4.85376e-16)
(1.00039 -0.000867656 1.04769e-15)
(1.00062 -0.000674034 9.53792e-16)
(1.0008 -0.00032 3.26466e-16)
(1.00132 0.000244493 5.96996e-16)
(1.0015 0.000908751 6.93978e-16)
(1.00324 0.00224725 -2.10754e-16)
(0.999935 -0.000121599 1.13976e-17)
(0.999923 -0.00026983 3.85254e-17)
(0.999897 -0.000412427 -1.99811e-16)
(0.99988 -0.000550405 -1.07104e-16)
(0.999883 -0.000699891 -4.18448e-16)
(0.999919 -0.000840163 -2.672e-16)
(0.999995 -0.000956373 -3.82421e-16)
(1.00011 -0.00102017 -5.0639e-16)
(1.00027 -0.00101559 -4.03831e-16)
(1.00045 -0.0009141 1.70982e-16)
(1.0007 -0.000714971 -3.81316e-16)
(1.00089 -0.000361914 -9.73124e-17)
(1.0014 0.000205832 -2.61983e-16)
(1.00166 0.000847963 -8.72302e-16)
(1.00327 0.00206862 6.82692e-16)
(0.999925 -0.000132985 -4.52633e-17)
(0.999917 -0.000290939 3.14577e-17)
(0.999898 -0.000443068 -7.79946e-17)
(0.999891 -0.000589706 4.46566e-17)
(0.999903 -0.00074642 1.66741e-16)
(0.999949 -0.000891538 -4.85982e-16)
(1.00003 -0.00100963 -6.46102e-17)
(1.00016 -0.00107264 3.11255e-16)
(1.00032 -0.00106553 6.36593e-17)
(1.00052 -0.000960768 -6.77868e-16)
(1.00077 -0.000757366 8.77554e-16)
(1.00097 -0.000406688 -7.38297e-17)
(1.00148 0.0001607 -4.27218e-17)
(1.0018 0.000782157 -3.44729e-16)
(1.0033 0.00189985 -6.06814e-16)
(0.999915 -0.000144656 4.73144e-17)
(0.99991 -0.000312634 -7.81107e-17)
(0.999898 -0.000474798 1.0412e-16)
(0.9999 -0.000630465 1.39578e-16)
(0.999922 -0.0007941 5.89944e-17)
(0.999977 -0.0009436 2.41856e-16)
(1.00007 -0.00106348 6.34623e-16)
(1.0002 -0.00112628 3.37113e-16)
(1.00038 -0.00111771 -9.55167e-17)
(1.00058 -0.00101102 4.7044e-16)
(1.00085 -0.000804658 -5.55265e-16)
(1.00106 -0.000457235 6.9016e-16)
(1.00157 0.000107801 -1.81323e-16)
(1.00193 0.000711958 9.88649e-16)
(1.00333 0.00174309 2.37665e-16)
(0.999904 -0.000156609 -7.24155e-18)
(0.999901 -0.000334931 5.43299e-17)
(0.999896 -0.000507683 4.09466e-17)
(0.999906 -0.000672876 3.39504e-17)
(0.999939 -0.000843435 -2.44141e-16)
(1 -0.000997137 -2.75265e-16)
(1.00011 -0.00111883 1.22785e-16)
(1.00025 -0.00118198 -2.69066e-16)
(1.00043 -0.00117285 3.1109e-16)
(1.00064 -0.00106525 -3.4907e-16)
(1.00092 -0.000856623 2.99728e-16)
(1.00115 -0.000512275 -6.98874e-16)
(1.00165 5.01997e-05 9.10524e-16)
(1.00206 0.000641714 -1.44911e-15)
(1.00338 0.00160246 2.50774e-16)
(0.999892 -0.000168829 -2.13647e-17)
(0.999892 -0.000357778 4.9652e-17)
(0.999892 -0.00054161 -8.96683e-17)
(0.99991 -0.000716795 2.24809e-17)
(0.999952 -0.000894413 7.34847e-17)
(1.00003 -0.00105222 4.27652e-16)
(1.00014 -0.00117563 -1.78152e-16)
(1.00029 -0.00123929 -2.15872e-17)
(1.00048 -0.00122992 -2.4208e-16)
(1.0007 -0.00112167 1.0177e-16)
(1.00099 -0.000910645 -1.34922e-16)
(1.00124 -0.000568226 5.90446e-16)
(1.00173 -7.48502e-06 -1.03451e-15)
(1.00218 0.00057587 6.12605e-16)
(1.00343 0.00147914 -2.03103e-16)
(0.99988 -0.000181286 2.39356e-17)
(0.999881 -0.000381082 -2.53387e-17)
(0.999886 -0.000576353 -1.43496e-16)
(0.999911 -0.000761863 -8.84122e-17)
(0.999963 -0.000946697 -1.79856e-16)
(1.00005 -0.00110853 -8.24725e-17)
(1.00017 -0.00123342 1.49358e-16)
(1.00033 -0.00129733 9.42404e-17)
(1.00053 -0.0012874 -1.6039e-16)
(1.00076 -0.00117809 -4.28062e-16)
(1.00107 -0.000963903 -4.25123e-16)
(1.00133 -0.000621874 -3.52797e-16)
(1.00182 -6.20687e-05 6.8294e-16)
(1.00229 0.000516117 -5.07029e-16)
(1.00349 0.00137044 6.67222e-16)
(0.999866 -0.000193945 -1.07517e-18)
(0.999869 -0.000404733 -1.01305e-18)
(0.999879 -0.000611644 5.49841e-17)
(0.99991 -0.000807641 5.20449e-17)
(0.999971 -0.000999836 1.01819e-16)
(1.00007 -0.00116568 1.50052e-16)
(1.0002 -0.00129181 -4.43364e-16)
(1.00037 -0.00135552 2.45435e-16)
(1.00058 -0.00134441 8.64376e-16)
(1.00083 -0.0012333 5.1912e-17)
(1.00114 -0.00101509 -3.30862e-17)
(1.00142 -0.000672173 3.2901e-16)
(1.00192 -0.000113208 -1.45655e-15)
(1.00241 0.000461009 1.38847e-15)
(1.00355 0.00127179 -2.85905e-16)
(0.999852 -0.000206762 -3.67062e-17)
(0.999857 -0.000428626 6.28694e-17)
(0.999871 -0.000647217 1.03352e-16)
(0.999909 -0.000853689 -2.81822e-16)
(0.999979 -0.00105335 -4.10669e-17)
(1.00008 -0.00122332 -5.14132e-16)
(1.00023 -0.00135063 3.6217e-16)
(1.00041 -0.00141381 -3.93729e-16)
(1.00064 -0.00140095 -4.13532e-16)
(1.00089 -0.0012874 4.57498e-16)
(1.00122 -0.00106464 3.18948e-16)
(1.00151 -0.000720144 -2.84551e-16)
(1.00201 -0.000162686 1.78132e-15)
(1.00252 0.000407498 -3.17922e-16)
(1.00362 0.00117896 -4.00792e-16)
(0.999837 -0.000219693 2.77129e-17)
(0.999843 -0.000452669 2.58914e-17)
(0.999863 -0.000682848 6.39411e-18)
(0.999907 -0.000899633 1.21344e-16)
(0.999985 -0.00110682 2.50492e-16)
(1.0001 -0.00128115 5.00865e-16)
(1.00026 -0.00140985 -4.1209e-16)
(1.00045 -0.00147248 3.37797e-16)
(1.00069 -0.00145763 3.30685e-16)
(1.00096 -0.00134136 1.13008e-16)
(1.00129 -0.00111399 -1.56195e-17)
(1.00161 -0.000767822 -1.89982e-16)
(1.00211 -0.000212914 -1.42208e-15)
(1.00263 0.000352798 -7.39256e-17)
(1.0037 0.00108892 -1.06348e-16)
(0.999821 -0.00023269 -2.54576e-17)
(0.99983 -0.000476784 -8.67694e-17)
(0.999854 -0.000718371 -1.27428e-16)
(0.999905 -0.000945181 8.94909e-17)
(0.999991 -0.00115985 -2.07537e-16)
(1.00012 -0.00133883 -9.04906e-17)
(1.00028 -0.00146936 -2.56286e-16)
(1.00049 -0.00153178 -7.1751e-16)
(1.00074 -0.00151508 -3.83469e-16)
(1.00102 -0.00139623 -1.07448e-16)
(1.00137 -0.00116458 -6.82871e-18)
(1.0017 -0.000816997 2.51005e-16)
(1.00221 -0.000265651 4.17449e-16)
(1.00275 0.000295339 -4.997e-16)
(1.00377 0.00100043 -2.77574e-17)
(0.999805 -0.000245707 7.10931e-17)
(0.999816 -0.000500917 5.69563e-17)
(0.999845 -0.000753688 1.48414e-16)
(0.999903 -0.000990168 -1.81318e-16)
(0.999998 -0.00121218 -6.84035e-17)
(1.00013 -0.00139608 4.48034e-16)
(1.00031 -0.00152898 -3.24275e-17)
(1.00053 -0.00159176 -1.57794e-16)
(1.00079 -0.00157366 3.60294e-16)
(1.00109 -0.00145265 7.98582e-17)
(1.00145 -0.00121731 -5.284e-16)
(1.00179 -0.000868685 -1.58719e-16)
(1.00231 -0.000321614 -6.85362e-16)
(1.00286 0.000234821 -2.18512e-16)
(1.00384 0.000913253 -2.89938e-16)
(0.999788 -0.000258693 -6.24323e-17)
(0.999801 -0.000525028 -1.62424e-17)
(0.999836 -0.000788767 -5.2218e-17)
(0.999901 -0.00103455 2.58165e-16)
(1 -0.00126368 1.40943e-16)
(1.00015 -0.00145266 -3.97481e-16)
(1.00034 -0.00158845 5.57659e-16)
(1.00057 -0.00165224 2.9375e-16)
(1.00085 -0.00163337 -8.93292e-16)
(1.00115 -0.00151078 -7.73093e-16)
(1.00153 -0.00127244 4.84001e-16)
(1.00189 -0.000923111 1.25647e-17)
(1.0024 -0.000380685 1.80881e-15)
(1.00296 0.000171716 5.15243e-16)
(1.00392 0.000827919 7.72121e-16)
(0.99977 -0.0002716 4.24921e-17)
(0.999785 -0.000549091 -7.03828e-17)
(0.999827 -0.000823636 1.6395e-16)
(0.9999 -0.00107842 -2.61646e-16)
(1.00001 -0.00131443 -2.1924e-16)
(1.00017 -0.00150854 3.48491e-16)
(1.00037 -0.00164764 9.17582e-17)
(1.00061 -0.00171307 4.41729e-16)
(1.0009 -0.00169408 7.96788e-16)
(1.00122 -0.00157054 1.50083e-16)
(1.0016 -0.00132984 -2.05898e-16)
(1.00198 -0.000980062 2.92316e-16)
(1.0025 -0.000442316 -1.55498e-15)
(1.00307 0.00010686 3.71688e-16)
(1.004 0.0007449 -3.54724e-16)
(0.999751 -0.000284377 1.48877e-17)
(0.999769 -0.00057308 7.84264e-17)
(0.999817 -0.000858356 -3.2575e-17)
(0.999897 -0.00112196 -2.99949e-19)
(1.00002 -0.00136468 -1.33007e-17)
(1.00018 -0.00156393 -4.58661e-16)
(1.00039 -0.00170663 -4.70663e-16)
(1.00065 -0.0017742 -5.99948e-18)
(1.00095 -0.00175567 -5.38812e-16)
(1.00128 -0.00163173 4.23106e-16)
(1.00168 -0.00138922 4.01351e-16)
(1.00207 -0.00103907 -6.36289e-16)
(1.0026 -0.00050575 1.11964e-15)
(1.00318 4.12269e-05 -1.08305e-15)
(1.00408 0.000664624 -1.40841e-16)
(0.999731 -0.000296974 -4.55156e-17)
(0.999751 -0.000596974 -4.9912e-17)
(0.999805 -0.000892998 1.3482e-16)
(0.999894 -0.00116542 -5.44583e-17)
(1.00003 -0.00141478 3.54211e-16)
(1.0002 -0.00161921 -7.59505e-17)
(1.00042 -0.00176571 1.05613e-16)
(1.00069 -0.0018358 -6.98984e-18)
(1.001 -0.00181816 1.88138e-16)
(1.00134 -0.00169423 -1.80342e-16)
(1.00176 -0.00145024 -4.45564e-16)
(1.00216 -0.00109958 4.56869e-16)
(1.0027 -0.000570156 -3.31607e-16)
(1.00329 -2.42071e-05 8.30627e-16)
(1.00417 0.000587694 3.51303e-16)
(0.99971 -0.000309341 -1.31685e-17)
(0.999733 -0.000620744 -7.24427e-18)
(0.999793 -0.000927618 -1.88774e-16)
(0.99989 -0.001209 2.08056e-16)
(1.00003 -0.00146514 -8.79043e-17)
(1.00021 -0.00167484 2.61123e-16)
(1.00045 -0.0018253 6.94386e-17)
(1.00072 -0.00189811 3.11087e-16)
(1.00105 -0.0018816 -4.57929e-16)
(1.00141 -0.00175784 3.30197e-16)
(1.00183 -0.00151248 -2.14146e-16)
(1.00225 -0.00116097 -4.7329e-16)
(1.0028 -0.000634709 4.15595e-16)
(1.0034 -8.86152e-05 5.70267e-16)
(1.00426 0.000514554 -1.3512e-16)
(0.999688 -0.000321435 7.87902e-19)
(0.999713 -0.000644358 1.06379e-16)
(0.999779 -0.000962237 -9.86622e-17)
(0.999883 -0.00125286 -6.71376e-17)
(1.00003 -0.00151605 -1.99787e-16)
(1.00023 -0.00173125 -4.93347e-17)
(1.00047 -0.00188578 -2.35853e-16)
(1.00076 -0.00196139 -6.45596e-16)
(1.0011 -0.00194604 4.31044e-16)
(1.00147 -0.0018224 -2.64598e-16)
(1.00191 -0.00157554 5.93249e-16)
(1.00235 -0.00122266 2.10053e-16)
(1.0029 -0.000698778 -5.0252e-16)
(1.0035 -0.000151509 -1.07597e-15)
(1.00435 0.000444964 -2.3273e-16)
(0.999665 -0.000333219 2.55642e-18)
(0.999692 -0.000667778 -1.42579e-16)
(0.999763 -0.000996835 4.7178e-17)
(0.999875 -0.00129703 2.37207e-16)
(1.00004 -0.00156768 6.81363e-17)
(1.00024 -0.00178867 -2.08613e-16)
(1.0005 -0.00194741 2.59623e-16)
(1.0008 -0.00202579 -4.89795e-17)
(1.00115 -0.00201148 -9.52131e-17)
(1.00154 -0.00188772 -1.29718e-16)
(1.00199 -0.00163909 -2.36305e-16)
(1.00244 -0.00128427 2.28206e-16)
(1.003 -0.00076203 1.65502e-16)
(1.00361 -0.00021284 2.10838e-16)
(1.00445 0.000378 4.06537e-16)
(0.999641 -0.000344665 1.22842e-18)
(0.99967 -0.000690973 1.01235e-16)
(0.999746 -0.00103136 2.52617e-17)
(0.999866 -0.00134148 -3.94741e-16)
(1.00004 -0.00162003 1.16625e-16)
(1.00025 -0.00184718 2.51322e-16)
(1.00052 -0.0020103 1.02245e-16)
(1.00084 -0.00209139 -1.74882e-19)
(1.0012 -0.0020779 1.67748e-16)
(1.0016 -0.00195369 -3.95757e-17)
(1.00206 -0.00170295 -2.36596e-16)
(1.00253 -0.00134569 1.72378e-16)
(1.0031 -0.00082453 8.77729e-17)
(1.00372 -0.000272983 2.23719e-16)
(1.00454 0.00031296 -3.49078e-16)
(0.999615 -0.000355757 2.98115e-17)
(0.999647 -0.00071392 -1.07867e-16)
(0.999728 -0.00106576 -1.7057e-16)
(0.999854 -0.00138607 2.74664e-16)
(1.00003 -0.00167296 -7.03299e-17)
(1.00026 -0.00190666 2.24404e-17)
(1.00054 -0.00207434 2.19133e-17)
(1.00087 -0.00215812 2.57866e-17)
(1.00126 -0.00214524 1.50837e-16)
(1.00167 -0.00202027 2.27011e-17)
(1.00214 -0.00176715 1.66757e-16)
(1.00262 -0.0014071 -4.69601e-16)
(1.0032 -0.00088665 -4.91378e-16)
(1.00382 -0.000332568 -3.6523e-16)
(1.00464 0.000248982 2.93385e-16)
(0.999589 -0.000366493 -4.1832e-17)
(0.999623 -0.000736612 8.66306e-17)
(0.999709 -0.00109997 1.47776e-16)
(0.999842 -0.00143069 4.89425e-17)
(1.00003 -0.00172627 4.11228e-17)
(1.00027 -0.00196689 -2.60549e-16)
(1.00057 -0.00213936 -1.36163e-16)
(1.00091 -0.00222585 3.12517e-16)
(1.00131 -0.00221346 -1.39935e-16)
(1.00173 -0.00208753 3.67759e-17)
(1.00222 -0.0018319 3.00317e-16)
(1.00272 -0.00146888 7.36871e-18)
(1.0033 -0.000948939 4.95531e-16)
(1.00393 -0.000392254 9.87725e-17)
(1.00474 0.000185519 -3.14606e-16)
(0.999561 -0.000376879 4.29735e-17)
(0.999598 -0.000759059 -6.54531e-17)
(0.999689 -0.00113397 2.4231e-17)
(0.99983 -0.00147521 -2.62526e-16)
(1.00003 -0.00177974 -6.07512e-17)
(1.00028 -0.00202758 3.53954e-16)
(1.00059 -0.00220509 -1.50573e-16)
(1.00095 -0.00229441 -2.7138e-16)
(1.00136 -0.00228251 -6.76245e-17)
(1.0018 -0.00215557 6.43075e-17)
(1.0023 -0.00189746 -9.00042e-17)
(1.00281 -0.00153144 -8.6677e-17)
(1.0034 -0.0010119 -1.35976e-17)
(1.00403 -0.000452556 3.94231e-16)
(1.00483 0.00012228 3.68384e-16)
(0.999532 -0.000386935 -1.76252e-17)
(0.999573 -0.000781289 7.20389e-17)
(0.999669 -0.00116778 1.20511e-16)
(0.999817 -0.00151959 -1.29591e-16)
(1.00002 -0.00183323 1.45079e-17)
(1.00029 -0.00208851 -1.96704e-16)
(1.00061 -0.0022713 4.13186e-16)
(1.00098 -0.00236363 1.21215e-16)
(1.00141 -0.00235236 -5.35344e-17)
(1.00187 -0.0022245 8.86519e-17)
(1.00238 -0.00196406 -3.14621e-16)
(1.0029 -0.00159515 2.61681e-16)
(1.0035 -0.00107589 4.01252e-17)
(1.00414 -0.00051374 -2.99828e-16)
(1.00493 5.92699e-05 -1.46471e-16)
(0.999501 -0.000396682 3.16311e-17)
(0.999546 -0.000803342 -7.34407e-17)
(0.999648 -0.00120145 -7.28634e-18)
(0.999804 -0.00156385 2.74997e-16)
(1.00002 -0.00188668 -2.68893e-16)
(1.0003 -0.00214954 -4.44417e-17)
(1.00063 -0.00233781 -4.25814e-16)
(1.00102 -0.00243337 -7.50236e-17)
(1.00146 -0.00242297 -1.83487e-16)
(1.00193 -0.0022944 1.60848e-16)
(1.00246 -0.00203187 5.06347e-16)
(1.00299 -0.00166018 -4.79873e-17)
(1.0036 -0.00114106 -5.07154e-16)
(1.00424 -0.000575824 -1.29187e-17)
(1.00503 -3.46041e-06 -8.61128e-17)
(0.99947 -0.000406151 -1.85524e-17)
(0.999519 -0.000825267 7.1974e-17)
(0.999627 -0.00123506 -2.15936e-16)
(0.999791 -0.0016081 -2.02388e-16)
(1.00002 -0.00194015 2.32749e-16)
(1.0003 -0.00221069 1.71583e-17)
(1.00065 -0.00240459 2.02563e-16)
(1.00105 -0.00250361 3.34808e-16)
(1.00151 -0.00249434 6.96466e-16)
(1.002 -0.00236532 -5.03309e-16)
(1.00254 -0.00210097 -6.28656e-16)
(1.00309 -0.00172661 2.42461e-16)
(1.00371 -0.00120738 2.79555e-16)
(1.00435 -0.000638668 -3.99095e-16)
(1.00513 -6.55531e-05 -1.23091e-16)
(0.999437 -0.000415367 1.97628e-18)
(0.999491 -0.000847108 -5.14778e-17)
(0.999605 -0.00126871 5.43628e-17)
(0.999777 -0.00165247 2.77258e-16)
(1.00001 -0.00199379 2.10462e-16)
(1.00031 -0.00227205 1.08182e-16)
(1.00067 -0.00247172 5.36574e-17)
(1.00109 -0.0025744 -3.44187e-16)
(1.00156 -0.00256654 -5.46426e-16)
(1.00206 -0.00243731 3.27975e-16)
(1.00261 -0.00217137 5.12827e-16)
(1.00318 -0.00179438 -4.50372e-16)
(1.00381 -0.00127472 -3.17419e-16)
(1.00445 -0.000702045 4.56108e-17)
(1.00523 -0.00012638 -1.1614e-16)
(0.999404 -0.000424361 -4.45559e-17)
(0.999461 -0.00086891 -4.249e-17)
(0.999581 -0.00130251 1.05143e-16)
(0.999762 -0.00169713 -7.14344e-17)
(1.00001 -0.00204783 -2.19857e-16)
(1.00032 -0.00233386 -4.36184e-18)
(1.00069 -0.00253939 2.21979e-16)
(1.00112 -0.0026459 -1.34093e-16)
(1.00161 -0.00263966 2.96272e-16)
(1.00213 -0.00251044 -1.79216e-16)
(1.00269 -0.00224305 -2.51573e-16)
(1.00327 -0.00186339 3.87184e-16)
(1.00391 -0.00134287 5.25554e-16)
(1.00456 -0.000765671 2.11215e-17)
(1.00533 -0.000185802 1.73419e-16)
(0.999369 -0.000433159 4.27327e-17)
(0.999431 -0.000890704 8.39917e-17)
(0.999557 -0.00133652 2.43167e-17)
(0.999746 -0.00174224 1.63677e-16)
(1 -0.00210247 -4.08313e-18)
(1.00033 -0.00239638 7.14306e-17)
(1.00071 -0.00260785 2.53353e-18)
(1.00116 -0.00271831 1.06923e-16)
(1.00166 -0.00271386 -1.64818e-16)
(1.00219 -0.00258474 -1.63545e-17)
(1.00277 -0.00231596 2.41847e-16)
(1.00336 -0.00193348 4.25566e-17)
(1.00401 -0.00141159 -2.30632e-16)
(1.00466 -0.000829269 4.49692e-16)
(1.00543 -0.000243703 9.64195e-17)
(0.999333 -0.000441789 -7.18135e-18)
(0.999399 -0.000912512 -1.25109e-17)
(0.999531 -0.0013708 -1.78736e-16)
(0.999728 -0.00178791 -2.28769e-16)
(0.999997 -0.0021579 3.45144e-17)
(1.00033 -0.00245983 -2.17503e-16)
(1.00073 -0.00267734 -4.79333e-16)
(1.00119 -0.00279184 2.45037e-16)
(1.00171 -0.00278926 1.72583e-16)
(1.00225 -0.00266027 -2.47267e-16)
(1.00285 -0.00239003 -4.44977e-16)
(1.00345 -0.00200449 -6.30891e-17)
(1.00411 -0.00148069 3.23141e-16)
(1.00477 -0.000892623 2.47677e-16)
(1.00553 -0.000300129 -1.11141e-16)
(0.999296 -0.000450275 -9.74469e-18)
(0.999366 -0.000934344 4.31697e-17)
(0.999503 -0.00140537 -1.95639e-17)
(0.999709 -0.00183418 -8.52971e-17)
(0.999988 -0.00221421 -4.39249e-17)
(1.00033 -0.00252435 2.95211e-16)
(1.00075 -0.00274802 1.38441e-16)
(1.00122 -0.00286662 -2.35476e-16)
(1.00175 -0.00286592 -4.98774e-16)
(1.00232 -0.00273698 3.31392e-16)
(1.00293 -0.00246514 -8.05442e-17)
(1.00355 -0.00207623 -3.68213e-16)
(1.00421 -0.00154998 -2.8621e-16)
(1.00487 -0.000955588 1.22213e-16)
(1.00563 -0.000354758 6.63583e-17)
(0.999258 -0.000458646 4.32883e-19)
(0.999332 -0.000956209 -5.60489e-17)
(0.999475 -0.00144021 7.52826e-17)
(0.999688 -0.00188103 2.16075e-16)
(0.999978 -0.0022714 1.34353e-16)
(1.00034 -0.00258998 -9.18437e-17)
(1.00077 -0.00281995 -2.19184e-16)
(1.00126 -0.0029427 -1.07339e-17)
(1.0018 -0.00294385 3.15216e-16)
(1.00238 -0.00281484 1.81907e-16)
(1.003 -0.00254118 7.82785e-17)
(1.00364 -0.00214858 5.35406e-16)
(1.00431 -0.00161937 -3.34378e-16)
(1.00498 -0.00101813 -7.64714e-16)
(1.00574 -0.000408088 -1.246e-16)
(0.999219 -0.000466931 1.85607e-17)
(0.999297 -0.000978107 -8.51872e-17)
(0.999444 -0.00147529 -4.43537e-19)
(0.999665 -0.00192839 1.56535e-16)
(0.999966 -0.0023294 -2.60141e-16)
(1.00034 -0.00265666 -2.99972e-16)
(1.00078 -0.00289306 3.1166e-16)
(1.00129 -0.00302 3.98708e-17)
(1.00185 -0.00302296 1.37174e-16)
(1.00244 -0.00289371 -2.85952e-16)
(1.00308 -0.00261802 2.61824e-16)
(1.00373 -0.00222144 5.69178e-17)
(1.00441 -0.00168882 6.66832e-16)
(1.00508 -0.00108035 4.15544e-16)
(1.00584 -0.000460334 2.62513e-16)
(0.999179 -0.000475163 -9.17052e-18)
(0.99926 -0.00100005 1.13316e-16)
(0.999413 -0.00151057 8.89945e-17)
(0.999642 -0.00197617 -1.30849e-16)
(0.999953 -0.00238807 9.20358e-17)
(1.00034 -0.00272423 -2.07109e-17)
(1.0008 -0.00296722 2.69152e-17)
(1.00132 -0.00309839 -7.74916e-18)
(1.00189 -0.00310312 9.78367e-17)
(1.00251 -0.00297349 4.15733e-16)
(1.00316 -0.00269557 5.944e-17)
(1.00382 -0.00229478 -3.69576e-16)
(1.00451 -0.00175843 -1.84558e-16)
(1.00519 -0.00114243 2.7238e-16)
(1.00595 -0.000512061 -3.07738e-16)
(0.999139 -0.000483373 -2.81037e-17)
(0.999223 -0.00102205 -4.5356e-17)
(0.999381 -0.00154602 -2.56197e-17)
(0.999617 -0.00202427 -2.96801e-16)
(0.999939 -0.00244724 2.32598e-16)
(1.00034 -0.00279248 1.19532e-16)
(1.00081 -0.00304222 -4.52385e-17)
(1.00135 -0.00317769 4.45761e-17)
(1.00194 -0.00318416 -2.95664e-16)
(1.00257 -0.00305406 -8.77301e-17)
(1.00323 -0.0027738 -5.67133e-16)
(1.00391 -0.00236863 1.9933e-16)
(1.00461 -0.00182831 -8.51972e-17)
(1.0053 -0.00120449 -8.03973e-16)
(1.00606 -0.000563616 4.75342e-16)
(0.999097 -0.000491599 3.10204e-17)
(0.999184 -0.00104412 -1.06259e-16)
(0.999348 -0.00158163 9.06328e-17)
(0.999592 -0.00207261 7.14967e-17)
(0.999924 -0.00250678 -1.80531e-16)
(1.00033 -0.00286125 2.64735e-16)
(1.00082 -0.00311787 1.62565e-16)
(1.00137 -0.00325773 -1.04154e-16)
(1.00198 -0.00326598 -2.56208e-16)
(1.00263 -0.00313537 1.01645e-17)
(1.00331 -0.00285273 6.03802e-16)
(1.004 -0.00244312 5.72746e-18)
(1.00471 -0.00189866 1.12263e-16)
(1.0054 -0.00126682 8.29349e-16)
(1.00616 -0.00061532 -5.89145e-16)
(0.999054 -0.000499874 6.64827e-18)
(0.999145 -0.00106631 7.59051e-17)
(0.999314 -0.0016174 -1.16607e-16)
(0.999567 -0.00212115 1.4094e-16)
(0.999909 -0.00256658 1.68729e-16)
(1.00033 -0.00293039 -4.53655e-16)
(1.00083 -0.00319402 -2.91132e-16)
(1.0014 -0.00333837 4.34551e-16)
(1.00203 -0.0033485 7.54074e-17)
(1.00269 -0.00321741 -6.03921e-16)
(1.00339 -0.00293242 1.49964e-16)
(1.00409 -0.00251836 -1.36358e-16)
(1.00482 -0.00196964 -1.04206e-16)
(1.00551 -0.00132938 -9.74758e-16)
(1.00627 -0.000666801 2.17034e-16)
(0.99901 -0.000508234 -2.32634e-17)
(0.999104 -0.00108864 1.51292e-16)
(0.999279 -0.00165336 -3.52929e-17)
(0.99954 -0.0021699 -1.86094e-16)
(0.999893 -0.00262664 -1.04655e-16)
(1.00033 -0.00299986 4.24068e-16)
(1.00085 -0.00327061 8.71067e-17)
(1.00143 -0.0034196 -3.5315e-16)
(1.00207 -0.00343171 1.75485e-16)
(1.00275 -0.00330025 5.42125e-16)
(1.00347 -0.00301298 -1.27182e-16)
(1.00418 -0.00259451 2.20788e-17)
(1.00492 -0.00204141 1.43018e-16)
(1.00562 -0.00139252 5.42418e-16)
(1.00638 -0.000718414 9.03123e-17)
(0.998966 -0.000516706 1.95404e-17)
(0.999063 -0.00111115 -1.93968e-16)
(0.999244 -0.00168958 -2.59782e-17)
(0.999513 -0.00221893 2.71181e-16)
(0.999877 -0.00268698 1.77801e-16)
(1.00033 -0.00306967 3.9997e-17)
(1.00086 -0.00334768 -1.90767e-16)
(1.00146 -0.00350143 -1.34505e-16)
(1.00212 -0.00351569 -2.29662e-16)
(1.00282 -0.00338398 5.62416e-17)
(1.00354 -0.00309452 -3.22099e-16)
(1.00428 -0.00267167 -6.01011e-17)
(1.00502 -0.00211401 -1.9173e-16)
(1.00573 -0.00145653 3.56449e-16)
(1.00649 -0.000770524 -1.93562e-16)
(0.99892 -0.000525321 -1.2934e-17)
(0.99902 -0.0011339 2.77102e-17)
(0.999207 -0.0017261 1.11234e-16)
(0.999485 -0.00226831 -4.22375e-16)
(0.99986 -0.00274772 -3.30054e-16)
(1.00032 -0.00313995 -3.36276e-16)
(1.00087 -0.00342532 4.03866e-16)
(1.00149 -0.00358398 2.42144e-16)
(1.00216 -0.00360054 2.37024e-16)
(1.00288 -0.00346871 2.58521e-16)
(1.00362 -0.00317715 -1.72472e-17)
(1.00437 -0.00274991 2.1103e-16)
(1.00512 -0.00218749 2.09135e-16)
(1.00583 -0.00152154 -1.27248e-16)
(1.0066 -0.000823244 4.35674e-17)
(0.998873 -0.000534099 3.40731e-17)
(0.998976 -0.0011569 1.27968e-16)
(0.99917 -0.00176301 -2.59718e-17)
(0.999457 -0.00231816 2.60684e-16)
(0.999843 -0.00280901 -3.37329e-17)
(1.00032 -0.00321086 -1.29099e-16)
(1.00088 -0.00350369 1.16217e-18)
(1.00151 -0.00366739 1.89581e-16)
(1.00221 -0.0036864 -9.76805e-17)
(1.00294 -0.00355455 -8.59513e-16)
(1.0037 -0.00326093 4.33709e-16)
(1.00446 -0.00282926 7.53819e-17)
(1.00522 -0.00226179 1.3665e-18)
(1.00594 -0.00158724 1.88687e-17)
(1.00671 -0.000876309 9.57059e-17)
(0.998826 -0.000543061 -4.64579e-17)
(0.998931 -0.0011802 -1.23132e-17)
(0.999131 -0.00180035 1.4037e-18)
(0.999427 -0.00236858 4.47258e-17)
(0.999824 -0.00287098 9.26063e-17)
(1.00031 -0.00328257 5.30948e-16)
(1.00089 -0.00358299 -4.40914e-16)
(1.00154 -0.00375186 -1.669e-16)
(1.00225 -0.00377342 2.824e-16)
(1.003 -0.00364162 3.50087e-16)
(1.00377 -0.00334594 -4.35851e-16)
(1.00455 -0.00290971 -4.10554e-16)
(1.00533 -0.00233688 -5.05984e-16)
(1.00605 -0.00165367 7.82517e-17)
(1.00682 -0.000929728 2.70941e-16)
(0.998777 -0.00055222 -5.23447e-18)
(0.998885 -0.00120381 -5.94353e-17)
(0.999091 -0.00183819 6.42902e-17)
(0.999395 -0.00241966 2.79633e-17)
(0.999804 -0.00293379 1.5309e-16)
(1.00031 -0.00335524 -2.86276e-16)
(1.0009 -0.00366338 5.42655e-16)
(1.00157 -0.0038375 -3.65633e-16)
(1.00229 -0.0038617 -9.21235e-17)
(1.00306 -0.00372998 1.28061e-16)
(1.00385 -0.00343215 5.57351e-17)
(1.00464 -0.00299122 6.0189e-17)
(1.00543 -0.00241267 6.88709e-17)
(1.00616 -0.00172101 -3.69088e-16)
(1.00693 -0.000983713 1.41665e-16)
(0.998727 -0.000561588 2.84005e-17)
(0.998837 -0.00122775 -1.41421e-17)
(0.999049 -0.00187654 -1.86202e-16)
(0.999363 -0.00247146 -6.66786e-17)
(0.999783 -0.00299752 4.61844e-17)
(1.0003 -0.00342901 -8.48615e-17)
(1.00091 -0.00374499 -3.02168e-16)
(1.00159 -0.00392446 2.94141e-16)
(1.00234 -0.00395134 1.60453e-16)
(1.00312 -0.00381965 -1.15298e-16)
(1.00392 -0.00351957 9.30766e-17)
(1.00473 -0.00307375 -3.21817e-18)
(1.00553 -0.00248912 -2.211e-16)
(1.00627 -0.00178918 2.10585e-16)
(1.00704 -0.00103829 -3.80829e-16)
(0.998676 -0.000571171 2.73481e-17)
(0.998788 -0.00125202 7.6001e-17)
(0.999006 -0.00191542 7.42259e-17)
(0.999328 -0.00252402 -5.13619e-17)
(0.99976 -0.00306223 -2.7182e-16)
(1.00029 -0.00350394 5.07493e-17)
(1.00092 -0.00382789 1.16896e-16)
(1.00161 -0.00401278 1.6488e-16)
(1.00238 -0.00404235 -9.57971e-17)
(1.00318 -0.00391063 2.72203e-16)
(1.004 -0.00360816 1.64071e-16)
(1.00482 -0.00315725 -2.91325e-17)
(1.00563 -0.00256619 1.07145e-17)
(1.00638 -0.00185807 1.36312e-16)
(1.00715 -0.00109377 4.30704e-17)
(0.998624 -0.000580975 -7.07302e-17)
(0.998738 -0.00127664 7.40333e-18)
(0.998962 -0.00195483 -8.89633e-17)
(0.999293 -0.00257732 1.48123e-16)
(0.999736 -0.00312792 6.17355e-17)
(1.00028 -0.00358006 5.41911e-17)
(1.00092 -0.00391211 -3.79469e-16)
(1.00164 -0.00410248 -1.35099e-17)
(1.00242 -0.00413473 2.73144e-16)
(1.00324 -0.00400291 7.49432e-17)
(1.00408 -0.0036979 -5.70709e-16)
(1.00491 -0.00324173 2.52759e-16)
(1.00574 -0.00264392 -1.75957e-16)
(1.00649 -0.00192758 -4.32262e-17)
(1.00727 -0.00114983 -1.72645e-16)
(0.998571 -0.000590999 5.04188e-17)