1.45 	0 	0 	-0.00681569 	-0.00265498 	3.89437e-21
2.35 	0 	0 	0.0650976 	-0.0067476 	2.42325e-21
