1.45 	0 	0 	-0.00335955 	-0.002934 	3.96457e-21
2.35 	0 	0 	0.0772087 	-0.00715274 	2.39677e-21
