1.45 	0 	0 	-0.304037
2.35 	0 	0 	-0.134552
