1.275 	2.15223e-18 	-2.76991e-20 	-0.0344803 	-0.000439297 	-1.90287e-22
1.825 	2.15223e-18 	-1.39322e-20 	-0.00949828 	-0.00275514 	1.678e-21
2.375 	2.15223e-18 	-2.66896e-23 	0.115204 	-0.00323031 	-6.99858e-22
