/*--------------------------------*- C++ -*----------------------------------*\
  =========                 |
  \\      /  F ield         | OpenFOAM: The Open Source CFD Toolbox
   \\    /   O peration     | Website:  https://openfoam.org
    \\  /    A nd           | Version:  6.0
     \\/     M anipulation  |
\*---------------------------------------------------------------------------*/
FoamFile
{
    version     2.0;
    format      ascii;
    class       volVectorField;
    location    "0.9";
    object      U;
}
// * * * * * * * * * * * * * * * * * * * * * * * * * * * * * * * * * * * * * //

dimensions      [0 1 -1 0 0 0 0];

internalField   nonuniform List<vector> 
200
(
(0.000771592 -0.000813161 0)
(0.00245456 -0.00110568 0)
(0.00407882 -0.00101289 0)
(0.00525235 -0.000922982 0)
(0.00587742 -0.00086583 0)
(0.00572689 -0.000764719 0)
(0.00420803 -0.000438603 0)
(7.35491e-05 0.000533565 0)
(-0.0089538 0.00296688 0)
(-0.0259895 0.00791508 0)
(-0.0539779 0.0157658 0)
(-0.0937623 0.0245079 0)
(-0.139931 0.0293187 0)
(-0.179608 0.0263623 0)
(-0.199173 0.0158812 0)
(-0.190592 0.000408392 0)
(-0.153108 -0.0162645 0)
(-0.0944061 -0.0270575 0)
(-0.0316275 -0.0209545 0)
(0.000793291 0.000520123 0)
(0.000904787 -0.00252058 0)
(0.00224368 -0.00290637 0)
(0.00241435 -0.00203947 0)
(0.00098868 -0.00093918 0)
(-0.00267999 0.000572704 0)
(-0.00992875 0.00311437 0)
(-0.0230499 0.00779024 0)
(-0.0455293 0.0163511 0)
(-0.0814707 0.0305093 0)
(-0.132276 0.0492928 0)
(-0.192319 0.0664632 0)
(-0.250654 0.0733489 0)
(-0.2969 0.0649597 0)
(-0.323533 0.041583 0)
(-0.325795 0.00611466 0)
(-0.301313 -0.0375087 0)
(-0.250225 -0.0818686 0)
(-0.176267 -0.110401 0)
(-0.08827 -0.0932235 0)
(-0.0139742 -0.0142296 0)
(1.36946e-05 -0.00322707 0)
(-0.0016276 -0.00210124 0)
(-0.00619567 0.000833533 0)
(-0.0135104 0.00465591 0)
(-0.0246673 0.0104006 0)
(-0.0418436 0.0197443 0)
(-0.0677902 0.0346123 0)
(-0.104845 0.0559078 0)
(-0.152774 0.0811458 0)
(-0.20673 0.103444 0)
(-0.258212 0.114156 0)
(-0.29941 0.107341 0)
(-0.326509 0.0819833 0)
(-0.338735 0.0401881 0)
(-0.335911 -0.0156017 0)
(-0.316904 -0.0828076 0)
(-0.279296 -0.154668 0)
(-0.219984 -0.211033 0)
(-0.136688 -0.204879 0)
(-0.0339609 -0.0669648 0)
(-0.00163018 -0.000924484 0)
(-0.00800434 0.00413996 0)
(-0.019065 0.0102118 0)
(-0.033095 0.0178215 0)
(-0.0508607 0.0291783 0)
(-0.0739712 0.0463137 0)
(-0.103508 0.0701273 0)
(-0.139168 0.0987805 0)
(-0.178232 0.12655 0)
(-0.215395 0.145125 0)
(-0.244957 0.147354 0)
(-0.264182 0.130434 0)
(-0.27408 0.0957331 0)
(-0.277119 0.0458185 0)
(-0.275019 -0.0181754 0)
(-0.267352 -0.0969608 0)
(-0.25031 -0.189418 0)
(-0.216009 -0.280748 0)
(-0.153032 -0.316554 0)
(-0.0465454 -0.168187 0)
(-0.00387833 0.00572048 0)
(-0.0159345 0.0170219 0)
(-0.0335122 0.0260654 0)
(-0.0522876 0.0364668 0)
(-0.071949 0.0515142 0)
(-0.0929298 0.0728126 0)
(-0.114926 0.0998652 0)
(-0.136855 0.129141 0)
(-0.156523 0.154042 0)
(-0.170831 0.166994 0)
(-0.177567 0.162878 0)
(-0.177371 0.140961 0)
(-0.173256 0.103692 0)
(-0.168669 0.0537026 0)
(-0.166469 -0.00865983 0)
(-0.167906 -0.0868588 0)
(-0.170299 -0.186917 0)
(-0.163771 -0.306081 0)
(-0.129911 -0.39701 0)
(-0.0357246 -0.293484 0)
(-0.00677591 0.0176265 0)
(-0.0250385 0.0364688 0)
(-0.0479793 0.0463098 0)
(-0.0679483 0.0561067 0)
(-0.0838665 0.0704033 0)
(-0.0957777 0.090438 0)
(-0.103325 0.115008 0)
(-0.106229 0.140144 0)
(-0.104088 0.159638 0)
(-0.0964583 0.167222 0)
(-0.0839337 0.159332 0)
(-0.0690298 0.136194 0)
(-0.0553414 0.100413 0)
(-0.0462186 0.0544632 0)
(-0.0446111 -0.00137447 0)
(-0.0525015 -0.0715878 0)
(-0.0693505 -0.167169 0)
(-0.0861137 -0.298571 0)
(-0.0824935 -0.435514 0)
(-0.00440042 -0.398956 0)
(-0.0108375 0.0358959 0)
(-0.0363454 0.0619005 0)
(-0.0634241 0.0682427 0)
(-0.0808529 0.0726352 0)
(-0.0885906 0.0808888 0)
(-0.087535 0.0944083 0)
(-0.078076 0.112069 0)
(-0.0612757 0.130359 0)
(-0.0386983 0.144083 0)
(-0.0122376 0.148218 0)
(0.0155366 0.140063 0)
(0.0411501 0.119867 0)
(0.0608912 0.0897419 0)
(0.0718344 0.0514786 0)
(0.0713874 0.00508547 0)
(0.0586944 -0.0543174 0)
(0.0323977 -0.139367 0)
(0.000179589 -0.269132 0)
(-0.0229106 -0.433508 0)
(0.0380706 -0.46351 0)
(-0.0172134 0.0630508 0)
(-0.051426 0.0965542 0)
(-0.0841924 0.0911224 0)
(-0.0919698 0.0811727 0)
(-0.0868613 0.0787041 0)
(-0.0718352 0.0824728 0)
(-0.0474445 0.0909046 0)
(-0.0149264 0.101272 0)
(0.0234872 0.109696 0)
(0.0648227 0.112275 0)
(0.105356 0.106852 0)
(0.141342 0.0931362 0)
(0.168631 0.0725584 0)
(0.185119 0.0459153 0)
(0.186831 0.0129374 0)
(0.174937 -0.031433 0)
(0.144007 -0.0987805 0)
(0.103453 -0.210228 0)
(0.0562406 -0.37451 0)
(0.0963339 -0.457154 0)
(-0.0924419 0.13685 0)
(-0.0961357 0.116022 0)
(-0.0670584 0.079823 0)
(-0.038611 0.0634812 0)
(-0.00870353 0.0544654 0)
(0.0229442 0.050101 0)
(0.0581643 0.0498319 0)
(0.0983362 0.0524858 0)
(0.142793 0.0560684 0)
(0.190608 0.0579711 0)
(0.237586 0.0566831 0)
(0.28211 0.0511995 0)
(0.317416 0.0422473 0)
(0.344715 0.029662 0)
(0.354138 0.0135439 0)
(0.351539 -0.00971613 0)
(0.319246 -0.0475323 0)
(0.274442 -0.116646 0)
(0.195318 -0.242228 0)
(0.192366 -0.34284 0)
(0.188408 0.111884 0)
(0.23175 0.0976993 0)
(0.306249 0.0728146 0)
(0.368976 0.0555491 0)
(0.416768 0.0436214 0)
(0.45553 0.0349265 0)
(0.489491 0.0287017 0)
(0.522715 0.0244143 0)
(0.555496 0.0217588 0)
(0.590417 0.0198823 0)
(0.623269 0.0184448 0)
(0.656662 0.0165271 0)
(0.681471 0.0144072 0)
(0.704102 0.0112283 0)
(0.708793 0.00769776 0)
(0.708959 0.00176307 0)
(0.673059 -0.00688027 0)
(0.626255 -0.0252135 0)
(0.498963 -0.0569749 0)
(0.388673 -0.108802 0)
)
;

boundaryField
{
    movingWall
    {
        type            fixedValue;
        value           uniform (1 0 0);
    }
    fixedWalls
    {
        type            noSlip;
    }
    frontAndBack
    {
        type            empty;
    }
}


// ************************************************************************* //
