1.45 	0 	0 	-0.00523403 	-0.00276889 	3.94045e-21
2.35 	0 	0 	0.0700013 	-0.00688567 	2.44647e-21
