1.45 	0 	0 	0.040315 	-0.00706561 	3.65377e-21
2.35 	0 	0 	0.242538 	-0.0116839 	6.4166e-22
