1.45 	0 	0 	-0.292401
2.35 	0 	0 	-0.127682
