1.45 	0 	0 	-0.00817598 	-0.00256781 	3.7802e-21
2.35 	0 	0 	0.0613226 	-0.00662712 	2.28042e-21
