1.275 	2.15223e-18 	-2.76991e-20 	-0.0344312 	-0.000436155 	-1.92016e-22
1.825 	2.15223e-18 	-1.39322e-20 	-0.00940622 	-0.00276369 	1.70062e-21
2.375 	2.15223e-18 	-2.66896e-23 	0.115472 	-0.00325501 	-7.09499e-22
