1.275 	2.15223e-18 	-2.76991e-20 	-0.0343929 	-0.000442582 	-1.93176e-22
1.825 	2.15223e-18 	-1.39322e-20 	-0.00933741 	-0.00277441 	1.71577e-21
2.375 	2.15223e-18 	-2.66896e-23 	0.115665 	-0.0032619 	-7.15966e-22
