/*--------------------------------*- C++ -*----------------------------------*\
  =========                 |
  \\      /  F ield         | OpenFOAM: The Open Source CFD Toolbox
   \\    /   O peration     | Website:  https://openfoam.org
    \\  /    A nd           | Version:  6.0
     \\/     M anipulation  |
\*---------------------------------------------------------------------------*/
FoamFile
{
    version     2.0;
    format      ascii;
    class       volVectorField;
    location    "59";
    object      U;
}
// * * * * * * * * * * * * * * * * * * * * * * * * * * * * * * * * * * * * * //

dimensions      [0 1 -1 0 0 0 0];

internalField   nonuniform List<vector> 
2000
(
(-0.00199122 0.00173829 5.72897e-20)
(-0.00762155 0.00330242 6.80426e-20)
(-0.0153301 0.00366164 -6.48678e-20)
(-0.0223323 0.0033373 -1.32364e-19)
(-0.0276804 0.00263964 -9.24634e-20)
(-0.0312213 0.00177181 1.23181e-19)
(-0.0330527 0.000879173 7.17492e-20)
(-0.0334436 6.84463e-05 -2.90248e-20)
(-0.0328262 -0.000581251 -7.24567e-20)
(-0.0314952 -0.00100604 5.28306e-20)
(-0.00248968 0.00512124 -1.42006e-19)
(-0.00837064 0.00968531 1.96036e-19)
(-0.0157251 0.0106972 1.95484e-20)
(-0.022025 0.00969704 -1.13551e-19)
(-0.0264593 0.0075978 5.43355e-19)
(-0.0289517 0.00499632 -2.39137e-19)
(-0.0296475 0.00232093 -2.58715e-19)
(-0.0288424 -0.000110072 3.12043e-19)
(-0.0269847 -0.00205497 -3.07748e-19)
(-0.0244468 -0.00332131 1.55254e-19)
(-0.00343574 0.0082248 2.35846e-20)
(-0.00972805 0.0154093 8.3882e-21)
(-0.0163014 0.0168858 5.87514e-19)
(-0.0211436 0.0151399 2.06095e-19)
(-0.0237175 0.0116329 4.08752e-20)
(-0.0240981 0.0073165 3.3802e-19)
(-0.0225237 0.00287655 -6.42024e-19)
(-0.0193385 -0.00116416 1.39244e-20)
(-0.0150202 -0.00438886 -3.79648e-19)
(-0.0101031 -0.00647396 4.18227e-19)
(-0.00472402 0.0108679 -4.4365e-20)
(-0.0114033 0.0200601 2.55239e-19)
(-0.0166177 0.0217186 -7.43651e-19)
(-0.0191361 0.0191488 -9.61238e-20)
(-0.018832 0.0142671 -5.47352e-19)
(-0.0160035 0.00831128 5.66872e-19)
(-0.0110228 0.00217596 -6.01274e-19)
(-0.00429657 -0.00342975 4.22266e-19)
(0.00366268 -0.0078961 1.77522e-19)
(0.012063 -0.010764 -2.00596e-19)
(-0.00618704 0.0128747 -4.93785e-19)
(-0.0129399 0.0232571 4.4559e-21)
(-0.0159822 0.0247661 9.1607e-19)
(-0.0151343 0.0213424 2.74634e-19)
(-0.0108146 0.0152248 -8.73239e-19)
(-0.00361589 0.00783518 5.42999e-19)
(0.00591808 0.000196219 6.15479e-19)
(0.0173136 -0.00683858 -5.48747e-19)
(0.0300352 -0.0124519 3.91252e-19)
(0.042923 -0.0160461 9.60768e-20)
(-0.00758374 0.0140742 6.7497e-20)
(-0.0136957 0.0246647 1.25187e-20)
(-0.0134291 0.0257004 -1.17119e-18)
(-0.00792071 0.0215113 -6.55218e-19)
(0.00173556 0.0144919 7.8162e-19)
(0.0145785 0.00611539 -9.1531e-19)
(0.0298492 -0.00258966 1.04885e-18)
(0.0470084 -0.010714 -9.0598e-20)
(0.0655389 -0.0172483 -2.95075e-19)
(0.0837985 -0.0214695 -8.57616e-19)
(-0.0085878 0.014304 -1.46871e-19)
(-0.0128317 0.0240055 -2.68247e-19)
(-0.00771332 0.0243086 -3.29555e-19)
(0.00407929 0.0196268 7.03031e-19)
(0.0206595 0.0123268 1.30412e-18)
(0.0406175 0.00378468 -2.69543e-19)
(0.0629138 -0.00513205 -6.5602e-19)
(0.0869286 -0.0136318 2.00087e-19)
(0.112249 -0.020614 -1.26006e-18)
(0.136672 -0.0252821 1.38407e-18)
(-0.00878372 0.0134241 8.9827e-19)
(-0.00932802 0.0210859 -4.90319e-19)
(0.00264609 0.0205022 9.57249e-19)
(0.0227355 0.0158174 -1.56395e-18)
(0.0481732 0.00920558 -7.4728e-19)
(0.0770138 0.00182626 -1.03508e-18)
(0.107829 -0.00579394 3.00719e-19)
(0.139842 -0.0132482 -8.37261e-19)
(0.172876 -0.0195725 1.82327e-18)
(0.204272 -0.0240791 5.1039e-19)
(-0.00768223 0.0113475 6.61293e-20)
(-0.00204465 0.015839 7.98689e-19)
(0.0192553 0.0143224 1.58718e-18)
(0.0500645 0.0103001 4.85007e-19)
(0.0867017 0.0056593 1.43555e-18)
(0.126594 0.00136009 7.86849e-20)
(0.167732 -0.00240708 -7.09217e-22)
(0.208919 -0.00569221 5.78752e-19)
(0.250232 -0.00783842 4.68105e-19)
(0.289113 -0.009262 -1.51927e-18)
(-0.00477046 0.00808576 -5.32099e-19)
(0.0101469 0.0083845 -8.91188e-19)
(0.0436435 0.00593785 -1.29538e-18)
(0.0879959 0.0032091 3.0611e-20)
(0.138749 0.0017569 -6.60369e-19)
(0.192804 0.00254293 1.04082e-18)
(0.247586 0.00588949 -2.86548e-18)
(0.301159 0.0120154 1.28647e-18)
(0.352881 0.0215154 4.83549e-19)
(0.400028 0.0302481 1.51713e-18)
(0.000388683 0.00380852 2.66173e-19)
(0.0281179 -0.000874426 -1.01894e-18)
(0.0768093 -0.00427284 9.09816e-19)
(0.137563 -0.00546141 -3.52977e-19)
(0.205553 -0.00344239 3.83943e-19)
(0.277819 0.0027079 8.35868e-19)
(0.352527 0.0137259 -1.12225e-18)
(0.429273 0.0305533 1.45809e-19)
(0.509035 0.0524535 -5.37766e-19)
(0.594169 0.0694539 1.0911e-18)
(0.0080602 -0.00110794 3.81364e-19)
(0.0522601 -0.0110931 -9.23804e-19)
(0.118756 -0.0153294 1.25868e-18)
(0.197748 -0.0150187 -7.83865e-19)
(0.284048 -0.0102793 -2.87556e-19)
(0.374602 -0.000971789 1.70247e-19)
(0.467604 0.0128154 8.80211e-20)
(0.562487 0.0307703 1.19394e-18)
(0.658901 0.0501773 3.4371e-19)
(0.754557 0.0623404 1.46941e-18)
(0.018352 -0.00610194 -3.40399e-19)
(0.0826125 -0.0209185 1.19443e-18)
(0.169007 -0.0252636 -9.96638e-19)
(0.267054 -0.022831 -1.16885e-18)
(0.371087 -0.0151006 1.63535e-18)
(0.477614 -0.0028656 -1.24343e-18)
(0.584238 0.0129433 3.28446e-19)
(0.689404 0.0312141 -1.94708e-18)
(0.791332 0.0492643 1.4585e-18)
(0.886039 0.0617496 7.28722e-20)
(0.0312702 -0.0105458 -4.43622e-19)
(0.118976 -0.0287937 -4.28431e-19)
(0.226869 -0.0317842 -9.1231e-19)
(0.344062 -0.0258912 1.10583e-18)
(0.464446 -0.0140392 -5.58542e-20)
(0.584059 0.00207635 7.14919e-19)
(0.699967 0.0208543 1.30421e-18)
(0.809928 0.0407968 -4.00789e-19)
(0.911575 0.0598094 -1.4176e-18)
(1.0009 0.0748785 2.81449e-18)
(0.0467452 -0.0138316 -2.29305e-19)
(0.16091 -0.0332167 -2.73515e-19)
(0.291339 -0.03278 4.92212e-19)
(0.427113 -0.0216645 -9.1489e-19)
(0.561883 -0.00426152 1.56304e-19)
(0.691439 0.0168805 1.39095e-19)
(0.812661 0.039613 6.1e-20)
(0.923199 0.0622304 -9.85865e-21)
(1.02086 0.0832295 -1.49426e-19)
(1.10226 0.100992 -2.37938e-18)
(0.0646184 -0.0153976 9.30815e-19)
(0.207682 -0.0328631 -6.49605e-19)
(0.360982 -0.0265371 8.30768e-21)
(0.514052 -0.00833832 -9.89342e-19)
(0.660652 0.0159069 -3.53958e-19)
(0.7967 0.0428758 3.30956e-19)
(0.919359 0.0699943 2.57015e-19)
(1.02673 0.0954718 -9.15863e-19)
(1.11735 0.118343 7.48588e-19)
(1.18885 0.137793 -9.81504e-19)
(0.0846109 -0.0147325 4.01744e-19)
(0.258228 -0.0266431 -3.57043e-19)
(0.433899 -0.0118354 1.48301e-18)
(0.602223 0.015101 1.51203e-19)
(0.757549 0.0470193 3.47494e-19)
(0.89641 0.0799696 1.54879e-18)
(1.01678 0.111131 -2.36812e-19)
(1.11772 0.138798 2.1577e-19)
(1.19888 0.162564 8.93471e-20)
(1.25919 0.182097 -1.09969e-19)
(0.106293 -0.0113861 2.80676e-19)
(0.31114 -0.0137427 6.7481e-19)
(0.507779 0.0120121 -7.22883e-19)
(0.688607 0.0488896 -2.44722e-19)
(0.849157 0.0886661 -3.02307e-19)
(0.987142 0.127018 4.68411e-19)
(1.10185 0.161148 -2.43644e-19)
(1.19374 0.189675 6.55496e-19)
(1.26384 0.212847 2.20581e-19)
(1.31249 0.230667 -3.59616e-19)
(0.129071 -0.00499455 -3.02463e-19)
(0.364701 0.00632851 2.68841e-19)
(0.580014 0.0451371 -5.73656e-19)
(0.770037 0.092543 2.47447e-19)
(0.932157 0.139656 -2.56758e-19)
(1.06583 0.182158 -3.20444e-19)
(1.17213 0.217628 -2.57328e-19)
(1.25319 0.245301 2.8758e-19)
(1.3115 0.266204 -5.422e-19)
(1.34885 0.280637 3.27669e-19)
(0.152191 0.00468204 -1.07814e-19)
(0.416945 0.0336823 -2.10896e-19)
(0.647852 0.0871018 1.00428e-19)
(0.84343 0.144924 6.1918e-21)
(1.0036 0.198186 8.3329e-20)
(1.13007 0.243068 1.1432e-19)
(1.22601 0.277938 1.05949e-19)
(1.29535 0.302935 -1.40493e-19)
(1.34201 0.31998 1.19606e-19)
(1.36911 0.329676 -1.87177e-19)
(0.174775 0.017719 -6.2409e-20)
(0.465772 0.0680015 -2.34114e-20)
(0.708577 0.1369 9.31611e-20)
(0.906006 0.204326 -4.28881e-20)
(1.0611 0.262007 1.14309e-19)
(1.17821 0.307192 -1.47593e-19)
(1.26274 0.33945 3.42079e-20)
(1.32037 0.360077 3.67045e-20)
(1.35627 0.371952 -1.53844e-20)
(1.37464 0.375987 5.82064e-20)
(0.195856 0.0339917 -6.73276e-20)
(0.509069 0.10851 -3.04676e-19)
(0.759689 0.192986 -2.11022e-20)
(0.955467 0.268575 6.27142e-21)
(1.10299 0.328579 -3.96269e-19)
(1.20943 0.371907 5.23873e-20)
(1.28239 0.399693 -4.46e-20)
(1.3291 0.414557 -1.07575e-19)
(1.35567 0.42033 2.24275e-19)
(1.36714 0.418232 -4.0892e-19)
(0.214444 0.0531504 -3.25169e-20)
(0.54485 0.15397 6.17056e-19)
(0.799063 0.253335 9.94242e-20)
(0.990133 0.335148 -5.43236e-19)
(1.12837 0.395217 -4.40512e-20)
(1.22372 0.434653 -5.20568e-19)
(1.28574 0.456425 3.81585e-19)
(1.32289 0.464539 -1.38445e-19)
(1.34191 0.463703 2.45594e-19)
(1.34841 0.45542 -1.79439e-19)
(0.229586 0.0746121 -2.05051e-19)
(0.571392 0.202718 1.95837e-19)
(0.825092 0.315541 -1.41352e-19)
(1.00902 0.401307 1.06544e-18)
(1.13708 0.459222 5.25825e-19)
(1.22172 0.493027 -1.21913e-19)
(1.27409 0.507671 4.10713e-19)
(1.30345 0.508499 -2.70251e-19)
(1.31688 0.500956 -7.52865e-20)
(1.32028 0.486799 4.93966e-19)
(0.240435 0.0975683 -3.54915e-19)
(0.587355 0.252731 4.51647e-19)
(0.836772 0.376931 -8.88608e-19)
(1.01185 0.464233 1.24791e-19)
(1.12966 0.51799 2.78861e-19)
(1.20468 0.544843 -4.27647e-19)
(1.24914 0.551725 -4.97907e-19)
(1.27272 0.545172 2.18553e-19)
(1.28252 0.531184 -2.63162e-19)
(1.28453 0.511755 3.15938e-19)
(0.246311 0.121012 -8.96743e-20)
(0.591872 0.301725 -4.59565e-19)
(0.833754 0.434707 2.54251e-19)
(0.999029 0.521159 4.26361e-19)
(1.10725 0.569097 -2.564e-19)
(1.17428 0.588156 -1.91024e-19)
(1.21287 0.587119 -1.04299e-19)
(1.23273 0.573484 -5.15616e-20)
(1.24077 0.553598 1.07858e-20)
(1.24291 0.52972 1.07507e-19)
(0.246758 0.143785 6.58181e-20)
(0.584617 0.347278 -3.85617e-19)
(0.816339 0.486098 6.43162e-19)
(0.971581 0.569494 -3.81066e-19)
(1.07145 0.610386 1.06475e-19)
(1.13247 0.621291 -1.51051e-19)
(1.16741 0.612602 1.62613e-19)
(1.18559 0.592496 3.11454e-20)
(1.19356 0.567431 -7.80186e-20)
(1.19711 0.540022 1.51531e-19)
(0.241593 0.164635 -1.73025e-19)
(0.565832 0.386974 3.38031e-19)
(0.785448 0.528508 -1.52033e-20)
(0.931025 0.60695 -7.32219e-20)
(1.02419 0.640034 -2.01308e-19)
(1.08145 0.642882 2.48048e-20)
(1.11501 0.627183 6.15369e-20)
(1.1335 0.601458 -1.51525e-19)
(1.14302 0.571983 1.76974e-19)
(1.1492 0.541879 1.5033e-19)
(0.230935 0.18231 3.84258e-20)
(0.536325 0.418561 -8.0927e-20)
(0.742531 0.559669 2.42482e-20)
(0.879239 0.631621 1.24398e-20)
(0.967553 0.656554 7.79798e-20)
(1.02334 0.651785 -1.4407e-19)
(1.05788 0.629967 -3.01355e-19)
(1.07891 0.599657 -1.22932e-19)
(1.09213 0.566623 -1.57126e-19)
(1.10255 0.534701 1.3313e-19)
(0.21523 0.195653 1.10789e-19)
(0.497429 0.44013 -1.71725e-19)
(0.689467 0.577805 1.6575e-19)
(0.818263 0.64211 -3.14837e-19)
(0.903421 0.658818 7.63861e-20)
(0.959695 0.646834 5.16206e-19)
(0.997277 0.619363 -1.58295e-19)
(1.02316 0.584703 1.88173e-19)
(1.04271 0.548005 2.75481e-19)
(1.05903 0.515028 1.002e-18)
(0.195249 0.203726 6.80465e-19)
(0.450967 0.450295 -4.63022e-19)
(0.628513 0.581864 1.12683e-18)
(0.750268 0.637905 -1.92984e-19)
(0.833389 0.646758 9.66777e-19)
(0.891057 0.628052 6.06548e-19)
(0.93231 0.594737 -1.42499e-18)
(0.96357 0.55388 2.16352e-18)
(0.989456 0.507899 -4.57216e-19)
(1.00632 0.461007 8.99681e-19)
(0.17205 0.205874 -3.75361e-19)
(0.399204 0.448254 -2.67608e-19)
(0.562391 0.571529 2.58804e-19)
(0.677928 0.619481 -6.41014e-19)
(0.759661 0.622009 -2.00217e-18)
(0.818699 0.598991 -8.05201e-19)
(0.862692 0.563188 -7.25751e-19)
(0.897113 0.521741 3.51223e-19)
(0.925116 0.478159 2.92727e-18)
(0.942605 0.437392 -6.08909e-19)
(0.146894 0.201721 1.97538e-19)
(0.344727 0.433649 -7.99431e-19)
(0.494241 0.546774 1.75834e-19)
(0.604666 0.587133 -1.28048e-18)
(0.686058 0.585016 2.80349e-18)
(0.747292 0.559929 -3.24926e-19)
(0.794583 0.52408 1.52765e-18)
(0.832423 0.484256 -2.18835e-18)
(0.863341 0.443962 6.8654e-19)
(0.884648 0.407477 1.06207e-19)
(0.121118 0.191156 1.4562e-19)
(0.290163 0.40655 8.8173e-19)
(0.427119 0.507894 -2.58996e-18)
(0.533587 0.541229 1.26029e-18)
(0.615632 0.535982 -4.16091e-21)
(0.679887 0.510616 -4.25288e-19)
(0.731204 0.476429 5.35228e-19)
(0.773235 0.439624 -5.31934e-19)
(0.808164 0.403351 -1.82851e-18)
(0.834247 0.370865 -5.01007e-19)
(0.0960486 0.174334 4.7648e-19)
(0.238033 0.367474 5.34623e-19)
(0.363854 0.455615 2.20822e-18)
(0.467419 0.482513 -1.22844e-18)
(0.550831 0.4755 2.53214e-18)
(0.618565 0.451352 -5.45426e-19)
(0.674213 0.420139 -5.76535e-19)
(0.720699 0.387299 6.81307e-19)
(0.759931 0.355514 4.4421e-19)
(0.790869 0.327125 1.6106e-18)
(0.0729448 0.15167 -4.8356e-19)
(0.190664 0.317376 1.57842e-19)
(0.306988 0.391111 4.26869e-20)
(0.408535 0.412151 1.25235e-18)
(0.493702 0.404588 -3.12607e-18)
(0.56499 0.382953 5.31054e-19)
(0.624864 0.35582 1.17263e-18)
(0.675617 0.327751 -1.41765e-18)
(0.718933 0.30091 4.99431e-19)
(0.754394 0.276898 -2.31789e-18)
(0.0529468 0.123826 1.0305e-19)
(0.150114 0.257626 5.55921e-19)
(0.258722 0.315974 2.16216e-19)
(0.358945 0.331692 2.93022e-19)
(0.445941 0.324635 5.61474e-19)
(0.520504 0.306609 1.67169e-18)
(0.584154 0.284488 -2.04677e-18)
(0.638655 0.261882 -1.1528e-18)
(0.685522 0.240441 1.9104e-19)
(0.724903 0.221195 1.50298e-18)
(0.0370318 0.0916908 -6.23151e-19)
(0.118111 0.189953 -7.41314e-20)
(0.220874 0.23216 -6.2098e-19)
(0.320288 0.243022 8.84369e-20)
(0.408909 0.237333 -5.31594e-19)
(0.486184 0.2238 -6.0691e-19)
(0.55289 0.207442 -9.0445e-19)
(0.610384 0.190868 2.43725e-18)
(0.660066 0.175233 4.20486e-19)
(0.702561 0.161149 -6.40957e-19)
(0.0259729 0.0563424 3.35847e-19)
(0.0960029 0.116392 4.43912e-19)
(0.194847 0.141927 1.74894e-19)
(0.293812 0.148292 -9.43903e-19)
(0.38364 0.144613 -4.39429e-19)
(0.462844 0.136226 -9.4624e-20)
(0.531693 0.126185 1.84898e-19)
(0.591264 0.116066 1.48465e-19)
(0.642892 0.106552 -1.14804e-18)
(0.687548 0.0979586 6.58767e-19)
(0.0203063 0.0190052 -1.74895e-19)
(0.084714 0.0392055 -1.98972e-19)
(0.181592 0.047752 1.58584e-19)
(0.280362 0.0498476 1.40795e-19)
(0.370831 0.0485767 1.44295e-19)
(0.451036 0.045736 2.20675e-19)
(0.520987 0.0423507 -1.16023e-20)
(0.581621 0.0389482 -2.89467e-19)
(0.634242 0.0357541 2.74962e-19)
(0.680003 0.0328651 -4.13692e-19)
(0.0203063 -0.0190052 -1.76045e-19)
(0.084714 -0.0392056 -1.89616e-19)
(0.181592 -0.0477521 1.74745e-19)
(0.280362 -0.0498478 3.42134e-19)
(0.370831 -0.0485769 2.27968e-19)
(0.451036 -0.0457362 -3.00378e-19)
(0.520987 -0.0423509 -1.63223e-19)
(0.581621 -0.0389484 7.11806e-20)
(0.634242 -0.0357543 1.60033e-19)
(0.680003 -0.0328653 -9.52972e-20)
(0.0259729 -0.0563424 4.20122e-19)
(0.0960029 -0.116392 -5.3393e-19)
(0.194847 -0.141927 -4.44096e-20)
(0.293812 -0.148292 2.95834e-19)
(0.38364 -0.144614 -1.33752e-18)
(0.462844 -0.136227 5.71508e-19)
(0.531693 -0.126185 5.8996e-19)
(0.591264 -0.116066 -6.96474e-19)
(0.642892 -0.106552 6.65299e-19)
(0.687548 -0.0979587 -2.92006e-19)
(0.0370318 -0.0916908 -7.26359e-20)
(0.118111 -0.189953 -9.26704e-21)
(0.220874 -0.23216 -1.44218e-18)
(0.320288 -0.243022 -4.58787e-19)
(0.408909 -0.237333 -4.83721e-20)
(0.486184 -0.2238 -7.54747e-19)
(0.55289 -0.207442 1.40629e-18)
(0.610384 -0.190868 -4.94209e-20)
(0.660066 -0.175233 8.03023e-19)
(0.702561 -0.161149 -7.06084e-19)
(0.0529469 -0.123826 1.22673e-19)
(0.150114 -0.257626 -5.67947e-19)
(0.258722 -0.315974 1.74758e-18)
(0.358945 -0.331692 2.47299e-19)
(0.445941 -0.324635 1.21578e-18)
(0.520504 -0.306609 -1.18859e-18)
(0.584154 -0.284488 1.24778e-18)
(0.638655 -0.261882 -8.99614e-19)
(0.685522 -0.240441 -3.95066e-19)
(0.724903 -0.221195 3.35615e-19)
(0.0729448 -0.15167 1.09541e-18)
(0.190664 -0.317377 2.80495e-21)
(0.306988 -0.391112 -1.84178e-18)
(0.408535 -0.412151 -5.34359e-19)
(0.493702 -0.404589 1.77429e-18)
(0.56499 -0.382954 -1.03984e-18)
(0.624864 -0.355821 -1.2038e-18)
(0.675617 -0.327751 1.08311e-18)
(0.718933 -0.300911 -7.37382e-19)
(0.754394 -0.276898 -1.58974e-19)
(0.0960486 -0.174334 -1.63517e-19)
(0.238033 -0.367474 -7.7559e-21)
(0.363854 -0.455615 1.99878e-18)
(0.467419 -0.482513 1.14608e-18)
(0.550831 -0.4755 -1.3515e-18)
(0.618565 -0.451352 1.63638e-18)
(0.674213 -0.420139 -1.77566e-18)
(0.720699 -0.387299 1.76701e-19)
(0.759931 -0.355515 5.2888e-19)
(0.790869 -0.327125 1.22377e-18)
(0.121118 -0.191156 1.87439e-19)
(0.290163 -0.40655 3.01847e-19)
(0.427119 -0.507894 3.2834e-19)
(0.533587 -0.541229 -1.05558e-18)
(0.615632 -0.535983 -1.8803e-18)
(0.679887 -0.510616 3.95966e-19)
(0.731204 -0.47643 1.14585e-18)
(0.773236 -0.439624 -3.27996e-19)
(0.808165 -0.403352 1.97471e-18)
(0.834247 -0.370865 -1.92479e-18)
(0.146894 -0.201721 -1.06107e-18)
(0.344727 -0.433649 4.07728e-19)
(0.494241 -0.546774 -1.10093e-18)
(0.604666 -0.587133 1.77982e-18)
(0.686058 -0.585016 8.89983e-19)
(0.747292 -0.559929 1.25656e-18)
(0.794583 -0.52408 -2.90795e-19)
(0.832423 -0.484257 1.14574e-18)
(0.863341 -0.443962 -2.42575e-18)
(0.884648 -0.407477 -6.32411e-19)
(0.17205 -0.205874 6.24627e-20)
(0.399204 -0.448254 -7.12842e-19)
(0.562391 -0.571529 -1.14141e-18)
(0.677928 -0.619481 -4.83606e-19)
(0.759661 -0.622009 -1.36659e-18)
(0.818699 -0.598991 -1.38992e-19)
(0.862692 -0.563188 1.18832e-19)
(0.897113 -0.521741 -5.3402e-19)
(0.925117 -0.478159 -5.968e-19)
(0.942605 -0.437392 1.57391e-18)
(0.195249 -0.203726 3.35419e-19)
(0.450967 -0.450296 4.68417e-19)
(0.628513 -0.581864 8.39156e-19)
(0.750268 -0.637905 3.72162e-20)
(0.833389 -0.646759 5.59893e-19)
(0.891057 -0.628052 -7.66692e-19)
(0.93231 -0.594737 2.34079e-18)
(0.96357 -0.553881 -1.0335e-18)
(0.989456 -0.507899 -5.07572e-19)
(1.00632 -0.461007 -1.53054e-18)
(0.21523 -0.195653 -1.32115e-19)
(0.49743 -0.44013 2.33404e-19)
(0.689467 -0.577805 -2.39181e-19)
(0.818263 -0.64211 1.28947e-19)
(0.903421 -0.658818 -1.52379e-19)
(0.959695 -0.646834 -3.90805e-19)
(0.997278 -0.619363 5.14083e-19)
(1.02316 -0.584703 -1.68155e-19)
(1.04271 -0.548005 2.60873e-19)
(1.05903 -0.515028 -5.6926e-19)
(0.230935 -0.18231 -7.39267e-21)
(0.536325 -0.418562 -1.0646e-19)
(0.742531 -0.559669 2.11699e-20)
(0.879239 -0.631621 1.44575e-19)
(0.967553 -0.656554 -6.53309e-20)
(1.02334 -0.651785 1.75394e-20)
(1.05788 -0.629967 -1.71897e-20)
(1.07891 -0.599657 -3.83369e-19)
(1.09213 -0.566623 -1.77961e-19)
(1.10255 -0.534701 -5.59993e-19)
(0.241593 -0.164635 -9.61282e-20)
(0.565832 -0.386974 3.39233e-19)
(0.785448 -0.528508 -2.10752e-19)
(0.931025 -0.60695 -7.59519e-20)
(1.02419 -0.640034 3.39094e-20)
(1.08145 -0.642882 7.15243e-20)
(1.11501 -0.627184 -7.02368e-21)
(1.1335 -0.601458 2.92467e-19)
(1.14302 -0.571983 -2.52727e-19)
(1.1492 -0.541879 -3.58078e-21)
(0.246759 -0.143785 -2.36704e-19)
(0.584617 -0.347278 -1.48237e-19)
(0.816339 -0.486098 -3.68095e-19)
(0.971581 -0.569494 4.1872e-19)
(1.07145 -0.610386 -3.07021e-20)
(1.13247 -0.621291 1.361e-19)
(1.16741 -0.612602 1.53588e-19)
(1.18559 -0.592496 -5.58713e-20)
(1.19356 -0.567431 5.05026e-20)
(1.19711 -0.540022 -1.59898e-19)
(0.246311 -0.121013 -1.61017e-19)
(0.591872 -0.301725 -2.06832e-19)
(0.833754 -0.434707 3.11655e-19)
(0.999029 -0.521159 -4.68254e-19)
(1.10725 -0.569097 8.22571e-20)
(1.17428 -0.588156 4.15733e-20)
(1.21287 -0.587119 9.19866e-20)
(1.23273 -0.573485 -6.04728e-20)
(1.24077 -0.553598 -7.24204e-20)
(1.24291 -0.52972 -2.35866e-19)
(0.240435 -0.0975684 6.71296e-19)
(0.587355 -0.252731 -5.25369e-19)
(0.836772 -0.376931 2.45462e-20)
(1.01185 -0.464233 -6.73195e-19)
(1.12966 -0.51799 -1.95425e-19)
(1.20468 -0.544843 1.56343e-19)
(1.24914 -0.551725 1.14543e-19)
(1.27272 -0.545172 -3.82061e-19)
(1.28252 -0.531184 1.67683e-19)
(1.28453 -0.511755 -3.02425e-19)
(0.229586 -0.0746121 3.33147e-19)
(0.571392 -0.202718 -3.29718e-19)
(0.825092 -0.315541 1.18316e-18)
(1.00902 -0.401307 9.43459e-20)
(1.13708 -0.459223 2.68322e-19)
(1.22172 -0.493028 9.57149e-19)
(1.27409 -0.507671 -1.98961e-19)
(1.30345 -0.508499 4.83138e-20)
(1.31688 -0.500956 -2.84389e-20)
(1.32028 -0.486799 -4.95284e-20)
(0.214444 -0.0531504 2.56805e-19)
(0.54485 -0.15397 5.83527e-19)
(0.799063 -0.253335 -5.94775e-19)
(0.990133 -0.335148 -1.80661e-19)
(1.12837 -0.395217 -1.91267e-19)
(1.22372 -0.434653 3.76543e-19)
(1.28574 -0.456425 -1.77682e-19)
(1.32289 -0.464539 4.18932e-19)
(1.34191 -0.463703 1.00804e-19)
(1.34841 -0.455421 -1.77284e-19)
(0.195856 -0.0339917 -2.77402e-19)
(0.509069 -0.10851 2.57423e-19)
(0.759689 -0.192986 -5.28491e-19)
(0.955467 -0.268575 2.21265e-19)
(1.10299 -0.328579 -2.21762e-19)
(1.20943 -0.371907 -2.63696e-19)
(1.28239 -0.399693 -2.04602e-19)
(1.3291 -0.414557 2.25738e-19)
(1.35567 -0.42033 -3.92357e-19)
(1.36714 -0.418232 2.48386e-19)
(0.174775 -0.017719 -1.03925e-19)
(0.465772 -0.0680015 -2.03935e-19)
(0.708578 -0.1369 9.59353e-20)
(0.906006 -0.204326 7.08307e-21)
(1.0611 -0.262007 7.63529e-20)
(1.17821 -0.307192 1.09396e-19)
(1.26274 -0.33945 9.3149e-20)
(1.32037 -0.360077 -1.2603e-19)
(1.35627 -0.371952 1.02736e-19)
(1.37464 -0.375987 -1.62285e-19)
(0.152191 -0.00468204 -6.54858e-20)
(0.416945 -0.0336823 -2.63952e-20)
(0.647852 -0.0871018 9.83493e-20)
(0.843431 -0.144924 -4.43696e-20)
(1.0036 -0.198186 1.2417e-19)
(1.13007 -0.243068 -1.56951e-19)
(1.22601 -0.277938 4.03216e-20)
(1.29535 -0.302935 3.46032e-20)
(1.34201 -0.31998 -1.23615e-20)
(1.36911 -0.329676 5.67347e-20)
(0.129071 0.00499455 -7.85608e-20)
(0.364701 -0.00632851 -3.33061e-19)
(0.580014 -0.0451371 -2.68241e-20)
(0.770037 -0.092543 1.07068e-20)
(0.932158 -0.139656 -4.61989e-19)
(1.06583 -0.182158 4.87856e-20)
(1.17213 -0.217628 -5.16875e-20)
(1.25319 -0.245301 -1.40585e-19)
(1.3115 -0.266204 3.11069e-19)
(1.34885 -0.280637 -5.65931e-19)
(0.106293 0.0113861 -4.45384e-20)
(0.31114 0.0137428 7.14363e-19)
(0.507779 -0.0120121 9.52791e-20)
(0.688607 -0.0488896 -6.4531e-19)
(0.849157 -0.0886661 -7.72718e-20)
(0.987142 -0.127018 -7.27702e-19)
(1.10185 -0.161148 5.65836e-19)
(1.19374 -0.189675 -2.29657e-19)
(1.26384 -0.212846 4.35298e-19)
(1.31249 -0.230667 -3.84019e-19)
(0.0846109 0.0147325 -2.51896e-19)
(0.258228 0.0266431 2.93297e-19)
(0.433899 0.0118354 -2.04869e-19)
(0.602223 -0.015101 1.41611e-18)
(0.757549 -0.0470193 7.49594e-19)
(0.896411 -0.0799696 -1.96286e-19)
(1.01678 -0.111131 7.63241e-19)
(1.11772 -0.138798 -4.99034e-19)
(1.19888 -0.162564 -1.60482e-19)
(1.25919 -0.182097 1.15951e-18)
(0.0646184 0.0153976 -4.65666e-19)
(0.207682 0.0328631 6.95266e-19)
(0.360982 0.0265371 -1.31852e-18)
(0.514052 0.00833834 2.28231e-19)
(0.660652 -0.0159069 5.69048e-19)
(0.7967 -0.0428758 -7.15099e-19)
(0.919359 -0.0699943 -1.26652e-18)
(1.02673 -0.0954717 6.78962e-19)
(1.11735 -0.118343 -8.83002e-19)
(1.18885 -0.137793 1.41309e-18)
(0.0467452 0.0138316 -1.15116e-19)
(0.16091 0.0332167 -6.99805e-19)
(0.291339 0.03278 3.45453e-19)
(0.427113 0.0216645 8.64153e-19)
(0.561883 0.00426154 -4.64181e-19)
(0.691439 -0.0168805 -4.58077e-19)
(0.812662 -0.039613 -7.76648e-19)
(0.923199 -0.0622303 -3.55878e-19)
(1.02086 -0.0832295 -8.54665e-20)
(1.10226 -0.100992 1.4122e-18)
(0.0312702 0.0105458 1.93283e-19)
(0.118976 0.0287937 -9.50653e-19)
(0.226869 0.0317842 1.62604e-18)
(0.344062 0.0258912 -9.0544e-19)
(0.464446 0.0140393 5.86633e-19)
(0.584059 -0.00207632 -7.29948e-19)
(0.699967 -0.0208543 8.12986e-19)
(0.809928 -0.0407968 7.10028e-19)
(0.911576 -0.0598093 1.55132e-18)
(1.0009 -0.0748784 -2.56469e-18)
(0.018352 0.00610193 -6.0058e-19)
(0.0826125 0.0209185 1.20597e-18)
(0.169007 0.0252636 1.60936e-20)
(0.267054 0.022831 -4.34378e-19)
(0.371087 0.0151006 -2.30674e-19)
(0.477614 0.00286561 1.84367e-19)
(0.584238 -0.0129433 -1.30891e-18)
(0.689404 -0.031214 1.01127e-18)
(0.791332 -0.0492643 -1.30333e-18)
(0.88604 -0.0617495 -5.94914e-19)
(0.00806019 0.00110793 1.03348e-18)
(0.0522601 0.0110931 -3.22397e-19)
(0.118756 0.0153294 -6.04769e-19)
(0.197748 0.0150187 1.64253e-18)
(0.284048 0.0102793 -1.61348e-18)
(0.374603 0.000971788 9.01468e-19)
(0.467605 -0.0128154 9.60103e-19)
(0.562487 -0.0307703 2.62726e-19)
(0.658901 -0.0501772 2.7325e-19)
(0.754557 -0.0623404 -3.87624e-19)
(0.000388676 -0.00380853 -9.88387e-19)
(0.0281179 0.000874401 9.39447e-19)
(0.0768094 0.00427281 -8.31376e-19)
(0.137563 0.00546137 1.04308e-18)
(0.205553 0.00344235 -3.11633e-19)
(0.277819 -0.00270792 -1.0823e-18)
(0.352527 -0.0137259 3.10375e-19)
(0.429273 -0.0305533 -5.1209e-19)
(0.509035 -0.0524534 -6.06527e-19)
(0.594169 -0.0694539 -1.8922e-18)
(-0.00477047 -0.00808578 -1.23468e-18)
(0.0101469 -0.00838454 9.81592e-19)
(0.0436435 -0.0059379 -1.92324e-18)
(0.0879959 -0.00320917 3.43907e-19)
(0.138749 -0.00175697 -1.33239e-18)
(0.192804 -0.002543 -7.991e-19)
(0.247586 -0.00588955 1.91234e-18)
(0.30116 -0.0120154 -2.61444e-18)
(0.352881 -0.0215154 5.03225e-19)
(0.400028 -0.0302481 -8.28664e-19)
(-0.00768224 -0.0113475 6.08185e-19)
(-0.00204468 -0.015839 2.5733e-19)
(0.0192553 -0.0143225 -7.65391e-20)
(0.0500645 -0.0103002 7.30847e-19)
(0.0867018 -0.00565941 2.14608e-18)
(0.126594 -0.0013602 7.40703e-19)
(0.167732 0.00240698 7.65349e-19)
(0.208919 0.00569213 -2.64639e-19)
(0.250232 0.00783834 -2.46852e-18)
(0.289114 0.00926194 6.26042e-19)
(-0.00878374 -0.0134242 -1.71696e-19)
(-0.00932805 -0.021086 5.46475e-19)
(0.00264607 -0.0205023 -1.43158e-19)
(0.0227355 -0.0158175 1.0108e-18)
(0.0481733 -0.00920573 -2.33706e-18)
(0.0770139 -0.00182641 1.98369e-19)
(0.107829 0.0057938 -1.11226e-18)
(0.139842 0.0132481 1.63666e-18)
(0.172876 0.0195724 -4.78385e-19)
(0.204272 0.024079 -6.83587e-20)
(-0.00858782 -0.014304 -1.16885e-19)
(-0.0128318 -0.0240056 -6.572e-19)
(-0.00771335 -0.0243087 1.65281e-18)
(0.00407929 -0.0196269 -8.71449e-19)
(0.0206595 -0.012327 6.12485e-20)
(0.0406176 -0.00378488 2.79663e-19)
(0.0629139 0.00513186 -2.55578e-19)
(0.0869288 0.0136317 3.3216e-19)
(0.112249 0.0206139 1.15098e-18)
(0.136673 0.0252819 3.01187e-19)
(-0.00758377 -0.0140743 -2.62164e-19)
(-0.0136957 -0.0246649 -2.916e-19)
(-0.0134291 -0.0257006 -1.29432e-18)
(-0.00792071 -0.0215115 6.89179e-19)
(0.00173558 -0.0144922 -1.4215e-18)
(0.0145786 -0.00611563 3.22935e-19)
(0.0298493 0.00258943 3.63117e-19)
(0.0470085 0.0107138 -3.83741e-19)
(0.0655391 0.0172481 -2.48273e-19)
(0.0837987 0.0214693 -1.1158e-18)
(-0.00618706 -0.0128748 2.04799e-19)
(-0.0129399 -0.0232573 -4.81728e-20)
(-0.0159822 -0.0247664 9.78716e-22)
(-0.0151343 -0.0213427 -6.21998e-19)
(-0.0108146 -0.0152251 1.57456e-18)
(-0.00361584 -0.00783546 -2.45593e-19)
(0.00591816 -0.000196487 -6.12887e-19)
(0.0173137 0.00683832 7.50146e-19)
(0.0300353 0.0124517 -2.63614e-19)
(0.0429232 0.0160459 1.45709e-18)
(-0.00472404 -0.010868 -3.84395e-20)
(-0.0114034 -0.0200603 -2.25369e-19)
(-0.0166177 -0.0217189 -8.89467e-20)
(-0.0191361 -0.0191491 -1.13633e-19)
(-0.018832 -0.0142675 -2.44308e-19)
(-0.0160035 -0.00831159 -7.67217e-19)
(-0.0110227 -0.00217626 9.59694e-19)
(-0.00429647 0.00342947 5.60607e-19)
(0.0036628 0.00789584 -1.00427e-19)
(0.0120631 0.0107637 -8.93746e-19)
(-0.00343575 -0.0082249 2.18285e-19)
(-0.00972808 -0.0154096 3.81456e-20)
(-0.0163015 -0.0168861 2.58201e-19)
(-0.0211436 -0.0151402 -2.95521e-20)
(-0.0237175 -0.0116332 2.3511e-19)
(-0.0240981 -0.00731684 2.65259e-19)
(-0.0225237 -0.00287688 3.97676e-19)
(-0.0193384 0.00116385 -1.12655e-18)
(-0.0150201 0.00438857 -2.07925e-19)
(-0.010103 0.00647368 3.72646e-19)
(-0.00248969 -0.00512135 -1.10222e-19)
(-0.00837066 -0.00968553 -1.5666e-19)
(-0.0157252 -0.0106975 -7.53633e-20)
(-0.022025 -0.00969738 3.68611e-19)
(-0.0264593 -0.00759815 1.78925e-19)
(-0.0289517 -0.00499667 3.66935e-20)
(-0.0296475 -0.00232127 -7.95543e-20)
(-0.0288423 0.000109744 -6.17122e-20)
(-0.0269846 0.00205466 5.29713e-19)
(-0.0244467 0.00332101 -3.60774e-19)
(-0.00199122 -0.0017384 5.61899e-20)
(-0.00762156 -0.00330266 6.99163e-20)
(-0.0153301 -0.00366195 -5.9617e-20)
(-0.0223323 -0.00333765 -5.45289e-20)
(-0.0276804 -0.00264001 -5.65383e-20)
(-0.0312213 -0.00177217 -9.02156e-20)
(-0.0330527 -0.000879526 2.89767e-21)
(-0.0334436 -6.87833e-05 1.25173e-19)
(-0.0328262 0.000580932 -1.25683e-19)
(-0.0314952 0.00100573 2.28671e-19)
(-0.0081352 -0.00258564 1.65342e-20)
(0.0621212 -0.00662656 9.88735e-21)
(0.277545 -0.00670954 1.33754e-21)
(0.376954 -0.00438873 -9.02392e-22)
(0.479666 -0.00368344 -6.35413e-23)
(0.553545 -0.00263976 1.48039e-22)
(0.606041 -0.00218574 1.66306e-22)
(0.660334 -0.00157972 -3.39897e-23)
(0.683568 -0.00145946 -2.49074e-24)
(0.733792 -0.00100766 2.43894e-22)
(0.00866428 -0.00806042 2.62204e-20)
(0.0773752 -0.0197186 1.25331e-21)
(0.289036 -0.0199757 -1.74799e-20)
(0.385711 -0.013064 1.40442e-20)
(0.486374 -0.01097 8.87136e-22)
(0.55878 -0.00786409 -5.9403e-22)
(0.610312 -0.00651399 6.88627e-22)
(0.663693 -0.00471248 6.96532e-23)
(0.686501 -0.00436266 1.39967e-22)
(0.736015 -0.00301344 -2.23506e-22)
(0.0419687 -0.0144155 2.68567e-20)
(0.107409 -0.0323297 -3.61024e-20)
(0.31159 -0.0327829 1.78689e-20)
(0.402912 -0.0214386 -1.16343e-20)
(0.499557 -0.0180293 8.28211e-22)
(0.569083 -0.0129369 -6.4541e-22)
(0.618728 -0.0107272 -2.56763e-22)
(0.670325 -0.00776557 7.98735e-25)
(0.692298 -0.00720003 -1.07189e-22)
(0.74042 -0.00497966 -3.26307e-22)
(0.0911764 -0.0221291 -4.16266e-20)
(0.151302 -0.0441605 -5.01134e-20)
(0.344376 -0.044846 -2.31229e-20)
(0.427951 -0.0293288 1.21276e-20)
(0.518763 -0.0247216 -1.45359e-20)
(0.58413 -0.0177648 3.84415e-21)
(0.631047 -0.0147539 -2.08821e-22)
(0.680058 -0.0106892 1.20678e-22)
(0.700827 -0.00993003 -1.28785e-22)
(0.746926 -0.00688101 1.21105e-22)
(0.155356 -0.0314741 1.15127e-19)
(0.207725 -0.0549235 7.22383e-20)
(0.386207 -0.0559014 2.59798e-20)
(0.45996 -0.0365726 -2.35674e-20)
(0.543346 -0.0309227 1.19318e-20)
(0.603456 -0.022265 3.16008e-21)
(0.646918 -0.0185297 2.20885e-21)
(0.692648 -0.0134384 2.38987e-22)
(0.711897 -0.0125144 2.86019e-22)
(0.755414 -0.00869372 -6.42615e-22)
(0.233227 -0.0423779 -5.08262e-20)
(0.275004 -0.0643036 3.90005e-20)
(0.435603 -0.0656958 4.82044e-21)
(0.497859 -0.0430267 2.62833e-20)
(0.572504 -0.0365261 -5.94621e-21)
(0.626479 -0.026367 -3.68271e-21)
(0.665902 -0.0219995 -2.28166e-21)
(0.707782 -0.0159744 -1.4721e-22)
(0.725264 -0.0149193 -1.55328e-22)
(0.765729 -0.0103962 6.89452e-22)
(0.32316 -0.0545602 -3.86775e-20)
(0.351168 -0.0720363 -1.00778e-19)
(0.490867 -0.0740262 -1.70465e-20)
(0.540412 -0.0485751 -1.46384e-20)
(0.605323 -0.0414489 6.9718e-21)
(0.652535 -0.0300154 -1.94177e-21)
(0.68749 -0.0251191 2.45478e-21)
(0.725098 -0.0182654 4.49145e-22)
(0.740642 -0.0171165 -4.65128e-23)