1.275 	2.15223e-18 	-2.76991e-20 	-0.0324484 	-0.000487406 	-2.03739e-22
1.825 	2.15223e-18 	-1.39322e-20 	-0.0074125 	-0.00294647 	1.81519e-21
2.375 	2.15223e-18 	-2.66896e-23 	0.128762 	-0.00368289 	-7.51831e-22
