1.45 	0 	0 	-0.00813482 	-0.00258635 	1.65344e-20
2.35 	0 	0 	0.0621272 	-0.00662887 	9.88742e-21
