/*--------------------------------*- C++ -*----------------------------------*\
  =========                 |
  \\      /  F ield         | OpenFOAM: The Open Source CFD Toolbox
   \\    /   O peration     | Website:  https://openfoam.org
    \\  /    A nd           | Version:  6.0
     \\/     M anipulation  |
\*---------------------------------------------------------------------------*/
FoamFile
{
    version     2.0;
    format      ascii;
    class       surfaceScalarField;
    location    "0.3";
    object      phi;
}
// * * * * * * * * * * * * * * * * * * * * * * * * * * * * * * * * * * * * * //

dimensions      [0 3 -1 0 0 0 0];

internalField   nonuniform List<scalar> 
1540
(
8.5742e-09
-8.57341e-09
4.91507e-09
3.65923e-09
-1.63287e-08
2.12437e-08
-5.22575e-08
3.59288e-08
-9.84933e-08
4.62357e-08
-1.51135e-07
5.26419e-08
-2.07329e-07
5.61935e-08
-2.65303e-07
5.79748e-08
-3.24171e-07
5.88675e-08
-3.83669e-07
5.94978e-08
-4.43938e-07
6.02694e-08
-5.05356e-07
6.14178e-08
-5.68417e-07
6.30617e-08
-6.33655e-07
6.52376e-08
-7.01574e-07
6.79195e-08
-7.72597e-07
7.10229e-08
-8.46996e-07
7.43987e-08
-9.24815e-07
7.78196e-08
-1.00578e-06
8.09636e-08
-1.08918e-06
8.33964e-08
-1.17373e-06
8.45574e-08
-1.25749e-06
8.37529e-08
-1.33765e-06
8.01646e-08
-1.41053e-06
7.28809e-08
-1.47149e-06
6.09624e-08
-1.51504e-06
4.35516e-08
-1.53508e-06
2.00355e-08
-1.52534e-06
-9.74073e-09
-1.48012e-06
-4.52213e-08
-1.39523e-06
-8.48865e-08
-1.26917e-06
-1.26061e-07
-1.1043e-06
-1.64876e-07
-9.07811e-07
-1.96484e-07
-6.92202e-07
-2.15609e-07
-4.74779e-07
-2.17423e-07
-2.76093e-07
-1.98686e-07
-1.17188e-07
-1.58905e-07
-1.59839e-08
-1.01205e-07
1.79579e-08
-3.39417e-08
1.7958e-08
-3.49366e-09
-5.07972e-09
-3.9233e-08
3.93983e-08
-1.11743e-07
9.37538e-08
-2.15896e-07
1.40082e-07
-3.43744e-07
1.74083e-07
-4.8755e-07
1.96447e-07
-6.41144e-07
2.09787e-07
-8.003e-07
2.17131e-07
-9.62563e-07
2.21131e-07
-1.12686e-06
2.23799e-07
-1.29311e-06
2.26513e-07
-1.46181e-06
2.30124e-07
-1.63383e-06
2.35082e-07
-1.81012e-06
2.41529e-07
-1.99156e-06
2.49355e-07
-2.17875e-06
2.58215e-07
-2.37186e-06
2.67509e-07
-2.5704e-06
2.76357e-07
-2.77299e-06
2.83558e-07
-2.97715e-06
2.87553e-07
-3.179e-06
2.86409e-07
-3.37309e-06
2.77838e-07
-3.55218e-06
2.59261e-07
-3.70726e-06
2.27956e-07
-3.8276e-06
1.81301e-07
-3.90117e-06
1.1713e-07
-3.91536e-06
3.42214e-08
-3.85799e-06
-6.71121e-08
-3.71884e-06
-1.84374e-07
-3.49145e-06
-3.12275e-07
-3.17518e-06
-4.42332e-07
-2.77718e-06
-5.62872e-07
-2.31396e-06
-6.59702e-07
-1.81194e-06
-7.17633e-07
-1.30642e-06
-7.2294e-07
-8.38517e-07
-6.66591e-07
-4.49648e-07
-5.47775e-07
-1.73974e-07
-3.76878e-07
-2.87162e-08
-1.79199e-07
-1.07582e-08
-2.38791e-08
1.87993e-08
-1.02818e-07
1.18337e-07
-2.33692e-07
2.24628e-07
-4.07326e-07
3.13715e-07
-6.12751e-07
3.79509e-07
-8.39738e-07
4.23433e-07
-1.08008e-06
4.50129e-07
-1.32799e-06
4.65037e-07
-1.5799e-06
4.73048e-07
-1.83408e-06
4.77978e-07
-2.09008e-06
4.82512e-07
-2.34831e-06
4.88352e-07
-2.60964e-06
4.96409e-07
-2.87507e-06
5.06963e-07
-3.14547e-06
5.1975e-07
-3.42125e-06
5.34002e-07
-3.70217e-06
5.48423e-07
-3.98696e-06
5.61149e-07
-4.2731e-06
5.69701e-07
-4.5565e-06
5.70952e-07
-4.83123e-06
5.61135e-07
-5.08932e-06
5.35927e-07
-5.32068e-06
4.90621e-07
-5.51316e-06
4.20439e-07
-5.65286e-06
3.21e-07
-5.7247e-06
1.88969e-07
-5.71335e-06
2.28766e-08
-5.60455e-06
-1.75916e-07
-5.38673e-06
-4.0219e-07
-5.05307e-06
-6.45934e-07
-4.60369e-06
-8.91714e-07
-4.04787e-06
-1.11869e-06
-3.40594e-06
-1.30163e-06
-2.71019e-06
-1.41339e-06
-2.00413e-06
-1.429e-06
-1.33934e-06
-1.33138e-06
-7.69284e-07
-1.11783e-06
-3.40447e-07
-8.05716e-07
-8.22863e-08
-4.3736e-07
-9.30448e-08
-4.56814e-08
6.44806e-08
-1.71765e-07
2.44421e-07
-3.64395e-07
4.17258e-07
-6.08146e-07
5.57466e-07
-8.88223e-07
6.59586e-07
-1.19197e-06
7.27184e-07
-1.50961e-06
7.67766e-07
-1.83428e-06
7.89707e-07
-2.16172e-06
8.00487e-07
-2.48972e-06
8.05976e-07
-2.81755e-06
8.10345e-07
-3.14546e-06
8.16266e-07
-3.47422e-06
8.25169e-07
-3.80473e-06
8.37468e-07
-4.13767e-06
8.52688e-07
-4.47319e-06
8.69521e-07
-4.81058e-06
8.85818e-07
-5.14798e-06
8.98545e-07
-5.48203e-06
9.03756e-07
-5.80766e-06
8.96581e-07
-6.11782e-06
8.71296e-07
-6.40338e-06
8.21491e-07
-6.65314e-06
7.40372e-07
-6.85393e-06
6.21237e-07
-6.99109e-06
4.58154e-07
-7.04896e-06
2.46843e-07
-7.01185e-06
-1.42366e-08
-6.86513e-06
-3.2263e-07
-6.59678e-06
-6.70545e-07
-6.19913e-06
-1.04358e-06
-5.67106e-06
-1.41979e-06
-5.02036e-06
-1.76939e-06
-4.26615e-06
-2.05584e-06
-3.44075e-06
-2.23879e-06
-2.59021e-06
-2.27954e-06
-1.77224e-06
-2.14935e-06
-1.05063e-06
-1.83944e-06
-4.86202e-07
-1.37015e-06
-1.26446e-07
-7.97116e-07
-2.1949e-07
-6.72018e-08
1.31682e-07
-2.41013e-07
4.18233e-07
-4.9565e-07
6.71894e-07
-8.07975e-07
8.69792e-07
-1.15847e-06
1.01008e-06
-1.53176e-06
1.10047e-06
-1.91652e-06
1.15253e-06
-2.3051e-06
1.17828e-06
-2.69277e-06
1.18816e-06
-3.07708e-06
1.19029e-06
-3.45717e-06
1.19043e-06
-3.83319e-06
1.19228e-06
-4.20583e-06
1.19781e-06
-4.57591e-06
1.20755e-06
-4.94399e-06
1.22077e-06
-5.31007e-06
1.2356e-06
-5.67324e-06
1.24899e-06
-6.0314e-06
1.2567e-06
-6.38098e-06
1.25334e-06
-6.71676e-06
1.23237e-06
-7.03173e-06
1.18626e-06
-7.31696e-06
1.10673e-06
-7.56176e-06
9.85173e-07
-7.75379e-06
8.13258e-07
-7.87936e-06
5.83724e-07
-7.92392e-06
2.91409e-07
-7.87265e-06
-6.55059e-08
-7.71123e-06
-4.84056e-07
-7.42688e-06
-9.54888e-07
-7.00987e-06
-1.4606e-06
-6.45537e-06
-1.97428e-06
-5.76617e-06
-2.45859e-06
-4.95578e-06
-2.86623e-06
-4.05189e-06
-3.14267e-06
-3.09896e-06
-3.23246e-06
-2.15847e-06
-3.08984e-06
-1.30489e-06
-2.69302e-06
-6.16642e-07
-2.05839e-06
-1.63978e-07
-1.24978e-06
-3.83468e-07
-8.79527e-08
2.19635e-07
-3.08386e-07
6.38666e-07
-6.23115e-07
9.86624e-07
-1.00036e-06
1.24704e-06
-1.41517e-06
1.4249e-06
-1.84911e-06
1.5344e-06
-2.2893e-06
1.59273e-06
-2.72742e-06
1.6164e-06
-3.15852e-06
1.61926e-06
-3.58014e-06
1.61191e-06
-3.99147e-06
1.60176e-06
-4.39275e-06
1.59357e-06
-4.78477e-06
1.58982e-06
-5.16841e-06
1.59119e-06
-5.54435e-06
1.59671e-06
-5.9127e-06
1.60395e-06
-6.27273e-06
1.60902e-06
-6.62265e-06
1.60662e-06
-6.95938e-06
1.59007e-06
-7.27846e-06
1.55145e-06
-7.57391e-06
1.48171e-06
-7.83826e-06
1.37108e-06
-8.06261e-06
1.20953e-06
-8.23673e-06
9.87372e-07
-8.34917e-06
6.96171e-07
-8.38751e-06
3.2974e-07
-8.33845e-06
-1.14562e-07
-8.1882e-06
-6.34302e-07
-7.92293e-06
-1.22016e-06
-7.52969e-06
-1.85385e-06
-6.99808e-06
-2.50589e-06
-6.32299e-06
-3.13369e-06
-5.5086e-06
-3.68062e-06
-4.57362e-06
-4.07765e-06
-3.55676e-06
-4.24932e-06
-2.52043e-06
-4.12618e-06
-1.54967e-06
-3.66379e-06
-7.43622e-07
-2.86443e-06
-2.00207e-07
-1.7932e-06
-5.83675e-07
-1.0789e-07
3.27524e-07
-3.73143e-07
9.03919e-07
-7.44736e-07
1.35822e-06
-1.18153e-06
1.68383e-06
-1.65266e-06
1.89602e-06
-2.1364e-06
2.01814e-06
-2.61842e-06
2.07475e-06
-3.08991e-06
2.08789e-06
-3.54602e-06
2.07537e-06
-3.98454e-06
2.05043e-06
-4.40503e-06
2.02226e-06
-4.80809e-06
1.99663e-06
-5.19484e-06
1.97658e-06
-5.56654e-06
1.96289e-06
-5.92424e-06
1.95441e-06
-6.26853e-06
1.94823e-06
-6.59929e-06
1.93978e-06
-6.91557e-06
1.92289e-06
-7.2154e-06
1.8899e-06
-7.49577e-06
1.83181e-06
-7.75257e-06
1.73851e-06
-7.98062e-06
1.59914e-06
-8.17369e-06
1.40259e-06
-8.32446e-06
1.13814e-06
-8.42451e-06
7.96216e-07
-8.46413e-06
3.69362e-07
-8.43214e-06
-1.46549e-07
-8.31562e-06
-7.50819e-07
-8.0998e-06
-1.43598e-06
-7.76833e-06
-2.18531e-06
-7.30441e-06
-2.96981e-06
-6.69332e-06
-3.74478e-06
-5.92694e-06
-4.447e-06
-5.01071e-06
-4.99389e-06
-3.97235e-06
-5.28768e-06
-2.87044e-06
-5.22809e-06
-1.79821e-06
-4.73602e-06
-8.77466e-07
-3.78517e-06
-2.39715e-07
-2.43095e-06
-8.23391e-07
-1.27288e-07
4.54812e-07
-4.35618e-07
1.21225e-06
-8.60254e-07
1.78285e-06
-1.34994e-06
2.17351e-06
-1.86754e-06
2.41363e-06
-2.38816e-06
2.53875e-06
-2.89625e-06
2.58284e-06
-3.38298e-06
2.57462e-06
-3.84398e-06
2.53637e-06
-4.27779e-06
2.48424e-06
-4.68469e-06
2.42916e-06
-5.066e-06
2.37793e-06
-5.42351e-06
2.33408e-06
-5.75913e-06
2.29851e-06
-6.07461e-06
2.26989e-06
-6.37133e-06
2.24495e-06
-6.65015e-06
2.2186e-06
-6.91132e-06
2.18406e-06
-7.15442e-06
2.133e-06
-7.37832e-06
2.05572e-06
-7.58124e-06
1.94143e-06
-7.76072e-06
1.77862e-06
-7.9136e-06
1.55547e-06
-8.03588e-06
1.26043e-06
-8.12256e-06
8.82891e-07
-8.16714e-06
4.13943e-07
-8.16111e-06
-1.5258e-07
-8.09318e-06
-8.1875e-07
-7.94854e-06
-1.58062e-06
-7.70838e-06
-2.42547e-06
-7.35014e-06
-3.32805e-06
-6.84927e-06
-4.24565e-06
-6.18364e-06
-5.11264e-06
-5.3414e-06
-5.83612e-06
-4.33303e-06
-6.29605e-06
-3.20567e-06
-6.35545e-06
-2.05482e-06
-5.88686e-06
-1.02427e-06
-4.81573e-06
-2.85656e-07
-3.16956e-06
-1.10905e-06
-1.4681e-07
6.01623e-07
-4.9727e-07
1.56271e-06
-9.71145e-07
2.25673e-06
-1.50601e-06
2.70838e-06
-2.05836e-06
2.96598e-06
-2.60051e-06
3.08091e-06
-3.11644e-06
3.09877e-06
-3.598e-06
3.05618e-06
-4.04203e-06
2.9804e-06
-4.44836e-06
2.89057e-06
-4.81854e-06
2.79934e-06
-5.15499e-06
2.71439e-06
-5.46052e-06
2.63961e-06
-5.73797e-06
2.57596e-06
-5.99002e-06
2.52195e-06
-6.21907e-06
2.474e-06
-6.42713e-06
2.42667e-06
-6.61584e-06
2.37277e-06
-6.78644e-06
2.3036e-06
-6.93985e-06
2.20912e-06
-7.07667e-06
2.07825e-06
-7.1972e-06
1.89915e-06
-7.30139e-06
1.65965e-06
-7.38861e-06
1.34766e-06
-7.45739e-06
9.51671e-07
-7.50479e-06
4.61339e-07
-7.52559e-06
-1.31775e-07
-7.51124e-06
-8.33108e-07
-7.44847e-06
-1.64339e-06
-7.31802e-06
-2.55592e-06
-7.09372e-06
-3.55235e-06
-6.74287e-06
-4.59649e-06
-6.22935e-06
-5.62616e-06
-5.52132e-06
-6.54416e-06
-4.60535e-06
-7.21202e-06
-3.50707e-06
-7.45373e-06
-2.31359e-06
-7.08035e-06
-1.18535e-06
-5.94397e-06
-3.39867e-07
-4.01504e-06
-1.44891e-06
-1.67735e-07
7.69358e-07
-5.61056e-07
1.95603e-06
-1.08086e-06
2.77653e-06
-1.65207e-06
3.27959e-06
-2.22499e-06
3.5389e-06
-2.77024e-06
3.62615e-06
-3.27256e-06
3.60109e-06
-3.7257e-06
3.50932e-06
-4.1287e-06
3.3834e-06
-4.48351e-06
3.24538e-06
-4.7935e-06
3.10933e-06
-5.06265e-06
2.98354e-06
-5.29506e-06
2.87203e-06
-5.49472e-06
2.77561e-06
-5.66534e-06
2.69257e-06
-5.81035e-06
2.61902e-06
-5.93292e-06
2.54924e-06
-6.03601e-06
2.47585e-06
-6.12241e-06
2.39e-06
-6.19489e-06
2.2816e-06
-6.25621e-06
2.13957e-06
-6.30915e-06
1.9521e-06
-6.35648e-06
1.70697e-06
-6.4007e-06
1.39188e-06
-6.44376e-06
9.94734e-07
-6.48642e-06
5.03992e-07
-6.52733e-06
-9.08668e-08
-6.56178e-06
-7.9865e-07
-6.58e-06
-1.62517e-06
-6.56501e-06
-2.57091e-06
-6.49047e-06
-3.6269e-06
-6.31906e-06
-4.7679e-06
-6.00323e-06
-5.94199e-06
-5.49078e-06
-7.0566e-06
-4.73909e-06
-7.96371e-06
-3.74073e-06
-8.45209e-06
-2.55875e-06
-8.26233e-06
-1.35793e-06
-7.14478e-06
-4.03488e-07
-4.96949e-06
-1.8524e-06
-1.92396e-07
9.61754e-07
-6.32101e-07
2.39573e-06
-1.19517e-06
3.33959e-06
-1.79196e-06
3.87638e-06
-2.36752e-06
4.11447e-06
-2.89281e-06
4.15144e-06
-3.3555e-06
4.06378e-06
-3.75305e-06
3.90687e-06
-4.08807e-06
3.71842e-06
-4.36557e-06
3.52288e-06
-4.59141e-06
3.33517e-06
-4.7715e-06
3.16362e-06
-4.91142e-06
3.01195e-06
-5.01632e-06
2.88051e-06
-5.09088e-06
2.76713e-06
-5.13945e-06
2.66758e-06
-5.16608e-06
2.57587e-06
-5.17476e-06
2.48453e-06
-5.1695e-06
2.38474e-06
-5.15447e-06
2.26658e-06
-5.13415e-06
2.11924e-06
-5.11329e-06
1.93124e-06
-5.09696e-06
1.69064e-06
-5.09035e-06
1.38527e-06
-5.09848e-06
1.00286e-06
-5.12567e-06
5.31186e-07
-5.17474e-06
-4.17968e-08
-5.24573e-06
-7.27668e-07
-5.33403e-06
-1.53686e-06
-5.42785e-06
-2.47709e-06
-5.50478e-06
-3.54997e-06
-5.5281e-06
-4.74458e-06
-5.4441e-06
-6.02599e-06
-5.18352e-06
-7.31718e-06
-4.67254e-06
-8.47469e-06
-3.8601e-06
-9.26453e-06
-2.7654e-06
-9.35703e-06
-1.53587e-06
-8.37431e-06
-4.77805e-07
-6.02755e-06
-2.33021e-06
-2.24951e-07
1.1867e-06
-7.18687e-07
2.88947e-06
-1.32237e-06
3.94328e-06
-1.92989e-06
4.48389e-06
-2.48361e-06
4.66819e-06
-2.95858e-06
4.62641e-06
-3.34878e-06
4.45399e-06
-3.65795e-06
4.21603e-06
-3.89398e-06
3.95446e-06
-4.06602e-06
3.69492e-06
-4.18295e-06
3.4521e-06
-4.25283e-06
3.2335e-06
-4.28272e-06
3.04183e-06
-4.27872e-06
2.87652e-06
-4.24622e-06
2.73463e-06
-4.19006e-06
2.61142e-06
-4.11479e-06
2.5006e-06
-4.02492e-06
2.39466e-06
-3.92513e-06
2.28495e-06
-3.82046e-06
2.16191e-06
-3.71645e-06
2.01523e-06
-3.61921e-06
1.83401e-06
-3.53548e-06
1.60691e-06
-3.47248e-06
1.32228e-06
-3.43778e-06
9.68157e-07
-3.43887e-06
5.32277e-07
-3.48257e-06
1.9103e-09
-3.574e-06
-6.3624e-07
-3.71486e-06
-1.39601e-06
-3.90077e-06
-2.29117e-06
-4.11728e-06
-3.33346e-06
-4.33426e-06
-4.5276e-06
-4.49956e-06
-5.86069e-06
-4.53446e-06
-7.28228e-06
-4.33753e-06
-8.67162e-06
-3.80769e-06
-9.79438e-06
-2.89916e-06
-1.02656e-05
-1.70976e-06
-9.5637e-06
-5.65215e-07
-7.1721e-06
-2.89542e-06
-2.7279e-07
1.4595e-06
-8.33522e-07
3.4502e-06
-1.47257e-06
4.58233e-06
-2.06705e-06
5.07837e-06
-2.56273e-06
5.16387e-06
-2.94527e-06
5.00895e-06
-3.21999e-06
4.72872e-06
-3.40019e-06
4.39623e-06
-3.50098e-06
4.05524e-06
-3.53651e-06
3.73044e-06
-3.51896e-06
3.43456e-06
-3.4584e-06
3.17294e-06
-3.36295e-06
2.94638e-06
-3.23923e-06
2.75279e-06
-3.0927e-06
2.5881e-06
-2.92811e-06
2.44683e-06
-2.74989e-06
2.32238e-06
-2.56244e-06
2.2072e-06
-2.37045e-06
2.09296e-06
-2.17914e-06
1.9706e-06
-1.99446e-06
1.83055e-06
-1.8232e-06
1.66274e-06
-1.67302e-06
1.45674e-06
-1.55253e-06
1.20178e-06
-1.47113e-06
8.86754e-07
-1.43884e-06
4.9999e-07
-1.46595e-06
2.90187e-08
-1.5623e-06
-5.39887e-07
-1.73607e-06
-1.22224e-06
-1.99149e-06
-2.03575e-06
-2.32494e-06
-3.00001e-06
-2.71849e-06
-4.13404e-06
-3.13052e-06
-5.44867e-06
-3.4846e-06
-6.9282e-06
-3.66247e-06
-8.49375e-06
-3.5149e-06
-9.94195e-06
-2.91356e-06
-1.08669e-05
-1.86512e-06
-1.06121e-05
-6.70066e-07
-8.36715e-06
-3.56549e-06
-3.48975e-07
1.80847e-06
-9.94646e-07
4.09587e-06
-1.65377e-06
5.24145e-06
-2.19269e-06
5.6173e-06
-2.57353e-06
5.54471e-06
-2.80324e-06
5.23865e-06
-2.90531e-06
4.83079e-06
-2.90625e-06
4.39717e-06
-2.8299e-06
3.97889e-06
-2.69564e-06
3.59619e-06
-2.51847e-06
3.25739e-06
-2.30961e-06
2.96407e-06
-2.07733e-06
2.71411e-06
-1.82777e-06
2.50323e-06
-1.56558e-06
2.32592e-06
-1.29459e-06
2.17584e-06
-1.01827e-06
2.04606e-06
-7.40194e-07
1.92912e-06
-4.6435e-07
1.81711e-06
-1.95464e-07
1.70172e-06
6.0802e-08
1.57429e-06
2.97687e-07
1.42585e-06
5.07223e-07
1.2472e-06
6.80176e-07
1.02883e-06
8.06032e-07
7.60898e-07
8.73031e-07
4.3299e-07
8.6829e-07
3.37598e-08
7.78093e-07
-4.4969e-07
5.88558e-07
-1.03271e-06
2.87087e-07
-1.73428e-06
-1.34607e-07
-2.57832e-06
-6.74593e-07
-3.59406e-06
-1.31016e-06
-4.8131e-06
-1.98142e-06
-6.25694e-06
-2.5717e-06
-7.90347e-06
-2.89795e-06
-9.6157e-06
-2.74276e-06
-1.10221e-05
-1.97628e-06
-1.13786e-05
-7.98279e-07
-9.54515e-06
-4.36377e-06
-4.75794e-07
2.28427e-06
-1.22289e-06
4.84297e-06
-1.85828e-06
5.87684e-06
-2.26145e-06
6.02046e-06
-2.4363e-06
5.71956e-06
-2.42673e-06
5.22908e-06
-2.282e-06
4.68607e-06
-2.04442e-06
4.1596e-06
-1.7463e-06
3.68076e-06
-1.41074e-06
3.26063e-06
-1.05356e-06
2.90021e-06
-6.85191e-07
2.59571e-06
-3.12272e-07
2.34119e-06
6.10802e-08
2.12987e-06
4.32286e-07
1.95471e-06
7.99533e-07
1.8086e-06
1.16118e-06
1.68442e-06
1.51529e-06
1.57501e-06
1.85925e-06
1.47316e-06
2.18947e-06
1.3715e-06
2.50117e-06
1.26258e-06
2.78821e-06
1.13881e-06
3.04295e-06
9.92455e-07
3.25617e-06
8.15615e-07
3.41695e-06
6.00114e-07
3.51265e-06
3.37296e-07
3.52877e-06
1.76398e-08
3.44895e-06
-3.69876e-07
3.25506e-06
-8.38811e-07
2.92764e-06
-1.40687e-06
2.44752e-06
-2.09819e-06
1.79974e-06
-2.94628e-06
9.82649e-07
-3.99601e-06
2.5851e-08
-5.30014e-06
-9.79939e-07
-6.89768e-06
-1.84758e-06
-8.74806e-06
-2.28524e-06
-1.05844e-05
-1.99007e-06
-1.16738e-05
-9.51821e-07
-1.05834e-05
-5.31559e-06
-6.85898e-07
2.97016e-06
-1.52317e-06
5.68024e-06
-2.02061e-06
6.37428e-06
-2.13808e-06
6.13793e-06
-1.96513e-06
5.54662e-06
-1.60034e-06
4.86428e-06
-1.12266e-06
4.20839e-06
-5.8774e-07
3.62467e-06
-3.16563e-08
3.12468e-06
5.23699e-07
2.70527e-06
1.06602e-06
2.35788e-06
1.58922e-06
2.07251e-06
2.09103e-06
1.83938e-06
2.57141e-06
1.64949e-06
3.03141e-06
1.49472e-06
3.47235e-06
1.36765e-06
3.8953e-06
1.26147e-06
4.3006e-06
1.16972e-06
4.68754e-06
1.08621e-06
5.05416e-06
1.00489e-06
5.39698e-06
9.19764e-07
5.71092e-06
8.24872e-07
5.98914e-06
7.1423e-07
6.22297e-06
5.8179e-07
6.40174e-06
4.21336e-07
6.51273e-06
2.26313e-07
6.54086e-06
-1.04966e-08
6.46852e-06
-2.97535e-07
6.27513e-06
-6.45415e-07
5.93678e-06
-1.06852e-06
5.4262e-06
-1.58762e-06
4.71395e-06
-2.23404e-06
3.77342e-06
-3.05547e-06
2.59493e-06
-4.12166e-06
1.21808e-06
-5.52082e-06
-2.10753e-07
-7.31922e-06
-1.37274e-06
-9.42244e-06
-1.78789e-06
-1.12586e-05
-1.10722e-06
-1.12641e-05
-6.42281e-06
-1.00457e-06
3.97473e-06
-1.80537e-06
6.48104e-06
-1.89672e-06
6.46563e-06
-1.47024e-06
5.71145e-06
-7.55738e-07
4.83212e-06
8.97341e-08
4.01881e-06
9.69832e-07
3.32829e-06
1.83039e-06
2.76411e-06
2.6444e-06
2.31067e-06
3.40103e-06
1.94864e-06
4.09853e-06
1.66039e-06
4.73994e-06
1.4311e-06
5.3306e-06
1.24872e-06
5.87659e-06
1.1035e-06
6.38389e-06
9.87415e-07
6.85776e-06
8.9379e-07
7.30236e-06
8.16857e-07
7.72059e-06
7.5149e-07
8.11381e-06
6.92993e-07
8.48175e-06
6.36948e-07
8.8224e-06
5.79111e-07
9.13192e-06
5.15353e-07
9.40455e-06
4.41599e-07
9.63255e-06
3.5379e-07
9.80609e-06
2.47801e-07
9.91308e-06
1.19318e-07
9.93898e-06
-3.63916e-08
9.86632e-06
-2.24882e-07
9.67415e-06
-4.53243e-07
9.33699e-06
-7.31353e-07
8.82349e-06
-1.07412e-06
8.09491e-06
-1.50546e-06
7.10472e-06
-2.06528e-06
5.80385e-06
-2.82078e-06
4.16327e-06
-3.88025e-06
2.23629e-06
-5.39224e-06
2.79597e-07
-7.46575e-06
-1.11605e-06
-9.86299e-06
-1.16086e-06
-1.12193e-05
-7.58367e-06
-1.35457e-06
5.3293e-06
-1.60933e-06
6.7358e-06
-7.49485e-07
5.60579e-06
5.72673e-07
4.38929e-06
1.99759e-06
3.4072e-06
3.36866e-06
2.64774e-06
4.62187e-06
2.07509e-06
5.7384e-06
1.64759e-06
6.72164e-06
1.32743e-06
7.58451e-06
1.08577e-06
8.34295e-06
9.01944e-07
9.0129e-06
7.6115e-07
9.60896e-06
6.52661e-07
1.01439e-05
5.68565e-07
1.06284e-05
5.02886e-07
1.10712e-05
4.50962e-07
1.14791e-05
4.09015e-07
1.18567e-05
3.73855e-07
1.2207e-05
3.42684e-07
1.2531e-05
3.12961e-07
1.28278e-05
2.82312e-07
1.30947e-05
2.48474e-07
1.3327e-05
2.09259e-07
1.35183e-05
1.62519e-07
1.366e-05
1.06104e-07
1.37415e-05
3.77921e-08
1.375e-05
-4.48314e-08
1.36697e-05
-1.44602e-07
1.34816e-05
-2.65176e-07
1.3162e-05
-4.11772e-07
1.26805e-05
-5.92538e-07
1.19962e-05
-8.21209e-07
1.10533e-05
-1.12238e-06
9.77479e-06
-1.54225e-06
8.0639e-06
-2.16936e-06
5.83929e-06
-3.16763e-06
3.16623e-06
-4.79269e-06
5.43922e-07
-7.24068e-06
-8.24961e-07
-9.85038e-06
-8.40864e-06
-9.40743e-07
6.27005e-06
8.34053e-07
4.961e-06
3.35398e-06
3.08586e-06
5.68655e-06
2.05672e-06
7.6633e-06
1.43045e-06
9.29754e-06
1.0135e-06
1.06377e-05
7.34882e-07
1.17373e-05
5.47992e-07
1.26448e-05
4.2001e-07
1.34003e-05
3.30226e-07
1.40363e-05
2.65943e-07
1.45783e-05
2.19147e-07
1.50464e-05
1.84605e-07
1.54561e-05
1.5879e-07
1.58198e-05
1.39244e-07
1.61466e-05
1.24174e-07
1.64434e-05
1.12211e-07
1.6715e-05
1.02249e-07
1.69643e-05
9.33563e-08
1.71926e-05
8.47061e-08
1.73993e-05
7.55451e-08
1.75826e-05
6.5168e-08
1.7739e-05
5.29041e-08
1.78634e-05
3.81064e-08
1.79494e-05
2.01388e-08
1.79888e-05
-1.64453e-09
1.79719e-05
-2.79377e-08
1.78869e-05
-5.9555e-08
1.77192e-05
-9.75611e-08
1.7451e-05
-1.43513e-07
1.70584e-05
-1.99922e-07
1.65083e-05
-2.71182e-07
1.57515e-05
-3.65571e-07
1.47092e-05
-4.99966e-07
1.32517e-05
-7.1178e-07
1.11746e-05
-1.0906e-06
8.23599e-06
-1.85404e-06
4.42277e-06
-3.42746e-06
7.38729e-07
-6.16633e-06
-7.66991e-06
6.27005e-06
1.1231e-05
1.43169e-05
1.63736e-05
1.78041e-05
1.88176e-05
1.95525e-05
2.01005e-05
2.05205e-05
2.08507e-05
2.11166e-05
2.13358e-05
2.15204e-05
2.16792e-05
2.18184e-05
2.19426e-05
2.20548e-05
2.21571e-05
2.22504e-05
2.23351e-05
2.24107e-05
2.24758e-05
2.25287e-05
2.25668e-05
2.2587e-05
2.25853e-05
2.25574e-05
2.24978e-05
2.24003e-05
2.22568e-05
2.20568e-05
2.17857e-05
2.14201e-05
2.09201e-05
2.02083e-05
1.91177e-05
1.72637e-05
1.38362e-05
7.66991e-06
)
;

boundaryField
{
    movingWall
    {
        type            calculated;
        value           uniform 0;
    }
    fixedWalls
    {
        type            calculated;
        value           uniform 0;
    }
    frontAndBack
    {
        type            empty;
        value           nonuniform 0();
    }
}


// ************************************************************************* //
