1.275 	2.15223e-18 	-2.76991e-20 	0.115718 	-0.00795701 	-1.47889e-22
1.825 	2.15223e-18 	-1.39322e-20 	0.38871 	-0.010001 	1.16641e-22
2.375 	2.15223e-18 	-2.66896e-23 	0.665675 	-0.00720732 	-4.3683e-23
