1.45 	0 	0 	0.81681 	-0.0139616 	1.2644e-21
2.35 	0 	0 	0.915105 	-0.00388729 	-5.9778e-22
