1.275 	2.15223e-18 	-2.76991e-20 	-0.0325367 	-0.000496059 	-2.03155e-22
1.825 	2.15223e-18 	-1.39322e-20 	-0.00730766 	-0.00291753 	1.81573e-21
2.375 	2.15223e-18 	-2.66896e-23 	0.126027 	-0.00356987 	-7.54158e-22
