/*--------------------------------*- C++ -*----------------------------------*\
  =========                 |
  \\      /  F ield         | OpenFOAM: The Open Source CFD Toolbox
   \\    /   O peration     | Website:  https://openfoam.org
    \\  /    A nd           | Version:  6.0
     \\/     M anipulation  |
\*---------------------------------------------------------------------------*/
FoamFile
{
    version     2.0;
    format      ascii;
    class       volScalarField;
    location    "18";
    object      p;
}
// * * * * * * * * * * * * * * * * * * * * * * * * * * * * * * * * * * * * * //

dimensions      [0 2 -2 0 0 0 0];

internalField   nonuniform List<scalar> 
34500
(
1.00948
1.00963
1.00935
1.00842
1.00719
1.006
1.00509
1.00412
1.00337
1.00267
1.00213
1.00168
1.00124
1.00104
1.00113
1.00948
1.0097
1.00954
1.00873
1.00761
1.00649
1.00564
1.00469
1.00394
1.00319
1.00258
1.00208
1.00157
1.0014
1.00141
1.00948
1.00971
1.00957
1.00878
1.00763
1.00648
1.00559
1.00463
1.00385
1.00305
1.00241
1.00189
1.00141
1.00129
1.00131
1.00947
1.00971
1.00962
1.00887
1.00773
1.00657
1.00568
1.00476
1.00402
1.00324
1.00259
1.00204
1.00156
1.00141
1.00147
1.00946
1.00972
1.00969
1.009
1.0079
1.00673
1.00585
1.00499
1.00432
1.0036
1.00296
1.00239
1.00185
1.00159
1.00158
1.00945
1.00972
1.00973
1.00911
1.00802
1.00682
1.00589
1.00503
1.0044
1.00374
1.00314
1.00257
1.00199
1.00165
1.00156
1.00943
1.0097
1.00975
1.0092
1.00814
1.00689
1.00588
1.00495
1.00432
1.00367
1.00311
1.00257
1.002
1.00161
1.00148
1.00941
1.00968
1.00979
1.00934
1.00837
1.00713
1.00604
1.00504
1.00435
1.0037
1.00314
1.00261
1.00203
1.0016
1.00141
1.00939
1.00966
1.00983
1.00952
1.0087
1.00755
1.00645
1.00539
1.00463
1.00392
1.00331
1.00274
1.00211
1.00158
1.00129
1.00937
1.00963
1.00985
1.00968
1.00904
1.00804
1.00699
1.00591
1.00508
1.00427
1.00356
1.00289
1.00216
1.00152
1.00112
1.00936
1.00956
1.00978
1.0097
1.00923
1.00839
1.00743
1.00635
1.00546
1.00455
1.00372
1.00294
1.0021
1.00135
1.00086
1.00934
1.00947
1.00962
1.00955
1.00918
1.00847
1.0076
1.00655
1.00562
1.00463
1.0037
1.00282
1.00192
1.00109
1.00056
1.00933
1.00935
1.00937
1.00922
1.00886
1.00823
1.00743
1.00643
1.00548
1.00445
1.00347
1.00254
1.00161
1.00076
1.00024
1.00932
1.00921
1.00906
1.00877
1.00835
1.00773
1.00698
1.00603
1.0051
1.00407
1.00308
1.00216
1.00125
1.00043
0.999947
1.00932
1.00909
1.00875
1.00828
1.00774
1.00709
1.00636
1.00545
1.00456
1.00357
1.00261
1.00173
1.00088
1.0001
0.999674
1.00933
1.00899
1.00847
1.00781
1.00714
1.00642
1.00569
1.00481
1.00398
1.00304
1.00214
1.00133
1.00056
0.999824
0.999452
1.00935
1.00893
1.00826
1.00744
1.00663
1.00583
1.00507
1.00423
1.00344
1.00257
1.00174
1.001
1.00028
0.999592
0.99926
1.00939
1.00892
1.00814
1.00719
1.00626
1.00538
1.00459
1.00376
1.00301
1.0022
1.00143
1.00075
1.00008
0.999416
0.999111
1.00944
1.00895
1.00811
1.00706
1.00604
1.00509
1.00427
1.00344
1.00272
1.00194
1.00121
1.00057
0.999937
0.999274
0.998977
1.00951
1.00902
1.00815
1.00706
1.00597
1.00497
1.00411
1.00327
1.00256
1.0018
1.0011
1.00047
0.999841
0.999166
0.998867
1.00959
1.00912
1.00826
1.00715
1.00603
1.00498
1.00409
1.00323
1.00251
1.00175
1.00104
1.00041
0.999769
0.999068
0.998755
1.00968
1.00924
1.00841
1.00732
1.00618
1.00511
1.00417
1.00329
1.00255
1.00178
1.00105
1.00039
0.999717
0.998982
0.998652
1.00978
1.00938
1.00859
1.00752
1.00639
1.0053
1.00433
1.00342
1.00264
1.00183
1.00107
1.00038
0.999663
0.998888
0.998537
1.00989
1.00952
1.00877
1.00775
1.00663
1.00553
1.00453
1.00358
1.00276
1.00192
1.00111
1.00037
0.999608
0.998792
0.998422
1.00999
1.00967
1.00896
1.00797
1.00687
1.00577
1.00474
1.00375
1.00289
1.00199
1.00114
1.00035
0.999537
0.99868
0.99829
1.01011
1.00981
1.00915
1.00819
1.00711
1.006
1.00494
1.00392
1.003
1.00206
1.00115
1.00032
0.999456
0.998562
0.998156
1.01022
1.00995
1.00932
1.00839
1.00732
1.00621
1.00513
1.00406
1.0031
1.00211
1.00115
1.00026
0.999354
0.998425
0.998005
1.01033
1.01009
1.00947
1.00857
1.00751
1.00639
1.00529
1.00419
1.00318
1.00214
1.00113
1.00019
0.999242
0.998282
0.997851
1.01044
1.01022
1.00962
1.00873
1.00768
1.00655
1.00541
1.00428
1.00323
1.00214
1.00108
1.0001
0.99911
0.998122
0.997681
1.01056
1.01035
1.00975
1.00887
1.00782
1.00667
1.00552
1.00435
1.00325
1.00212
1.00102
1
0.99897
0.997957
0.99751
1.01068
1.01047
1.00988
1.00899
1.00794
1.00678
1.0056
1.00439
1.00326
1.00208
1.00093
0.999879
0.998814
0.997778
0.997323
1.0108
1.01059
1.01
1.00911
1.00804
1.00686
1.00566
1.00442
1.00325
1.00203
1.00084
0.999751
0.998654
0.997596
0.997135
1.01092
1.01072
1.01011
1.00921
1.00813
1.00693
1.0057
1.00443
1.00322
1.00196
1.00074
0.999609
0.99848
0.997401
0.996933
1.01105
1.01084
1.01022
1.00931
1.00821
1.007
1.00573
1.00443
1.00318
1.00189
1.00062
0.999463
0.998304
0.997205
0.99673
1.01118
1.01097
1.01034
1.00941
1.00828
1.00705
1.00575
1.00442
1.00313
1.0018
1.0005
0.999306
0.998116
0.996997
0.996514
1.01131
1.01111
1.01046
1.0095
1.00836
1.0071
1.00577
1.0044
1.00308
1.00171
1.00037
0.999148
0.997928
0.996789
0.996297
1.01146
1.01124
1.01058
1.0096
1.00843
1.00714
1.00578
1.00438
1.00302
1.00161
1.00024
0.99898
0.99773
0.996571
0.996067
1.0116
1.01139
1.0107
1.0097
1.00851
1.00719
1.0058
1.00436
1.00296
1.00151
1.0001
0.998813
0.997533
0.996352
0.995837
1.01176
1.01154
1.01083
1.00981
1.00859
1.00724
1.00581
1.00434
1.00289
1.00141
0.99996
0.998637
0.997326
0.996123
0.995594
1.01192
1.01169
1.01097
1.00992
1.00867
1.00729
1.00583
1.00431
1.00283
1.0013
0.99982
0.998463
0.997121
0.995895
0.995351
1.01208
1.01185
1.01111
1.01004
1.00876
1.00734
1.00584
1.00429
1.00276
1.0012
0.999673
0.99828
0.996906
0.995657
0.995096
1.01226
1.01202
1.01126
1.01016
1.00885
1.0074
1.00586
1.00427
1.0027
1.00109
0.999528
0.9981
0.996694
0.99542
0.994839
1.01244
1.0122
1.01142
1.01029
1.00895
1.00746
1.00589
1.00425
1.00263
1.00098
0.999377
0.997913
0.996472
0.995173
0.994572
1.01262
1.01238
1.01158
1.01043
1.00905
1.00753
1.00591
1.00423
1.00257
1.00088
0.999229
0.997727
0.996253
0.994927
0.994303
1.01282
1.01257
1.01175
1.01057
1.00916
1.0076
1.00594
1.00422
1.00251
1.00076
0.999075
0.997535
0.996025
0.994671
0.994024
1.01302
1.01276
1.01193
1.01072
1.00928
1.00768
1.00597
1.0042
1.00245
1.00066
0.998924
0.997345
0.995799
0.994417
0.993744
1.01322
1.01297
1.01211
1.01087
1.0094
1.00776
1.00601
1.00419
1.00238
1.00055
0.998768
0.997148
0.995565
0.994153
0.993455
1.01344
1.01318
1.01231
1.01104
1.00953
1.00785
1.00605
1.00418
1.00233
1.00044
0.998615
0.996954
0.995333
0.993891
0.993166
1.01366
1.0134
1.01251
1.01121
1.00966
1.00794
1.00609
1.00418
1.00226
1.00033
0.998456
0.996753
0.995093
0.99362
0.992867
1.01389
1.01363
1.01271
1.01138
1.0098
1.00803
1.00614
1.00417
1.00221
1.00022
0.998301
0.996555
0.994855
0.993351
0.992568
1.01413
1.01386
1.01293
1.01157
1.00994
1.00814
1.00619
1.00417
1.00215
1.00011
0.998141
0.99635
0.99461
0.993072
0.992259
1.01437
1.0141
1.01315
1.01176
1.0101
1.00824
1.00625
1.00418
1.0021
1
0.997984
0.996149
0.994367
0.992796
0.991951
1.01462
1.01435
1.01338
1.01196
1.01026
1.00836
1.00631
1.00418
1.00205
0.999895
0.997823
0.995941
0.994116
0.992511
0.991635
1.01488
1.01461
1.01362
1.01216
1.01042
1.00848
1.00638
1.00419
1.002
0.99979
0.997665
0.995736
0.993868
0.992229
0.991318
1.01515
1.01488
1.01387
1.01238
1.0106
1.0086
1.00645
1.0042
1.00195
0.999682
0.997503
0.995525
0.993613
0.991938
0.990993
1.01543
1.01516
1.01413
1.0126
1.01078
1.00873
1.00652
1.00422
1.0019
0.999579
0.997345
0.995318
0.993361
0.991649
0.990669
1.01572
1.01544
1.01439
1.01283
1.01097
1.00887
1.0066
1.00424
1.00186
0.999472
0.997182
0.995105
0.993101
0.991352
0.990337
1.01601
1.01574
1.01466
1.01307
1.01116
1.00902
1.00669
1.00426
1.00182
0.999372
0.997023
0.994895
0.992845
0.991058
0.990005
1.01631
1.01604
1.01494
1.01332
1.01137
1.00917
1.00678
1.00429
1.00178
0.999267
0.99686
0.994679
0.992581
0.990755
0.989666
1.01663
1.01635
1.01524
1.01357
1.01158
1.00933
1.00688
1.00432
1.00175
0.999169
0.996702
0.994468
0.992321
0.990456
0.989328
1.01695
1.01667
1.01554
1.01384
1.0118
1.00949
1.00698
1.00436
1.00171
0.999067
0.996538
0.99425
0.992054
0.990149
0.988982
1.01728
1.017
1.01584
1.01411
1.01203
1.00967
1.00709
1.0044
1.00168
0.998972
0.99638
0.994036
0.99179
0.989845
0.988639
1.01762
1.01734
1.01616
1.01439
1.01227
1.00985
1.00721
1.00444
1.00166
0.998873
0.996217
0.993816
0.991519
0.989533
0.988287
1.01797
1.01769
1.01649
1.01469
1.01251
1.01004
1.00733
1.0045
1.00163
0.998781
0.99606
0.993602
0.991253
0.989225
0.987938
1.01833
1.01805
1.01683
1.01499
1.01277
1.01023
1.00746
1.00455
1.00161
0.998685
0.995897
0.99338
0.990979
0.988909
0.987582
1.0187
1.01842
1.01717
1.0153
1.01303
1.01044
1.0076
1.00462
1.0016
0.998596
0.99574
0.993164
0.99071
0.988597
0.987229
1.01907
1.01879
1.01753
1.01562
1.0133
1.01065
1.00774
1.00468
1.00158
0.998504
0.995579
0.992942
0.990433
0.988278
0.986868
1.01946
1.01918
1.0179
1.01595
1.01359
1.01087
1.00789
1.00475
1.00157
0.998419
0.995423
0.992724
0.990162
0.987964
0.986511
1.01986
1.01958
1.01827
1.01629
1.01388
1.0111
1.00805
1.00483
1.00157
0.998331
0.995262
0.992501
0.989883
0.987642
0.986147
1.02027
1.01999
1.01866
1.01664
1.01418
1.01134
1.00822
1.00491
1.00157
0.99825
0.995107
0.992283
0.989609
0.987324
0.985786
1.02068
1.0204
1.01905
1.017
1.01449
1.01159
1.00839
1.005
1.00157
0.998165
0.994947
0.992058
0.989329
0.987
0.98542
1.02111
1.02083
1.01945
1.01737
1.01481
1.01185
1.00857
1.0051
1.00157
0.998088
0.994794
0.991839
0.989054
0.986681
0.985057
1.02155
1.02126
1.01987
1.01774
1.01514
1.01211
1.00876
1.0052
1.00158
0.998007
0.994635
0.991614
0.988771
0.986355
0.984689
1.02199
1.02171
1.02029
1.01813
1.01548
1.01239
1.00895
1.0053
1.0016
0.997934
0.994483
0.991395
0.988495
0.986034
0.984324
1.02245
1.02216
1.02072
1.01853
1.01583
1.01267
1.00915
1.00541
1.00161
0.997858
0.994325
0.991169
0.988212
0.985707
0.983955
1.02291
1.02263
1.02117
1.01894
1.01619
1.01297
1.00937
1.00553
1.00163
0.997789
0.994174
0.99095
0.987934
0.985386
0.98359
1.02339
1.0231
1.02162
1.01935
1.01656
1.01327
1.00959
1.00566
1.00166
0.997716
0.994017
0.990723
0.98765
0.985059
0.983221
1.02387
1.02358
1.02208
1.01978
1.01694
1.01358
1.00981
1.00579
1.00169
0.997651
0.993867
0.990503
0.987372
0.984737
0.982857
1.02437
1.02407
1.02254
1.02021
1.01733
1.0139
1.01005
1.00592
1.00172
0.997582
0.993711
0.990276
0.987087
0.98441
0.982489
1.02487
1.02457
1.02302
1.02066
1.01772
1.01423
1.01029
1.00607
1.00176
0.997521
0.993562
0.990056
0.986809
0.98409
0.982127
1.02538
1.02508
1.02351
1.02111
1.01813
1.01457
1.01054
1.00622
1.0018
0.997455
0.993406
0.989828
0.986524
0.983764
0.981761
1.0259
1.0256
1.024
1.02157
1.01855
1.01492
1.01081
1.00637
1.00184
0.997397
0.993258
0.989607
0.986245
0.983445
0.981401
1.02643
1.02612
1.0245
1.02204
1.01897
1.01528
1.01107
1.00653
1.00189
0.997334
0.993102
0.989379
0.98596
0.983121
0.981039
1.02696
1.02665
1.02501
1.02252
1.01941
1.01565
1.01135
1.0067
1.00194
0.997279
0.992954
0.989157
0.985682
0.982804
0.980684
1.02751
1.02719
1.02552
1.02301
1.01985
1.01602
1.01163
1.00687
1.00199
0.997219
0.992798
0.988927
0.985397
0.982483
0.980326
1.02806
1.02773
1.02605
1.0235
1.0203
1.01641
1.01192
1.00705
1.00205
0.997166
0.992649
0.988704
0.985119
0.982169
0.979977
1.02862
1.02828
1.02657
1.024
1.02076
1.0168
1.01222
1.00723
1.00211
0.997108
0.992492
0.988473
0.984834
0.981851
0.979626
1.02919
1.02884
1.02711
1.02451
1.02123
1.0172
1.01253
1.00743
1.00218
0.997057
0.992341
0.988249
0.984557
0.981542
0.979284
1.02976
1.0294
1.02765
1.02502
1.0217
1.01761
1.01284
1.00762
1.00224
0.996999
0.992182
0.988016
0.984272
0.981228
0.978941
1.03034
1.02997
1.02819
1.02554
1.02219
1.01803
1.01316
1.00782
1.00232
0.996948
0.99203
0.987789
0.983996
0.980924
0.978608
1.03092
1.03054
1.02874
1.02607
1.02267
1.01845
1.01349
1.00802
1.00238
0.996889
0.991867
0.987553
0.983712
0.980616
0.978275
1.03152
1.03112
1.02929
1.0266
1.02317
1.01889
1.01383
1.00823
1.00246
0.996837
0.991711
0.987324
0.983436
0.980318
0.977953
1.03211
1.0317
1.02984
1.02713
1.02367
1.01933
1.01417
1.00845
1.00253
0.996777
0.991544
0.987084
0.983152
0.980017
0.977632
1.03271
1.03228
1.03039
1.02767
1.02418
1.01977
1.01451
1.00866
1.00261
0.996722
0.991383
0.986851
0.982877
0.979726
0.977324
1.03332
1.03286
1.03095
1.02821
1.02469
1.02023
1.01487
1.00888
1.00268
0.996659
0.99121
0.986607
0.982594
0.979432
0.977017
1.03393
1.03345
1.03151
1.02875
1.02521
1.02068
1.01522
1.00911
1.00276
0.9966
0.991042
0.986369
0.982319
0.97915
0.976725
1.03454
1.03403
1.03206
1.02929
1.02573
1.02115
1.01559
1.00933
1.00283
0.99653
0.990862
0.986118
0.982036
0.978865
0.976436
1.03516
1.03462
1.03262
1.02984
1.02626
1.02162
1.01596
1.00956
1.00291
0.996464
0.990685
0.985874
0.981762
0.978593
0.976162
1.03578
1.0352
1.03317
1.03038
1.02678
1.02209
1.01633
1.00979
1.00298
0.996387
0.990494
0.985617
0.981479
0.978318
0.975892
1.0364
1.03579
1.03373
1.03093
1.02731
1.02257
1.0167
1.01003
1.00305
0.996312
0.990307
0.985365
0.981206
0.978058
0.97564
1.03702
1.03637
1.03428
1.03147
1.02784
1.02305
1.01708
1.01026
1.00312
0.996224
0.990104
0.985099
0.980922
0.977795
0.975393
1.03764
1.03695
1.03482
1.03201
1.02838
1.02353
1.01746
1.01049
1.00319
0.996137
0.989903
0.984838
0.980649
0.977547
0.975167
1.03827
1.03752
1.03536
1.03255
1.02891
1.02402
1.01784
1.01072
1.00324
0.996036
0.989685
0.984561
0.980365
0.977297
0.974946
1.03889
1.03809
1.03589
1.03308
1.02944
1.02451
1.01823
1.01095
1.0033
0.995934
0.989468
0.984289
0.980091
0.977064
0.974748
1.03952
1.03866
1.03642
1.03361
1.02997
1.025
1.01861
1.01118
1.00335
0.995815
0.989231
0.984
0.979807
0.97683
0.974558
1.04014
1.03922
1.03694
1.03413
1.0305
1.02549
1.019
1.0114
1.00339
0.995695
0.988995
0.983714
0.979532
0.976613
0.974393
1.04076
1.03978
1.03745
1.03465
1.03103
1.02598
1.01938
1.01162
1.00343
0.995556
0.988738
0.983411
0.979247
0.976396
0.974238
1.04138
1.04032
1.03795
1.03516
1.03156
1.02647
1.01977
1.01184
1.00345
0.995413
0.988478
0.98311
0.978972
0.976197
0.97411
1.042
1.04086
1.03844
1.03566
1.03208
1.02695
1.02014
1.01205
1.00347
0.995249
0.988196
0.982789
0.978684
0.975998
0.973993
1.04261
1.04139
1.03892
1.03616
1.03259
1.02744
1.02052
1.01226
1.00347
0.995079
0.98791
0.98247
0.978407
0.975821
0.973907
1.04322
1.04192
1.03939
1.03664
1.0331
1.02792
1.0209
1.01245
1.00346
0.994886
0.987599
0.982129
0.978118
0.975643
0.973834
1.04383
1.04243
1.03984
1.03711
1.03361
1.0284
1.02126
1.01264
1.00345
0.994685
0.987282
0.98179
0.977839
0.975488
0.973795
1.04443
1.04293
1.04028
1.03758
1.0341
1.02888
1.02163
1.01282
1.00341
0.994457
0.986938
0.981427
0.977546
0.975333
0.973772
1.04503
1.04341
1.04071
1.03803
1.0346
1.02935
1.02198
1.01298
1.00336
0.994219
0.986586
0.981063
0.977265
0.975203
0.973786
1.04563
1.04389
1.04112
1.03847
1.03508
1.02981
1.02233
1.01314
1.00329
0.993952
0.986203
0.980674
0.976969
0.975074
0.973818
1.04621
1.04436
1.04151
1.03889
1.03555
1.03027
1.02267
1.01328
1.0032
0.993672
0.985811
0.980284
0.976685
0.974972
0.973891
1.04679
1.04481
1.04189
1.0393
1.03602
1.03072
1.023
1.0134
1.00309
0.993359
0.985386
0.979866
0.976385
0.974871
0.973986
1.04737
1.04524
1.04225
1.0397
1.03647
1.03116
1.02332
1.01351
1.00297
0.99303
0.984949
0.979446
0.976098
0.974801
0.974125
1.04794
1.04567
1.0426
1.04009
1.03692
1.03159
1.02363
1.0136
1.00281
0.992666
0.984475
0.978995
0.975793
0.974733
0.974289
1.0485
1.04607
1.04293
1.04046
1.03735
1.03201
1.02392
1.01368
1.00263
0.992283
0.983987
0.978541
0.975502
0.974699
0.974502
1.04905
1.04647
1.04324
1.04081
1.03778
1.03243
1.0242
1.01373
1.00243
0.99186
0.983459
0.978054
0.975193
0.974668
0.974743
1.0496
1.04685
1.04353
1.04115
1.03819
1.03283
1.02446
1.01376
1.0022
0.991415
0.982913
0.977563
0.974898
0.974674
0.975038
1.05014
1.04721
1.0438
1.04148
1.03859
1.03322
1.02471
1.01376
1.00193
0.990927
0.982325
0.977036
0.974586
0.974686
0.975365
1.05067
1.04756
1.04405
1.04178
1.03898
1.03359
1.02493
1.01374
1.00163
0.990412
0.981716
0.976503
0.97429
0.974737
0.97575
1.05119
1.04789
1.04429
1.04208
1.03936
1.03396
1.02514
1.01369
1.0013
0.98985
0.981061
0.975933
0.973976
0.974798
0.97617
1.05171
1.0482
1.04451
1.04236
1.03973
1.0343
1.02533
1.01361
1.00093
0.989258
0.980382
0.975355
0.97368
0.974901
0.976652
1.05221
1.0485
1.04471
1.04262
1.04008
1.03464
1.02549
1.0135
1.00052
0.988614
0.979653
0.974739
0.973367
0.975016
0.977171
1.05271
1.04879
1.04489
1.04287
1.04042
1.03495
1.02563
1.01336
1.00008
0.987936
0.978897
0.974116
0.973075
0.975179
0.977757
1.0532
1.04906
1.04506
1.04311
1.04075
1.03525
1.02575
1.01318
0.999584
0.987202
0.978087
0.973452
0.972768
0.975355
0.978381
1.05367
1.04932
1.04521
1.04334
1.04106
1.03553
1.02583
1.01296
0.999049
0.986428
0.977247
0.972782
0.972485
0.975583
0.979075
1.05415
1.04956
1.04535
1.04355
1.04137
1.0358
1.02589
1.01271
0.998461
0.985595
0.976349
0.97207
0.972188
0.975828
0.979809
1.05461
1.04979
1.04547
1.04375
1.04166
1.03604
1.02591
1.01241
0.997826
0.984716
0.975419
0.971353
0.971921
0.976129
0.980615
1.05506
1.05
1.04558
1.04395
1.04194
1.03627
1.02591
1.01206
0.997135
0.983773
0.974429
0.970595
0.971642
0.976449
0.981462
1.05551
1.05021
1.04568
1.04413
1.04221
1.03647
1.02587
1.01167
0.996391
0.982778
0.973405
0.969833
0.971397
0.97683
0.982383
1.05594
1.0504
1.04577
1.04431
1.04247
1.03665
1.02579
1.01123
0.995584
0.981715
0.972317
0.969032
0.971145
0.977233
0.983346
1.05637
1.05059
1.04586
1.04448
1.04271
1.03681
1.02568
1.01074
0.994719
0.980596
0.971194
0.96823
0.970932
0.977701
0.984386
1.05679
1.05077
1.04594
1.04465
1.04296
1.03694
1.02552
1.01019
0.993786
0.979403
0.970007
0.967391
0.970714
0.978194
0.985468
1.0572
1.05094
1.04601
1.04481
1.04318
1.03705
1.02533
1.00959
0.992788
0.978149
0.968783
0.966555
0.970542
0.978757
0.986628
1.05761
1.05111
1.04608
1.04498
1.0434
1.03714
1.02509
1.00893
0.991716
0.976818
0.967494
0.965684
0.970369
0.979347
0.987832
1.05801
1.05127
1.04616
1.04515
1.04361
1.0372
1.0248
1.0082
0.990571
0.975422
0.96617
0.964822
0.970248
0.980011
0.989115
1.0584
1.05143
1.04624
1.04532
1.04382
1.03723
1.02446
1.0074
0.989347
0.973944
0.96478
0.963927
0.970131
0.980706
0.990441
1.05879
1.05159
1.04632
1.04549
1.04401
1.03723
1.02407
1.00654
0.988044
0.972399
0.963357
0.963047
0.970071
0.981479
0.991847
1.05917
1.05176
1.04642
1.04568
1.0442
1.0372
1.02363
1.0056
0.986656
0.970768
0.96187
0.96214
0.97002
0.982286
0.993297
1.05955
1.05193
1.04652
1.04587
1.04438
1.03714
1.02313
1.00458
0.985183
0.969067
0.960352
0.961253
0.970033
0.983176
0.994826
1.05992
1.05211
1.04664
1.04608
1.04456
1.03705
1.02257
1.00349
0.983619
0.967277
0.95877
0.960342
0.97006
0.984103
0.996399
1.06029
1.0523
1.04678
1.0463
1.04472
1.03691
1.02195
1.00231
0.981964
0.965417
0.957163
0.959459
0.970158
0.985118
0.998051
1.06066
1.0525
1.04695
1.04654
1.04489
1.03675
1.02126
1.00104
0.980212
0.963466
0.955494
0.958558
0.970276
0.986174
0.999747
1.06102
1.05272
1.04714
1.0468
1.04504
1.03654
1.0205
0.999678
0.978364
0.961444
0.953804
0.957691
0.970471
0.987323
1.00152
1.06139
1.05296
1.04736
1.04708
1.0452
1.0363
1.01967
0.998224
0.976415
0.95933
0.952055
0.956812
0.970692
0.988517
1.00334
1.06175
1.05321
1.0476
1.04738
1.04534
1.036
1.01875
0.996667
0.974365
0.957145
0.95029
0.955976
0.970998
0.989807
1.00524
1.06212
1.0535
1.04789
1.04771
1.04548
1.03567
1.01776
0.995012
0.972209
0.954869
0.948471
0.955133
0.971337
0.991148
1.00719
1.06249
1.05381
1.04822
1.04806
1.0456
1.03527
1.01668
0.993245
0.969949
0.952522
0.946641
0.954342
0.971769
0.992588
1.00921
1.06287
1.05416
1.04859
1.04845
1.04573
1.03484
1.01551
0.991373
0.96758
0.950084
0.944762
0.953552
0.972241
0.994082
1.01128
1.06324
1.05454
1.04901
1.04886
1.04583
1.03433
1.01424
0.989384
0.965105
0.947579
0.942878
0.952823
0.972815
0.99568
1.01342
1.06363
1.05496
1.04948
1.04931
1.04593
1.03377
1.01288
0.987283
0.962517
0.944983
0.94095
0.952103
0.973437
0.997336
1.0156
1.06402
1.05543
1.05
1.04979
1.04601
1.03314
1.01141
0.985058
0.95982
0.942322
0.939026
0.951454
0.974169
0.999099
1.01785
1.06443
1.05594
1.05058
1.05031
1.04608
1.03244
1.00984
0.982715
0.95701
0.939572
0.937064
0.950824
0.974958
1.00092
1.02013
1.06485
1.0565
1.05122
1.05085
1.04613
1.03166
1.00815
0.980243
0.95409
0.936761
0.935114
0.950278
0.975867
1.00286
1.02247
1.06528
1.05712
1.05193
1.05144
1.04615
1.03081
1.00635
0.977648
0.951055
0.933863
0.933133
0.949761
0.976842
1.00486
1.02486
1.06572
1.05779
1.0527
1.05206
1.04615
1.02986
1.00443
0.97492
0.94791
0.930908
0.931175
0.94934
0.977946
1.00698
1.0273
1.06619
1.05853
1.05355
1.05271
1.04612
1.02883
1.00238
0.972064
0.944648
0.927869
0.929195
0.94896
0.979126
1.00916
1.02979
1.06667
1.05933
1.05446
1.0534
1.04604
1.02769
1.0002
0.969072
0.941278
0.92478
0.92725
0.948689
0.980445
1.01146
1.03233
1.06718
1.0602
1.05546
1.05412
1.04594
1.02645
0.997892
0.965948
0.93779
0.92161
0.925293
0.948473
0.98185
1.01382
1.0349
1.06772
1.06115
1.05653
1.05486
1.04577
1.0251
0.995442
0.962685
0.934196
0.918396
0.923383
0.948381
0.983402
1.0163
1.03752
1.06828
1.06218
1.05768
1.05564
1.04557
1.02363
0.992857
0.959287
0.930484
0.915106
0.921473
0.948359
0.985052
1.01886
1.04015
1.06888
1.06329
1.05891
1.05644
1.04529
1.02204
0.990125
0.955749
0.926668
0.911782
0.919626
0.948475
0.986856
1.02152
1.04282
1.06952
1.06448
1.06022
1.05726
1.04496
1.02032
0.987251
0.952072
0.922735
0.908387
0.917794
0.948677
0.988766
1.02425
1.04549
1.07019
1.06577
1.06162
1.05809
1.04454
1.01846
0.984224
0.948254
0.918703
0.904968
0.91604
0.949035
0.990839
1.02709
1.04817
1.07091
1.06715
1.06311
1.05894
1.04405
1.01646
0.98105
0.944294
0.914555
0.901486
0.914317
0.949495
0.993028
1.03
1.05085
1.07167
1.06863
1.06467
1.05979
1.04347
1.0143
0.977719
0.940194
0.910313
0.897991
0.91269
0.950127
0.995383
1.03301
1.05352
1.07249
1.07022
1.06633
1.06064
1.04279
1.012
0.974238
0.935949
0.905958
0.894442
0.911113
0.950878
0.997861
1.03609
1.05617
1.07337
1.07191
1.06807
1.06149
1.04199
1.00952
0.970597
0.931563
0.901513
0.890893
0.90965
0.951818
1.00051
1.03925
1.0588
1.07431
1.07371
1.0699
1.06232
1.04109
1.00688
0.9668
0.927031
0.896959
0.887301
0.908256
0.952896
1.00329
1.04249
1.06142
1.07531
1.07563
1.07181
1.06313
1.04005
1.00406
0.962843
0.922362
0.892321
0.883725
0.906997
0.954178
1.00624
1.0458
1.06399
1.07639
1.07768
1.0738
1.06391
1.03889
1.00106
0.958727
0.917543
0.887578
0.880118
0.905827
0.955615
1.00932
1.04917
1.06653
1.07755
1.07984
1.07587
1.06465
1.03757
0.997869
0.954449
0.912589
0.882757
0.876543
0.904814
0.95727
1.01258
1.05261
1.06901
1.0788
1.08214
1.07803
1.06535
1.0361
0.994493
0.95001
0.907485
0.877834
0.872953
0.903912
0.959098
1.01597
1.0561
1.07142
1.08013
1.08457
1.08026
1.06599
1.03446
0.990919
0.945412
0.902247
0.872842
0.869413
0.90319
0.961158
1.01953
1.05963
1.07375
1.08157
1.08713
1.08256
1.06656
1.03264
0.987147
0.940651
0.896857
0.867754
0.865874
0.902602
0.963407
1.02323
1.06321
1.076
1.08311
1.08984
1.08493
1.06706
1.03064
0.98317
0.935731
0.891336
0.862603
0.862405
0.902215
0.965899
1.02709
1.06681
1.07814
1.08475
1.09269
1.08737
1.06746
1.02844
0.978988
0.930649
0.885662
0.857362
0.858958
0.901988
0.968595
1.03108
1.07044
1.08018
1.08652
1.0957
1.08987
1.06777
1.02604
0.974598
0.92541
0.879859
0.852069
0.855605
0.901986
0.971545
1.03523
1.07408
1.08209
1.08842
1.09885
1.09242
1.06797
1.02342
0.969997
0.920009
0.873903
0.846692
0.852296
0.902168
0.974712
1.0395
1.07774
1.08388
1.09044
1.10216
1.09502
1.06804
1.02057
0.965187
0.914453
0.86782
0.841272
0.849106
0.9026
0.978141
1.04392
1.08137
1.0855
1.0926
1.10563
1.09766
1.06797
1.01749
0.960165
0.908735
0.861583
0.835779
0.845987
0.903242
0.981797
1.04846
1.08501
1.08699
1.09492
1.10926
1.10034
1.06775
1.01417
0.954936
0.902867
0.855223
0.830257
0.843018
0.904159
0.985719
1.05313
1.08861
1.08831
1.09738
1.11305
1.10303
1.06736
1.01059
0.949496
0.896836
0.848709
0.824674
0.84015
0.905314
0.989877
1.05791
1.09218
1.08947
1.1
1.117
1.10574
1.0668
1.00676
0.943853
0.890658
0.842076
0.819078
0.837464
0.90677
0.994304
1.0628
1.0957
1.09045
1.10279
1.12111
1.10845
1.06604
1.00266
0.938003
0.88432
0.83529
0.813439
0.834917
0.908492
0.998972
1.06779
1.09917
1.09124
1.10575
1.12539
1.11115
1.06508
0.998291
0.93196
0.877838
0.828392
0.807809
0.83259
0.910541
1.00391
1.07287
1.10254
1.09183
1.10888
1.12982
1.11382
1.06389
0.993648
0.925719
0.871198
0.821344
0.802158
0.830442
0.912884
1.00908
1.07803
1.10584
1.09221
1.11221
1.13441
1.11646
1.06246
0.988732
0.919296
0.864418
0.814191
0.796545
0.828558
0.915581
1.01452
1.08325
1.10902
1.09236
1.11571
1.13916
1.11904
1.06079
0.983534
0.912685
0.857482
0.806894
0.790942
0.8269
0.9186
1.02019
1.08852
1.11209
1.09228
1.11941
1.14405
1.12156
1.05885
0.978064
0.90591
0.850412
0.799504
0.785412
0.825554
0.921997
1.02611
1.09383
1.115
1.09192
1.12331
1.14909
1.12398
1.05663
0.972313
0.898961
0.843187
0.791982
0.779933
0.824487
0.925744
1.03226
1.09917
1.11777
1.0913
1.12741
1.15426
1.12629
1.05413
0.966297
0.891868
0.835835
0.784382
0.774574
0.823785
0.929892
1.03864
1.1045
1.12034
1.09036
1.13171
1.15955
1.12847
1.05133
0.960009
0.884619
0.828332
0.776669
0.769316
0.823421
0.934413
1.04523
1.10982
1.12273
1.08912
1.13621
1.16495
1.13051
1.04822
0.953471
0.87725
0.820711
0.768902
0.764237
0.823479
0.939354
1.05203
1.1151
1.12488
1.08753
1.14092
1.17046
1.13237
1.04479
0.94668
0.869748
0.812944
0.761049
0.759322
0.823937
0.944687
1.05901
1.12033
1.1268
1.08563
1.14583
1.17605
1.13405
1.04104
0.939664
0.862151
0.805069
0.753177
0.754656
0.824876
0.950451
1.06617
1.12546
1.12843
1.08335
1.15094
1.1817
1.13551
1.03696
0.932422
0.854447
0.797058
0.745257
0.75023
0.826278
0.956616
1.07348
1.13049
1.12979
1.08073
1.15625
1.1874
1.13673
1.03256
0.924989
0.846677
0.788952
0.737366
0.746137
0.828218
0.963212
1.08091
1.13537
1.13081
1.07772
1.16175
1.19312
1.13768
1.02782
0.917365
0.838825
0.780723
0.729481
0.742372
0.830682
0.970206
1.08846
1.1401
1.13152
1.07433
1.16744
1.19883
1.13836
1.02276
0.909593
0.830937
0.772418
0.721688
0.739038
0.833739
0.97762
1.09607
1.14462
1.13184
1.07053
1.1733
1.20452
1.13872
1.01737
0.901674
0.822993
0.764009
0.713974
0.736132
0.837372
0.985415
1.10373
1.14891
1.13179
1.06634
1.17933
1.21014
1.13874
1.01167
0.893656
0.815041
0.755554
0.70644
0.733765
0.841644
0.993599
1.11139
1.15293
1.13132
1.0617
1.18551
1.21567
1.13841
1.00565
0.885543
0.807059
0.747027
0.699082
0.731939
0.846535
1.00213
1.11902
1.15666
1.13042
1.05665
1.19181
1.22106
1.13769
0.999332
0.877386
0.799096
0.738495
0.692018
0.730771
0.852095
1.01099
1.12658
1.16003
1.12904
1.05114
1.19824
1.22627
1.13656
0.992716
0.86919
0.791128
0.729941
0.685259
0.730262
0.858298
1.02014
1.13402
1.16304
1.1272
1.0452
1.20475
1.23126
1.135
0.98583
0.861008
0.783206
0.721446
0.678941
0.730532
0.865178
1.02956
1.14128
1.16562
1.12483
1.03879
1.21135
1.23598
1.13297
0.97867
0.852845
0.775302
0.713005
0.673092
0.731582
0.872699
1.03917
1.14833
1.16775
1.12194
1.03194
1.21797
1.24039
1.13046
0.971267
0.844755
0.76747
0.704717
0.667869
0.733525
0.880877
1.04893
1.15509
1.16936
1.11848
1.02461
1.22461
1.24442
1.12744
0.963618
0.83674
0.759684
0.696597
0.663316
0.736358
0.889657
1.05878
1.16152
1.17044
1.11447
1.01685
1.23122
1.24802
1.12387
0.955754
0.828854
0.752
0.688765
0.65961
0.740182
0.899032
1.06865
1.16753
1.17091
1.10985
1.0086
1.23778
1.25113
1.11973
0.947671
0.821098
0.744398
0.681265
0.656812
0.744978
0.908928
1.07844
1.17308
1.17076
1.10463
0.999942
1.24423
1.25368
1.11498
0.939395
0.813523
0.736944
0.674244
0.655108
0.750826
0.919307
1.08809
1.17807
1.16992
1.09878
0.990824
1.25056
1.2556
1.10959
0.930918
0.80613
0.729635
0.66778
0.654567
0.757679
0.930069
1.09748
1.18246
1.16836
1.09232
0.981316
1.25668
1.25683
1.10352
0.922259
0.798972
0.722559
0.662056
0.655371
0.765577
0.941143
1.10651
1.18613
1.16603
1.0852
0.971395
1.26259
1.25728
1.09671
0.9134
0.792055
0.715749
0.657192
0.657568
0.774429
0.952394
1.11507
1.18904
1.16289
1.07746
0.961135
1.26819
1.25687
1.08913
0.904345
0.785438
0.709347
0.653411
0.661302
0.784207
0.96371
1.12303
1.19109
1.15889
1.06906
0.950529
1.27347
1.25553
1.08068
0.895057
0.779143
0.703472
0.650892
0.666552
0.794735
0.974912
1.13028
1.19224
1.15404
1.06007
0.939662
1.27833
1.25316
1.07131
0.88551
0.773235
0.698381
0.649941
0.673367
0.805869
0.985823
1.13668
1.1924
1.14827
1.05045
0.928552
1.28274
1.24967
1.06091
0.875638
0.767737
0.694328
0.650838
0.681624
0.817304
0.996193
1.14208
1.19153
1.14162
1.0403
0.917304
1.2866
1.24497
1.04934
0.865375
0.762724
0.69171
0.653914
0.691242
0.828769
1.00578
1.14635
1.18958
1.13406
1.02963
0.905961
1.2899
1.23893
1.03644
0.85462
0.758314
0.690924
0.659306
0.701906
0.839866
1.01429
1.14934
1.18651
1.12565
1.01854
0.894646
1.29251
1.23138
1.02199
0.843283
0.754747
0.692407
0.666953
0.713256
0.850252
1.02149
1.15093
1.18229
1.11639
1.00707
0.883427
1.29439
1.22213
1.00589
0.831296
0.752223
0.696346
0.676443
0.724654
0.859497
1.02716
1.15106
1.17696
1.10637
0.995356
0.872442
1.29528
1.21106
0.988189
0.818804
0.750822
0.702623
0.687134
0.73547
0.867255
1.03116
1.1497
1.17054
1.09567
0.983481
0.86179
1.29507
1.19819
0.969074
0.806245
0.750472
0.710631
0.698126
0.744936
0.873142
1.03335
1.14684
1.16312
1.08443
0.971617
0.851614
1.29359
1.18351
0.948892
0.794258
0.751121
0.719405
0.70837
0.752403
0.8769
1.03367
1.14254
1.15479
1.0728
0.959907
0.842014
1.29093
1.16702
0.92799
0.78363
0.75272
0.727681
0.716671
0.757178
0.878283
1.03206
1.13685
1.14567
1.06096
0.948562
0.833169
1.2872
1.14872
0.906691
0.775315
0.754965
0.734156
0.721943
0.758786
0.87722
1.02857
1.12988
1.13591
1.04913
0.937768
0.825238
1.2828
1.12893
0.885667
0.769993
0.757201
0.737691
0.723441
0.756968
0.873766
1.02335
1.12179
1.1257
1.03756
0.927769
0.818422
1.27802
1.108
0.865929
0.767437
0.758728
0.73772
0.721018
0.751988
0.868294
1.01668
1.11283
1.11529
1.02653
0.918786
0.812865
1.27293
1.08623
0.848008
0.766612
0.759124
0.734357
0.715012
0.744456
0.861385
1.009
1.10335
1.10498
1.01637
0.911081
0.808718
1.26693
1.06386
0.831944
0.766675
0.758382
0.728205
0.706087
0.735217
0.853804
1.00091
1.0938
1.09513
1.00741
0.904881
0.806088
1.25821
1.04123
0.818317