/*--------------------------------*- C++ -*----------------------------------*\
  =========                 |
  \\      /  F ield         | OpenFOAM: The Open Source CFD Toolbox
   \\    /   O peration     | Website:  https://openfoam.org
    \\  /    A nd           | Version:  6.0
     \\/     M anipulation  |
\*---------------------------------------------------------------------------*/
FoamFile
{
    version     2.0;
    format      ascii;
    class       surfaceScalarField;
    location    "18";
    object      phi;
}
// * * * * * * * * * * * * * * * * * * * * * * * * * * * * * * * * * * * * * //

dimensions      [0 3 -1 0 0 0 0];

internalField   nonuniform List<scalar> 
68636
(
3.01798e-05
0.00310568
-9.43679e-09
6.07861e-05
0.00307075
9.10774e-05
0.00300219
0.000120504
0.00290074
0.000148642
0.00276777
0.000175182
0.0026045
0.000199828
0.00241259
0.000222279
0.00219438
0.000242278
0.00195227
0.000259597
0.0016887
0.000274046
0.00140633
0.000285467
0.00110807
0.000293761
0.0007975
0.000298703
0.000477405
0.000142532
0.000297298
2.9905e-05
0.00307576
1.65963e-08
6.02622e-05
0.0030404
9.0285e-05
0.00297214
0.000119429
0.00287159
0.000147295
0.00273991
0.000173588
0.00257821
0.000198007
0.00238819
0.00022025
0.00217215
0.000240061
0.00193247
0.000257219
0.00167155
0.000271536
0.00139202
0.00028285
0.00109676
0.000291109
0.000789246
0.000295706
0.000472817
0.000143444
0.000294826
2.96468e-05
0.00304608
3.41135e-08
5.97499e-05
0.0030103
8.9493e-05
0.00294239
0.000118352
0.00284273
0.000145954
0.0027123
0.000172006
0.00255215
0.000196202
0.00236399
0.000218238
0.0021501
0.000237865
0.00191283
0.000254864
0.00165453
0.000269054
0.00137782
0.000280258
0.00108554
0.000288443
0.000781038
0.000293166
0.000468055
0.000143481
0.000293032
2.93949e-05
0.00301663
4.50162e-08
5.92346e-05
0.00298047
8.8694e-05
0.00291291
0.000117275
0.00281413
0.000144623
0.00268494
0.000170439
0.00252633
0.000194412
0.00234001
0.000216242
0.00212826
0.000235685
0.00189338
0.000252528
0.00163768
0.000266593
0.00136374
0.000277689
0.00107442
0.000285781
0.000772927
0.00029054
0.000463272
0.000143206
0.00029078
2.91436e-05
0.00298744
4.83432e-08
5.87125e-05
0.0029509
8.78894e-05
0.00288372
0.0001162
0.00278582
0.000143303
0.00265783
0.000168888
0.00250073
0.000192639
0.00231626
0.000214262
0.00210662
0.000233524
0.00187411
0.000250212
0.00162097
0.000264152
0.00134979
0.000275146
0.00106341
0.000283136
0.000764916
0.000287857
0.000458514
0.000142609
0.000288364
2.88901e-05
0.00295851
4.01744e-08
5.81842e-05
0.00292161
8.70824e-05
0.0028548
0.000115132
0.00275775
0.000141995
0.00263095
0.000167351
0.00247536
0.000190882
0.00229271
0.000212301
0.00208519
0.000231383
0.00185502
0.000247918
0.00160442
0.000261734
0.00133596
0.000272631
0.00105249
0.000280523
0.000756995
0.000285196
0.000453804
0.000141824
0.000285922
2.86339e-05
0.00292985
2.6522e-08
5.76521e-05
0.00289259
8.62769e-05
0.00282617
0.000114072
0.00272995
0.0001407
0.00260432
0.000165829
0.00245023
0.000189141
0.0022694
0.000210359
0.00206396
0.000229263
0.00183611
0.000245648
0.00158802
0.000259341
0.00132225
0.000270144
0.00104167
0.000277946
0.000749179
0.000282571
0.00044915
0.000140893
0.000283428
2.83759e-05
0.00290147
7.41577e-09
5.71197e-05
0.00286385
8.54769e-05
0.0027978
0.000113022
0.00270239
0.000139416
0.00257791
0.000164319
0.00242531
0.000187414
0.00224629
0.000208433
0.00204292
0.000227163
0.00181736
0.0002434
0.00157177
0.000256972
0.00130866
0.000267682
0.00103093
0.000275404
0.000741426
0.000279979
0.000444533
0.000139907
0.000280897
2.8117e-05
0.00287336
-1.09517e-08
5.65898e-05
0.00283538
8.46853e-05
0.0027697
0.000111984
0.00267509
0.000138144
0.00255175
0.00016282
0.00240063
0.0001857
0.0022234
0.000206523
0.00202209
0.000225082
0.0017988
0.000241173
0.00155567
0.000254624
0.00129521
0.000265244
0.0010203
0.000272892
0.000733771
0.000277422
0.000439984
0.000138898
0.000278377
2.78584e-05
0.00284552
-2.26008e-08
5.60648e-05
0.00280717
8.39039e-05
0.00274185
0.000110959
0.00264802
0.000136883
0.00252581
0.000161331
0.00237617
0.000183997
0.00220072
0.000204628
0.00200144
0.000223018
0.00178039
0.000238966
0.0015397
0.000252298
0.00128185
0.000262827
0.00100975
0.000270407
0.000726159
0.000274902
0.000435446
0.000137823
0.000275908
2.7601e-05
0.00281795
-2.62804e-08
5.55457e-05
0.00277922
8.31332e-05
0.00271426
0.000109946
0.00262121
0.000135634
0.00250013
0.000159854
0.00235194
0.000182307
0.00217827
0.000202748
0.001981
0.000220973
0.00176216
0.00023678
0.00152389
0.000249994
0.00126864
0.000260432
0.000999303
0.000267946
0.000718644
0.000272415
0.000430966
0.000136704
0.000273495
2.73454e-05
0.00279062
-1.98502e-08
5.50332e-05
0.00275153
8.23728e-05
0.00268691
0.000108944
0.00259463
0.000134395
0.00247466
0.000158388
0.00232794
0.000180631
0.00215601
0.000200884
0.00196073
0.000218947
0.00174408
0.000234615
0.0015082
0.000247712
0.00125552
0.00025806
0.00098893
0.000265509
0.000711165
0.000269957
0.000426474
0.000135467
0.000271127
2.70921e-05
0.00276354
-6.01917e-09
5.45271e-05
0.0027241
8.16217e-05
0.00265982
0.000107952
0.0025683
0.000133167
0.00244945
0.000156933
0.00230417
0.00017897
0.00213398
0.000199039
0.00194066
0.000216942
0.00172619
0.000232473
0.00149267
0.000245454
0.00124254
0.000255711
0.000978673
0.000263095
0.000703786
0.000267523
0.000422044
0.000134185
0.000268781
2.68413e-05
0.00273669
1.11716e-08
5.40271e-05
0.00269691
8.08788e-05
0.00263296
0.000106969
0.0025422
0.000131948
0.00242446
0.000155491
0.00228062
0.000177324
0.00211213
0.000197213
0.00192075
0.000214958
0.00170842
0.000230354
0.00147726
0.00024322
0.00122966
0.000253387
0.000968482
0.000260706
0.000696438
0.00026511
0.000417598
0.000132786
0.000266444
2.65933e-05
0.00271007
2.80792e-08
5.35327e-05
0.00266997
8.01429e-05
0.00260635
0.000105994
0.00251635
0.00013074
0.00239972
0.000154062
0.0022573
0.000175694
0.00209051
0.000195406
0.00190104
0.000212996
0.00169084
0.000228258
0.001462
0.000241011
0.00121691
0.000251088
0.000958409
0.000258341
0.000689193
0.000262718
0.000413225
0.000131385
0.000264106
2.6348e-05
0.00268368
4.0655e-08
5.30432e-05
0.00264327
7.94129e-05
0.00257997
0.000105026
0.00249073
0.00012954
0.0023752
0.000152645
0.00223418
0.000174081
0.00206906
0.000193619
0.00188149
0.000211055
0.00167339
0.000226185
0.00144685
0.000238826
0.00120425
0.000248813
0.000948398
0.000256002
0.000681976
0.000260345
0.000408841
0.0001299
0.000261767
2.61054e-05
0.00265752
4.71792e-08
5.25581e-05
0.00261682
7.86883e-05
0.00255385
0.000104065
0.00246536
0.00012835
0.00235092
0.000151242
0.00221129
0.000172484
0.00204782
0.000191851
0.00186213
0.000209136
0.00165611
0.000224134
0.00143186
0.000236664
0.00119173
0.000246562
0.000938508
0.000253688
0.000674863
0.000257994
0.000404543
0.000128462
0.000259429
2.58653e-05
0.00263161
4.71183e-08
5.20769e-05
0.00259061
7.79685e-05
0.00252795
0.00010311
0.00244021
0.00012717
0.00232685
0.000149852
0.0021886
0.000170905
0.00202676
0.000190103
0.00184292
0.000207238
0.00163896
0.000222106
0.00141698
0.000234525
0.0011793
0.000244335
0.000928676
0.000251397
0.000667775
0.000255664
0.000400237
0.000126968
0.000257097
2.56276e-05
0.00260594
4.13053e-08
5.15994e-05
0.00256464
7.72535e-05
0.0025023
0.000102163
0.0024153
0.000126
0.00230302
0.000148476
0.00216613
0.000169343
0.0020059
0.000188374
0.00182389
0.000205361
0.00162198
0.0002201
0.00140225
0.000232408
0.001167
0.000242131
0.000918963
0.00024913
0.000660791
0.000253355
0.000396024
0.000125552
0.000254776
2.53922e-05
0.00258052
3.1756e-08
5.11255e-05
0.0025389
7.65436e-05
0.00247688
0.000101223
0.00239062
0.000124841
0.00227939
0.000147115
0.00214385
0.000167798
0.00198521
0.000186664
0.00180502
0.000203505
0.00160513
0.000218114
0.00138762
0.000230314
0.00115478
0.000239948
0.000909307
0.000246885
0.000653829
0.000251068
0.000391802
0.00012409
0.00025247
2.51588e-05
0.00255534
2.0637e-08
5.06552e-05
0.0025134
7.5839e-05
0.0024517
0.000100291
0.00236617
0.000123694
0.00225599
0.000145768
0.00212178
0.000166271
0.00196471
0.000184974
0.00178632
0.000201668
0.00158844
0.000216149
0.00137315
0.000228239
0.0011427
0.000237787
0.000899772
0.000244661
0.000646971
0.000248802
0.000387677
0.000122723
0.000250183
2.49275e-05
0.0025304
1.02491e-08
5.01887e-05
0.00248814
7.51402e-05
0.00242674
9.93673e-05
0.00234194
0.000122558
0.0022328
0.000144437
0.0020999
0.000164761
0.00194438
0.000183302
0.00176777
0.000199851
0.00157188
0.000214204
0.00135878
0.000226186
0.00113071
0.000235646
0.000890291
0.000242458
0.000640134
0.000246558
0.000383539
0.000121306
0.000247915
2.46981e-05
0.0025057
2.35498e-09
4.97261e-05
0.00246311
7.44479e-05
0.00240202
9.84535e-05
0.00231794
0.000121436
0.00220982
0.000143121
0.00207822
0.000163268
0.00192424
0.000181649
0.00174939
0.000198053
0.00155549
0.000212279
0.00134457
0.000224151
0.00111885
0.000233525
0.000880931
0.000240275
0.000633403
0.000244334
0.000379498
0.000119991
0.000245668
2.44708e-05
0.00248123
-1.98384e-09
4.92678e-05
0.00243831
7.37623e-05
0.00237752
9.75495e-05
0.00229415
0.000120326
0.00218704
0.000141821
0.00205671
0.000161793
0.00190426
0.000180014
0.00173116
0.000196273
0.00153922
0.000210372
0.00133045
0.000222136
0.00110707
0.000231423
0.000871624
0.000238111
0.00062669
0.00024213
0.000375441
0.000118618
0.000243443
2.42454e-05
0.00245699
-2.40102e-09
4.8814e-05
0.00241375
7.30841e-05
0.00235326
9.66559e-05
0.00227058
0.00011923
0.00216447
0.000140536
0.00203541
0.000160334
0.00188447
0.000178396
0.00171311
0.000194511
0.00152311
0.000208483
0.00131649
0.000220139
0.00109542
0.00022934
0.000862439
0.000235966
0.000620085
0.000239945
0.000371483
0.000117352
0.000241238
2.40222e-05
0.00243296
7.50331e-10
4.8365e-05
0.0023894
7.24135e-05
0.0023292
9.5773e-05
0.00224721
0.000118147
0.00214209
0.000139266
0.00201429
0.000158892
0.00186484
0.000176795
0.00169519
0.000192766
0.00150713
0.000206611
0.00130263
0.00021816
0.00108386
0.000227275
0.000853304
0.00023384
0.000613496
0.000237779
0.000367505
0.000116018
0.000239054
2.38012e-05
0.00240916
6.70576e-09
4.79211e-05
0.00236528
7.17509e-05
0.00230538
9.49007e-05
0.00222407
0.000117076
0.00211992
0.000138011
0.00199336
0.000157465
0.00184539
0.00017521
0.00167746
0.000191038
0.00149131
0.000204757
0.00128893
0.000216199
0.00107243
0.000225228
0.000844292
0.000231731
0.000607015
0.000235632
0.000363627
0.000114793
0.000236889
2.35825e-05
0.00238556
1.44365e-08
4.74822e-05
0.00234138
7.10962e-05
0.00228176
9.40391e-05
0.00220112
0.000116019
0.00209793
0.000136771
0.0019726
0.000156053
0.0018261
0.00017364
0.00165986
0.000189326
0.00147562
0.000202919
0.00127532
0.000214254
0.00106108
0.000223198
0.000835328
0.000229639
0.000600549
0.000233502
0.000359725
0.000113492
0.000234743
2.33662e-05
0.00236217
2.29084e-08
4.70486e-05
0.0023177
7.04495e-05
0.00225836
9.31879e-05
0.00217838
0.000114974
0.00207615
0.000135543
0.00195203
0.000154656
0.00180699
0.000172086
0.00164244
0.000187629
0.00146008
0.000201096
0.00126186
0.000212326
0.00104987
0.000221185
0.000826487
0.000227565
0.000594192
0.00023139
0.000355926
0.000112304
0.000232615
2.31522e-05
0.00233898
3.12224e-08
4.66202e-05
0.00229423
6.98107e-05
0.00223517
9.23469e-05
0.00215584
0.000113941
0.00205455
0.000134329
0.00193164
0.000153272
0.00178804
0.000170545
0.00162515
0.000185946
0.00144467
0.000199289
0.00124851
0.000210414
0.00103873
0.000219189
0.000817692
0.000225508
0.000587848
0.000229296
0.000352099
0.000111036
0.000230505
2.29407e-05
0.00231601
3.87145e-08
4.61969e-05
0.00227097
6.91796e-05
0.00221219
9.15156e-05
0.00213351
0.000112919
0.00203315
0.000133127
0.00191144
0.000151901
0.00176928
0.000169019
0.00160804
0.000184278
0.00142942
0.000197497
0.0012353
0.000208517
0.00102772
0.000217209
0.000809019
0.000223468
0.000581614
0.000227218
0.000348376
0.000109883
0.000228412
2.27317e-05
0.00229323
4.4982e-08
4.57787e-05
0.00224792
6.85559e-05
0.0021894
9.06937e-05
0.00211137
0.000111908
0.00201193
0.000131936
0.0018914
0.000150542
0.00175066
0.000167505
0.00159107
0.000182624
0.00141429
0.00019572
0.00122219
0.000206636
0.00101679
0.000215245
0.00080039
0.000221444
0.00057539
0.000225158
0.000344623
0.000108644
0.000226337
2.25251e-05
0.00227065
4.98673e-08
4.53653e-05
0.00222509
6.79392e-05
0.00216683
8.98806e-05
0.00208943
0.000110907
0.00199091
0.000130757
0.00187156
0.000149196
0.00173223
0.000166004
0.00157427
0.000180983
0.00139932
0.000193957
0.00120923
0.00020477
0.001006
0.000213297
0.000791883
0.000219437
0.000569277
0.000223114
0.000340976
0.000107526
0.000224279
2.23208e-05
0.00224828
5.3396e-08
4.49566e-05
0.00220245
6.73293e-05
0.00214446
8.90758e-05
0.00206768
0.000109915
0.00197007
0.000129588
0.00185188
0.00014786
0.00171395
0.000164514
0.00155761
0.000179356
0.00138447
0.000192208
0.00119637
0.000202919
0.000995269
0.000211365
0.000783417
0.000217446
0.000563171
0.000221087
0.000337295
0.000106316
0.000222238
2.21187e-05
0.0022261
5.57266e-08
4.45524e-05
0.00218002
6.67257e-05
0.00212229
8.82789e-05
0.00204613
0.000108932
0.00194942
0.000128429
0.00183239
0.000146535
0.00169585
0.000163037
0.00154111
0.000177741
0.00136978
0.000190472
0.00118365
0.000201082
0.000984677
0.000209448
0.000775073
0.000215471
0.000557175
0.000219077
0.000333721
0.000105229
0.000220214
2.19189e-05
0.00220412
5.70714e-08
4.41523e-05
0.00215778
6.61281e-05
0.00210031
8.74895e-05
0.00202476
0.000107958
0.00192894
0.000127279
0.00181306
0.000145221
0.0016779
0.000161571
0.00152475
0.000176138
0.0013552
0.000188751
0.00117102
0.000199261
0.000974151
0.000207547
0.000766766
0.000213513
0.000551185
0.000217083
0.000330111
0.000104045
0.000218207
2.17211e-05
0.00218235
5.76662e-08
4.37562e-05
0.00213575
6.55362e-05
0.00207853
8.6707e-05
0.0020036
0.000106993
0.00190866
0.000126139
0.00179392
0.000143917
0.00166013
0.000160117
0.00150856
0.000174548
0.00134078
0.000187042
0.00115854
0.000197453
0.000963759
0.000205661
0.000758581
0.00021157
0.000545304
0.000215106
0.000326609
0.000102989
0.000216217
2.15253e-05
0.00216076
5.77213e-08
4.33639e-05
0.0021139
6.49495e-05
0.00205694
8.59311e-05
0.00198261
0.000106034
0.00188855
0.000125007
0.00177494
0.000142623
0.0016425
0.000158673
0.0014925
0.00017297
0.00132647
0.000185347
0.00114615
0.00019566
0.00095343
0.00020379
0.000750431
0.000209644
0.000539427
0.000213145
0.000323068
0.00010183
0.000214244
2.13313e-05
0.00213938
5.74186e-08
4.29751e-05
0.00209226
6.43679e-05
0.00203555
8.51616e-05
0.00196182
0.000105084
0.00186864
0.000123884
0.00175615
0.000141338
0.00162506
0.00015724
0.00147661
0.000171404
0.00131232
0.000183666
0.00113391
0.000193882
0.000943233
0.000201935
0.000742401
0.000207733
0.000533659
0.000211201
0.000319635
0.000100802
0.000212288
2.11392e-05
0.00211818
5.68943e-08
4.25897e-05
0.00207081
6.37911e-05
0.00201435
8.43981e-05
0.00194121
0.00010414
0.00184889
0.00012277
0.00173751
0.000140064
0.00160776
0.000155818
0.00146085
0.00016985
0.00129828
0.000181997
0.00112175
0.000192118
0.000933098
0.000200095
0.000734403
0.000205839
0.000527891
0.000209274
0.00031616
9.96657e-05
0.000210349
2.09487e-05
0.00209717
5.62508e-08
4.22074e-05
0.00204955
6.32188e-05
0.00199334
8.36404e-05
0.00192079
0.000103204
0.00182933
0.000121663
0.00171906
0.000138798
0.00159063
0.000154407
0.00144525
0.000168309
0.00128439
0.000180342
0.00110973
0.000190368
0.000923092
0.000198271
0.000726525
0.000203961
0.000522233
0.000207363
0.000312795
9.86648e-05
0.000208427
2.07598e-05
0.00207636
5.55566e-08
4.18283e-05
0.00202848
6.26509e-05
0.00197251
8.28883e-05
0.00190055
0.000102274
0.00180994
0.000120565
0.00170076
0.000137542
0.00157364
0.000153007
0.00142978
0.000166779
0.00127061
0.000178701
0.0010978
0.000188633
0.000913145
0.000196462
0.000718676
0.000202098
0.000516573
0.000205468
0.000309386
9.75497e-05
0.000206522
2.05724e-05
0.00205573
5.48586e-08
4.1452e-05
0.00200761
6.20873e-05
0.00195188
8.21418e-05
0.0018805
0.000101351
0.00179074
0.000119475
0.00168265
0.000136296
0.00155683
0.000151617
0.00141446
0.000165262
0.00125698
0.000177072
0.001086
0.000186912
0.000903326
0.000194668
0.000710945
0.000200252
0.000511022
0.000203591
0.000306085
9.65725e-05
0.000204634
2.03865e-05
0.00203529
5.41856e-08
4.10786e-05
0.00198691
6.15279e-05
0.00193143
8.14008e-05
0.00186062
0.000100435
0.0017717
0.000118393
0.00166468
0.000135059
0.00154016
0.000150239
0.00139928
0.000163757
0.00124345
0.000175457
0.00107429
0.000185205
0.000893563
0.000192889
0.000703242
0.000198422
0.000505466
0.000201729
0.000302738
9.54767e-05
0.000202763
2.02021e-05
0.00201504
5.35552e-08
4.0708e-05
0.00196641
6.09725e-05
0.00191117
8.06651e-05
0.00184093
9.95257e-05
0.00175284
0.000117319
0.0016469
0.000133831
0.00152365
0.000148871
0.00138425
0.000162264
0.00123007
0.000173856
0.00106271
0.000183513
0.000883927
0.000191126
0.000695655
0.000196607
0.000500019
0.000199884
0.000299501
9.45227e-05
0.000200909
2.0019e-05
0.00199496
5.29792e-08
4.03401e-05
0.00194608
6.04212e-05
0.00189108
7.99348e-05
0.00182142
9.86231e-05
0.00173415
0.000116253
0.00162926
0.000132613
0.00150728
0.000147514
0.00136934
0.000160783
0.00121679
0.000172268
0.00105122
0.000181836
0.000874344
0.000189378
0.000688094
0.000194809
0.000494565
0.000198056
0.000296215
9.3445e-05
0.000199071
1.98373e-05
0.00197507
5.24624e-08
3.9975e-05
0.00192595
5.98739e-05
0.00187119
7.92099e-05
0.00180209
9.77272e-05
0.00171564
0.000115195
0.0016118
0.000131405
0.00149108
0.000146168
0.00135459
0.000159314
0.00120366
0.000170693
0.00103986
0.000180173
0.000864886
0.000187645
0.000680647
0.000193026
0.000489219
0.000196243
0.000293039
9.25115e-05
0.00019725
1.9657e-05
0.00195536
5.20091e-08
3.96125e-05
0.00190599
5.93307e-05
0.00185146
7.84904e-05
0.00178292
9.68382e-05
0.00169728
0.000114146
0.00159449
0.000130206
0.00147502
0.000144833
0.00133995
0.000157858
0.00119062
0.000169132
0.00102857
0.000178524
0.000855478
0.000185928
0.000673225
0.000191259
0.000483864
0.000194447
0.000289812
9.14503e-05
0.000195446
1.94781e-05
0.00193584
5.16175e-08
3.92527e-05
0.00188622
5.87914e-05
0.00183193
7.77763e-05
0.00176394
9.5956e-05
0.00167911
0.000113105
0.00157735
0.000129017
0.00145911
0.000143509
0.00132547
0.000156414
0.00117773
0.000167584
0.00101742
0.00017689
0.000846195
0.000184226
0.000665916
0.000189509
0.000478617
0.000192668
0.000286696
9.05369e-05
0.000193658
1.93005e-05
0.00191648
5.12889e-08
3.88956e-05
0.00186662
5.82563e-05
0.00181256
7.70677e-05
0.00174513
9.50807e-05
0.00166109
0.000112072
0.00156035
0.000127838
0.00144334
0.000142197
0.0013111
0.000154983
0.00116493
0.00016605
0.00100634
0.00017527
0.00083696
0.000182539
0.000658629
0.000187773
0.000473359
0.000190904
0.000283526
8.94917e-05
0.000191887
1.91243e-05
0.00189731
5.10181e-08
3.85411e-05
0.00184721
5.77252e-05
0.00179338
7.63646e-05
0.00172649
9.42124e-05
0.00164325
0.000111047
0.00154352
0.000126668
0.00142773
0.000140895
0.00129689
0.000153564
0.00115228
0.000164529
0.000995393
0.000173665
0.000827847
0.000180867
0.000651454
0.000186054
0.000468209
0.000189157
0.000280467
8.85964e-05
0.000190132
1.89494e-05
0.00187831
5.08043e-08
3.81895e-05
0.00182797
5.71983e-05
0.00177437
7.5667e-05
0.00170802
9.33511e-05
0.00162556
0.000110031
0.00152684
0.000125509
0.00141224
0.000139605
0.00128278
0.000152157
0.00113972
0.000163022
0.000984516
0.000172074
0.00081878
0.00017921
0.000644299
0.00018435
0.000463046
0.000187426
0.000277353
8.75658e-05
0.000188393
1.87759e-05
0.00185948
5.06396e-08
3.78405e-05
0.0018089
5.66755e-05
0.00175554
7.4975e-05
0.00168973
9.24968e-05
0.00160805
0.000109024
0.00151032
0.000124359
0.00139692
0.000138326
0.00126883
0.000150763
0.0011273
0.000161528
0.00097377
0.000170497
0.000809834
0.000177569
0.000637256
0.000182662
0.000457989
0.00018571
0.000274351
8.66887e-05
0.000186671
1.86037e-05
0.00184083
5.05227e-08
3.74943e-05
0.00179001
5.6157e-05
0.00173687
7.42887e-05
0.00167159
9.16497e-05
0.00159068
0.000108025
0.00149394
0.000123219
0.00138171
0.000137058
0.00125498
0.000149381
0.00111496
0.000160047
0.000963092
0.000168935
0.000800932
0.000175942
0.000630231
0.00018099
0.000452919
0.000184011
0.000271292
8.56727e-05
0.000184964
1.8433e-05
0.00182235
5.04448e-08
3.71509e-05
0.0017713
5.56426e-05
0.00171839
7.36081e-05
0.00165363
9.08096e-05
0.00157349
0.000107035
0.00147772
0.00012209
0.00136667
0.000135801
0.00124128
0.000148011
0.00110277
0.00015858
0.000952543
0.000167387
0.000792149
0.00017433
0.000623316
0.000179333
0.000447955
0.000182327
0.000268344
8.48121e-05
0.000183273
1.82637e-05
0.00180403
5.04043e-08
3.68103e-05
0.00175275
5.51325e-05
0.00170006
7.29332e-05
0.00163583
8.99768e-05
0.00155644
0.000106053
0.00146164
0.00012097
0.00135174
0.000134556
0.00122769
0.000146654
0.00109066
0.000157126
0.000942059
0.000165853
0.000783409
0.000172733
0.000616417
0.000177691
0.000442975
0.000180659
0.000265337
8.38097e-05
0.000181598
1.80958e-05
0.00178589
5.03917e-08
3.64726e-05
0.00173437
5.46267e-05
0.00168191
7.2264e-05
0.00161819
8.91511e-05
0.00153956
0.00010508
0.00144572
0.00011986
0.00133697
0.000133321
0.00121424
0.000145309
0.00107869
0.000155686
0.000931702
0.000164333
0.000774785
0.000171151
0.000609629
0.000176064
0.000438101
0.000179006
0.000262443
8.29659e-05
0.000179939
1.79292e-05
0.0017679
5.04061e-08
3.61376e-05
0.00171616
5.41252e-05
0.00166392
7.16006e-05
0.00160071
8.83327e-05
0.00152282
0.000104115
0.00142993
0.00011876
0.00132232
0.000132098
0.00120089
0.000143976
0.0010668
0.000154258
0.000921408
0.000162827
0.000766203
0.000169583
0.000602854
0.000174452
0.00043321
0.000177369
0.000259489
8.19773e-05
0.000178295
1.77642e-05
0.00175009
5.04383e-08
3.58056e-05
0.00169813
5.3628e-05
0.0016461
7.09429e-05
0.00158341
8.75215e-05
0.00150625
0.000103159
0.00141431
0.00011767
0.00130782
0.000130886
0.00118769
0.000142655
0.00105505
0.000152844
0.000911239
0.000161335
0.000757737
0.00016803
0.000596188
0.000172856
0.000428424
0.000175747
0.000256647
8.11489e-05
0.000176666
1.76005e-05
0.00173244
5.04882e-08
3.54764e-05
0.00168025
5.31351e-05
0.00162844
7.02911e-05
0.00156625
8.67175e-05
0.00148982
0.000102212
0.00139881
0.000116589
0.00129343
0.000129685
0.00117458
0.000141347
0.00104338
0.000151443
0.000901133
0.000159857
0.00074931
0.000166492
0.000589536
0.000171274
0.00042362
0.00017414
0.000253743
8.01733e-05
0.000175053
1.74383e-05
0.00171495
5.05468e-08
3.515e-05
0.00166254
5.26465e-05
0.00161094
6.9645e-05
0.00154925
8.59207e-05
0.00147355
0.000101273
0.00138346
0.000115519
0.0012792
0.000128495
0.00116162
0.000140051
0.00103184
0.000150055
0.000891149
0.000158392
0.000740997
0.000164967
0.000582991
0.000169707
0.000418921
0.000172548
0.000250952
7.93609e-05
0.000173454
1.72775e-05
0.00169762
5.06155e-08
3.48266e-05
0.00164499
5.21623e-05
0.00159361
6.90047e-05
0.00153241
8.5131e-05
0.00145742
0.000100343
0.00136825
0.000114458
0.00126508
0.000127316
0.00114876
0.000138766
0.00102038
0.000148679
0.000881225
0.000156941
0.000732722
0.000163457
0.000576457
0.000168155
0.000414202
0.000170972
0.000248099
7.83986e-05
0.000171871
1.71181e-05
0.00168046
5.06862e-08
3.4506e-05
0.0016276
5.16824e-05
0.00157643
6.83702e-05
0.00151572
8.43486e-05
0.00144144
9.9421e-05
0.00135318
0.000113407
0.0012511
0.000126148
0.00113603
0.000137494
0.00100905
0.000147317
0.000871422
0.000155504
0.000724559
0.000161962
0.000570031
0.000166617
0.000409587
0.000169409
0.000245358
7.76009e-05
0.000170302
1.69602e-05
0.00166344
5.0761e-08
3.41882e-05
0.00161037
5.12069e-05
0.00155941
6.77414e-05
0.00149919
8.35733e-05
0.00142561
9.85076e-05
0.00133824
0.000112366
0.00123723
0.00012499
0.0011234
0.000136233
0.000997795
0.000145967
0.000861677
0.00015408
0.000716433
0.00016048
0.000563614
0.000165094
0.000404951
0.000167862
0.000242553
7.66513e-05
0.000168748
1.68037e-05
0.00164659
5.08325e-08
3.38734e-05
0.00159331
5.07357e-05
0.00154255
6.71183e-05
0.00148281
8.2805e-05
0.00140993
9.76027e-05
0.00132345
0.000111335
0.00122351
0.000123844
0.0011109
0.000134984
0.00098667
0.00014463
0.000852052
0.00015267
0.000708419
0.000159012
0.000557303
0.000163585
0.00040042
0.000166329
0.000239861
7.58687e-05
0.000167209
1.66487e-05
0.00162989
5.0904e-08
3.35614e-05
0.00157639
5.02687e-05
0.00152584
6.6501e-05
0.00146657
8.20439e-05
0.00139438
9.67062e-05
0.00130879
0.000110313
0.0012099
0.000122708
0.0010985
0.000133747
0.000975622
0.000143305
0.000842484
0.000151272
0.000700439
0.000157557
0.000551002
0.00016209
0.000395866
0.000164811
0.000237104
7.49322e-05
0.000165684
1.64951e-05
0.00161335
5.09687e-08
3.32522e-05
0.00155964
4.9806e-05
0.00150929
6.58893e-05
0.00145049
8.12898e-05
0.00137898
9.58179e-05
0.00129427
0.0001093
0.00119642
0.000121582
0.00108623
0.000132521
0.000964699
0.000141993
0.000833032
0.000149888
0.000692569
0.000156117
0.000544804
0.000160609
0.000391416
0.000163306
0.00023446
7.41639e-05
0.000164174
1.63428e-05
0.00159695
5.10305e-08
3.29459e-05
0.00154303
4.93476e-05
0.00149289
6.52833e-05
0.00143456
8.05427e-05
0.00136372
9.4938e-05
0.00127987
0.000108297
0.00118306
0.000120467
0.00107405
0.000131307
0.000953851
0.000140693
0.000823637
0.000148517
0.000684732
0.00015469
0.000538615
0.000159142
0.000386942
0.000161816
0.00023175
7.32398e-05
0.000162678
1.6192e-05
0.00158071
5.10835e-08
3.26424e-05
0.00152658
4.88934e-05
0.00147664
6.46829e-05
0.00141877
7.98025e-05
0.00134861
9.40662e-05
0.00126561
0.000107304
0.00116983
0.000119363
0.00106201
0.000130104
0.000943125
0.000139405
0.000814356
0.000147158
0.000677004
0.000153276
0.000532529
0.000157689
0.000382572
0.00016034
0.000229153
7.2486e-05
0.000161196
1.60426e-05
0.00156461
5.11321e-08
3.23418e-05
0.00151028
4.84435e-05
0.00146053
6.40881e-05
0.00140312
7.90692e-05
0.00133362
9.32025e-05
0.00125147
0.000106319
0.00115671
0.000118269
0.00105005
0.000128913
0.000932473
0.000138129
0.00080513
0.000145813
0.000669308
0.000151876
0.000526451
0.00015625
0.000378177
0.000158878
0.00022649
7.15749e-05
0.000159727
1.58946e-05
0.00154867
5.11713e-08
3.20439e-05
0.00149414
4.79977e-05
0.00144458
6.34988e-05
0.00138763
7.83428e-05
0.00131878
9.2347e-05
0.00123748
0.000105344
0.00114372
0.000117185
0.00103822
0.000127732
0.000921942
0.000136866
0.000796017
0.00014448
0.000661719
0.000150488
0.000520474
0.000154824
0.000373885
0.00015743
0.000223939
7.08347e-05
0.000158273
1.5748e-05
0.00153287
5.12055e-08
3.17487e-05
0.00147813
4.75561e-05
0.00142877
6.29151e-05
0.00137226
7.76232e-05
0.00130407
9.14994e-05
0.0012236
0.000104378
0.00113083
0.000116111
0.00102648
0.000126563
0.000911482
0.000135614
0.000786957
0.00014316
0.000654161
0.000149114
0.000514504
0.000153412
0.000369567
0.000155995
0.00022132
6.9936e-05
0.000156832
1.56028e-05
0.00151722
5.12303e-08
3.14564e-05
0.00146228
4.71185e-05
0.00141311
6.23367e-05
0.00135705
7.69102e-05
0.0012895
9.06598e-05
0.00120986
0.000103421
0.00111808
0.000115048
0.00101487
0.000125405
0.000901141
0.000134374
0.000778008
0.000141852
0.000646709
0.000147753
0.000508635
0.000152013
0.000365352
0.000154574
0.000218815
6.92097e-05
0.000155405
1.54589e-05
0.0015017
5.12504e-08
3.11667e-05
0.00144657
4.66851e-05
0.00139759
6.17638e-05
0.00134197
7.6204e-05
0.00127506
8.9828e-05
0.00119623
0.000102473
0.00110543
0.000113994
0.00100334
0.000124257
0.00089087
0.000133145
0.000769111
0.000140556
0.000639286
0.000146405
0.00050277
0.000150627
0.00036111
0.000153166
0.000216241
6.83237e-05
0.000153991
1.53163e-05
0.00148634
5.12615e-08
3.08798e-05
0.00143101
4.62557e-05
0.00138222
6.11962e-05
0.00132703
7.55044e-05
0.00126076
8.90041e-05
0.00118274
0.000101534
0.00109291
0.000112951
0.000991937
0.000123121
0.000880715
0.000131929
0.000760324
0.000139273
0.000631968
0.000145069
0.000497006
0.000149254
0.00035697
0.000151771
0.00021378
6.76107e-05
0.000152591
1.51751e-05
0.00147111
5.12685e-08
3.05955e-05
0.00141559
4.58304e-05
0.00136698
6.0634e-05
0.00131223
7.48114e-05
0.00124658
8.81879e-05
0.00116936
0.000100604
0.00108049
0.000111917
0.000980617
0.000121995
0.000870629
0.000130723
0.000751586
0.000138002
0.000624678
0.000143746
0.000491246
0.000147894
0.000352802
0.00015039
0.00021125
6.67369e-05
0.000151203
1.50353e-05
0.00145602
5.12675e-08
3.03139e-05
0.00140031
4.5409e-05
0.00135189
6.00771e-05
0.00129756
7.41249e-05
0.00123253
8.73794e-05
0.00115611
9.96827e-05
0.00106819
0.000110893
0.000969419
0.00012088
0.000860658
0.000129529
0.000742957
0.000136742
0.000617491
0.000142436
0.000485585
0.000146547
0.000348736
0.000149022
0.000208833
6.60372e-05
0.000149829
1.48967e-05
0.00144107
5.12633e-08
3.0035e-05
0.00138517
4.49916e-05
0.00133693
5.95253e-05
0.00128303
7.34448e-05
0.00121861
8.65785e-05
0.00114297
9.877e-05
0.00105599
0.000109878
0.000958305
0.000119775
0.000850754
0.000128347
0.000734376
0.000135495
0.000610331
0.000141138
0.000479927
0.000145213
0.000344642
0.000147666
0.000206346
6.5176e-05
0.000148468
1.47595e-05
0.00142627
5.12524e-08
2.97587e-05
0.00137017
4.45781e-05
0.00132211
5.89788e-05
0.00126863
7.27711e-05
0.00120482
8.57852e-05
0.00112996
9.78659e-05
0.00104392
0.000108874
0.000947309
0.000118681
0.000840963
0.000127175
0.000725903
0.000134259
0.000603273
0.000139852
0.000474368
0.000143891
0.000340648
0.000146324
0.000203971
6.44889e-05
0.00014712
1.46235e-05
0.00141159
5.12393e-08
2.94849e-05
0.00135531
4.41685e-05
0.00130743
5.84374e-05
0.00125436
7.21038e-05
0.00119115
8.49993e-05
0.00111706
9.69703e-05
0.00103195
0.000107878
0.000936395
0.000117597
0.000831236
0.000126015
0.000717475
0.000133035
0.000596241
0.000138578
0.00046881
0.000142582
0.000336625
0.000144994
0.000201526
6.36398e-05
0.000145784
1.44889e-05
0.00139705
5.12208e-08
2.92138e-05
0.00134059
4.37627e-05
0.00129288
5.79011e-05
0.00124022
7.14428e-05
0.00117762
8.42208e-05
0.00110429
9.60831e-05
0.00102009
0.000106892
0.000925598
0.000116523
0.000821621
0.000124865
0.000709154
0.000131823
0.00058931
0.000137316
0.00046335
0.000141285
0.000332702
0.000143676
0.000199193
6.29654e-05
0.000144461
1.43555e-05
0.00138264
5.12012e-08
2.89452e-05
0.00132599
4.33608e-05
0.00127846
5.73698e-05
0.00122621
7.0788e-05
0.00116419
8.34497e-05
0.00109163
9.52044e-05
0.00100833
0.000105916
0.00091488
0.00011546
0.00081207