/*--------------------------------*- C++ -*----------------------------------*\
  =========                 |
  \\      /  F ield         | OpenFOAM: The Open Source CFD Toolbox
   \\    /   O peration     | Website:  https://openfoam.org
    \\  /    A nd           | Version:  6.0
     \\/     M anipulation  |
\*---------------------------------------------------------------------------*/
FoamFile
{
    version     2.0;
    format      ascii;
    class       surfaceScalarField;
    location    "18";
    object      phi;
}
// * * * * * * * * * * * * * * * * * * * * * * * * * * * * * * * * * * * * * //

dimensions      [0 3 -1 0 0 0 0];

internalField   nonuniform List<scalar> 
93586
(
1.75242e-05
0.00102919
-2.91955e-09
3.54343e-05
0.00102591
5.35677e-05
0.00101991
7.17498e-05
0.00101123
8.98582e-05
0.000999826
0.0001078
0.000985707
0.000125512
0.00096888
0.000142925
0.00094939
0.000159988
0.000927274
0.00017664
0.000902604
0.000192828
0.000875449
0.0002085
0.000845891
0.000223606
0.000814019
0.000238102
0.000779925
0.000251942
0.000743711
0.000265086
0.000705477
0.000277496
0.000665334
0.000289135
0.000623388
0.000299969
0.000579754
0.000309968
0.000534545
0.000319101
0.00048788
0.000327346
0.000439874
0.000334675
0.000390655
0.00034107
0.000340344
0.00034651
0.000289073
0.000350981
0.000236969
0.000354449
0.000184163
0.000357052
0.000130653
0.000358275
7.67369e-05
2.37974e-05
0.000354163
1.72166e-05
0.00101199
-1.53527e-08
3.47967e-05
0.00100833
5.25948e-05
0.00100211
7.04419e-05
0.000993379
8.82201e-05
0.000982047
0.00010584
0.000968086
0.000123237
0.000951483
0.000140345
0.000932282
0.00015711
0.000910511
0.000173471
0.000886246
0.000189373
0.00085955
0.000204767
0.000830502
0.000219603
0.000799187
0.000233837
0.000765697
0.000247426
0.000730127
0.000260331
0.000692579
0.000272513
0.000653157
0.000283938
0.000611969
0.000294571
0.000569125
0.000304384
0.000524735
0.000313347
0.000478917
0.000321438
0.000431783
0.000328633
0.000383459
0.000334912
0.000334064
0.000340254
0.000283727
0.00034465
0.00023257
0.000348073
0.000180736
0.000350429
0.000128293
0.000351635
7.55278e-05
2.27667e-05
0.00035266
1.68983e-05
0.000995109
-1.81751e-08
3.41516e-05
0.000991077
5.16231e-05
0.000984643
6.91488e-05
0.000975853
8.66133e-05
0.000964582
0.000103927
0.000950772
0.000121025
0.000934385
0.000137838
0.000915469
0.000154313
0.000894037
0.000170387
0.000870172
0.000186007
0.00084393
0.000201126
0.000815384
0.000215694
0.000784619
0.000229671
0.000751721
0.000243012
0.000716785
0.000255681
0.00067991
0.000267639
0.000641199
0.000278853
0.000600755
0.000289288
0.000558688
0.000298919
0.000515104
0.000307717
0.000470118
0.000315659
0.000423841
0.000322722
0.000376396
0.000328888
0.000327899
0.000334136
0.00027848
0.000338449
0.000228258
0.000341807
0.00017738
0.000344155
0.000125947
0.000345423
7.4262e-05
2.32049e-05
0.000344989
1.65839e-05
0.000978537
-1.36589e-08
3.35234e-05
0.000974136
5.0682e-05
0.000967482
6.7899e-05
0.000958634
8.50598e-05
0.00094742
0.000102074
0.000933755
0.000118876
0.000917582
0.000135396
0.000898948
0.000151579
0.000877852
0.000167367
0.000854384
0.000182707
0.000828589
0.000197551
0.000800539
0.000211855
0.000770314
0.000225576
0.000738
0.000238672
0.000703689
0.000251106
0.000667476
0.000262841
0.000629464
0.000273846
0.000589752
0.000284085
0.000548447
0.000293536
0.000505655
0.000302168
0.000461485
0.000309961
0.000416048
0.000316892
0.000369463
0.000322942
0.000321847
0.000328092
0.000273328
0.00033232
0.000224028
0.000335606
0.000174091
0.000337914
0.000123637
0.00033916
7.30141e-05
2.31621e-05
0.000339198
1.62802e-05
0.000962262
-6.48086e-09
3.2919e-05
0.000957496
4.97757e-05
0.000950625
6.66918e-05
0.000941717
8.35533e-05
0.000930558
0.00010027
0.000917038
0.000116776
0.000901076
0.000133001
0.000882722
0.000148894
0.000861959
0.000164396
0.000838881
0.000179457
0.000813526
0.000194032
0.000785964
0.000208074
0.00075627
0.000221543
0.00072453
0.000234398
0.000690832
0.000246602
0.000655271
0.000258118
0.000617945
0.000268917
0.000578953
0.000278965
0.000538397
0.000288238
0.000496381
0.000296709
0.000453012
0.000304358
0.000408399
0.000311161
0.000362659
0.000317102
0.000315908
0.000322159
0.000268272
0.000326314
0.000219875
0.000329549
0.000170858
0.00033183
0.000121358
0.000333132
7.17137e-05
2.28002e-05
0.000333499
1.59864e-05
0.000946274
-7.27579e-10
3.23332e-05
0.000941148
4.88947e-05
0.000934062
6.55143e-05
0.000925095
8.20789e-05
0.000913992
9.84992e-05
0.000900615
0.00011471
0.000884864
0.000130643
0.000866786
0.000146249
0.000846351
0.00016147
0.000823658
0.000176258
0.000798736
0.000190567
0.000771652
0.000204353
0.000742482
0.000217576
0.000711305
0.000230194
0.000678212
0.000242173
0.000643291
0.000253476
0.00060664
0.000264075
0.000568354
0.000273937
0.000528533
0.000283039
0.000487278
0.000291355
0.000444695
0.000298865
0.000400888
0.000305546
0.000355976
0.000311382
0.000310071
0.000316354
0.000263299
0.000320441
0.000215786
0.000323628
0.000167668
0.000325897
0.000119086
0.000327224
7.03845e-05
2.24618e-05
0.000327557
1.56998e-05
0.000930568
5.39998e-09
3.17601e-05
0.000925087
4.80308e-05
0.000917791
6.43573e-05
0.000908768
8.06279e-05
0.000897721
9.67547e-05
0.000884488
0.000112674
0.000868945
0.000128319
0.000851139
0.000143642
0.000831028
0.000158587
0.000808712
0.000173107
0.000784215
0.000187157
0.000757602
0.000200692
0.000728945
0.000213673
0.000698323
0.00022606
0.000665823
0.000237819
0.000631532
0.000248913
0.000595543
0.000259316
0.00055795
0.000268997
0.000518851
0.000277933
0.000478342
0.000286098
0.000436529
0.000293473
0.000393513
0.000300036
0.000349412
0.000305771
0.000304338
0.000310657
0.000258413
0.000314678
0.000211767
0.000317815
0.000164532
0.000320065
0.000116839
0.000321414
6.90369e-05
2.21251e-05
0.000321755
1.54185e-05
0.000915134
1.35637e-08
3.11967e-05
0.000909307
4.71803e-05
0.000901806
6.3217e-05
0.00089273
7.9197e-05
0.000881739
9.50341e-05
0.000868648
0.000110666
0.000853311
0.000126028
0.000835774
0.000141074
0.00081598
0.000155748
0.000794035
0.000170004
0.000769957
0.000183797
0.000743806
0.000197085
0.000715654
0.000209829
0.000685578
0.000221988
0.000653661
0.00023353
0.000619989
0.00024442
0.000584651
0.000254633
0.000547738
0.000264136
0.000509345
0.00027291
0.000469568
0.000280928
0.000428508
0.000288173
0.000386267
0.000294621
0.000342961
0.000300257
0.000298701
0.000305061
0.000253607
0.000309017
0.000207808
0.00031211
0.000161437
0.000314335
0.00011461
0.000315716
6.76534e-05
2.16549e-05
0.00031618
1.51416e-05
0.00089997
2.13867e-08
3.06412e-05
0.000893807
4.63412e-05
0.000886106
6.20918e-05
0.000876979
7.77852e-05
0.000866046
9.3337e-05
0.000853096
0.000108686
0.000837962
0.00012377
0.00082069
0.000138543
0.000801208
0.00015295
0.000779628
0.000166946
0.00075596
0.000180488
0.000730264
0.000193532
0.000702608
0.000206041
0.000673068
0.000217976
0.000641724
0.000229306
0.000608658
0.000239997
0.000573958
0.000250022
0.000537712
0.000259354
0.000500011
0.000267971
0.000460951
0.000275848
0.00042063
0.000282966
0.000379149
0.000289304
0.000336623
0.000294846
0.00029316
0.000299572
0.000248881
0.000303469
0.000203913
0.000306521
0.000158387
0.000308725
0.000112409
0.000310125
6.62552e-05
2.10499e-05
0.000310735
1.48684e-05
0.000885073
2.66595e-08
3.00929e-05
0.000878581
4.55128e-05
0.000870684
6.09813e-05
0.000861508
7.63925e-05
0.000850633
9.16637e-05
0.000837823
0.000106735
0.000822889
0.000121546
0.000805877
0.00013605
0.000786702
0.000150195
0.00076548
0.000163936
0.000742217
0.000177229
0.000716968
0.000190034
0.000689801
0.000202312
0.000660787
0.000214028
0.000630005
0.00022515
0.000597535
0.000235646
0.00056346
0.000245491
0.000527866
0.000254656
0.000490843
0.000263122
0.000452485
0.000270862
0.000412887
0.00027786
0.00037215
0.000284092
0.000330388
0.000289544
0.000287707
0.000294197
0.000244226
0.000298038
0.00020007
0.000301053
0.000155368
0.000303237
0.000110221
0.000304639
6.48492e-05
2.03411e-05
0.000305341
1.45988e-05
0.000870444
3.01328e-08
2.95514e-05
0.000863629
4.46951e-05
0.00085554
5.98856e-05
0.000846318
7.50191e-05
0.0008355
9.00147e-05
0.000822827
0.000104814
0.00080809
0.000119356
0.000791334
0.000133597
0.000772461
0.000147484
0.000751593
0.000160974
0.000728727
0.000174023
0.000703918
0.000186593
0.00067723
0.000198647
0.000648733
0.000210149
0.000618502
0.000221068
0.000586615
0.000231375
0.000553152
0.000241045
0.000518197
0.000250049
0.000481838
0.000258368
0.000444166
0.000265977
0.000405278
0.000272858
0.00036527
0.000278989
0.000324257
0.000284354
0.000282343
0.000288936
0.000239645
0.000292722
0.000196286
0.0002957
0.000152392
0.000297864
0.00010806
0.000299253
6.34622e-05
1.96143e-05
0.000299984
1.43325e-05
0.000856075
3.41423e-08
2.9017e-05
0.000848943
4.38885e-05
0.000840667
5.88055e-05
0.000831399
7.3666e-05
0.000820638
8.83908e-05
0.0008081
0.000102922
0.000793557
0.000117202
0.000777052
0.000131184
0.000758477
0.000144818
0.000737956
0.000158062
0.000715481
0.000170873
0.000691104
0.000183213
0.000664887
0.000195047
0.000636897
0.00020634
0.000607206
0.000217063
0.00057589
0.000227186
0.000543025
0.000236686
0.000508696
0.000245535
0.000472986
0.000253713
0.000435987
0.000261194
0.000397793
0.000267962
0.000358501
0.000273995
0.000318222
0.000279276
0.00027706
0.000283788
0.00023513
0.000287519
0.000192552
0.000290458
0.00014945
0.000292599
0.000105916
0.000293966
6.2091e-05
1.88946e-05
0.000294678
1.407e-05
0.000841967
3.80916e-08
2.84903e-05
0.000834523
4.30937e-05
0.000826064
5.77416e-05
0.000816751
7.23339e-05
0.000806046
8.67927e-05
0.000793642
0.000101061
0.000779289
0.000115082
0.000763032
0.00012881
0.000744749
0.000142197
0.000724569
0.000155199
0.000702479
0.000167777
0.000678526
0.000179893
0.000652771
0.000191512
0.000625278
0.000202603
0.000596115
0.000213135
0.000565357
0.000223081
0.000533079
0.000232416
0.000499361
0.000241114
0.000464288
0.000249154
0.000427948
0.000256512
0.000390435
0.00026317
0.000351844
0.000269106
0.000312286
0.000274304
0.000271863
0.000278747
0.000230689
0.000282422
0.000188879
0.000285321
0.000146553
0.000287435
0.000103804
0.000288776
6.07526e-05
1.82287e-05
0.000289447
1.38114e-05
0.000828113
4.10122e-08
2.79716e-05
0.000820361
4.23114e-05
0.000811723
5.66946e-05
0.000802367
7.10231e-05
0.000791717
8.52204e-05
0.000779442
9.9231e-05
0.000765277
0.000112998
0.000749263
0.000126477
0.000731268
0.00013962
0.000711424
0.000152386
0.00068971
0.000164736
0.000666174
0.000176633
0.000640871
0.000188044
0.000613864
0.000198937
0.00058522
0.000209285
0.000555008
0.000219058
0.000523303
0.000228233
0.000490184
0.000236784
0.000455734
0.000244691
0.00042004
0.000251927
0.000383195
0.000258478
0.000345292
0.000264318
0.000306442
0.000269434
0.000266745
0.000273808
0.000226312
0.000277427
0.000185257
0.000280283
0.000143694
0.000282368
0.000101714
0.000283681
5.94351e-05
1.75991e-05
0.000284303
1.35572e-05
0.000814512
4.3824e-08
2.74614e-05
0.000806457
4.15418e-05
0.000797643
5.56648e-05
0.000788244
6.97339e-05
0.000777648
8.36742e-05
0.000765502
9.74309e-05
0.000751521
0.000110948
0.000735746
0.000124183
0.000718033
0.000137088
0.000698519
0.000149623
0.000677175
0.00016175
0.000654047
0.000173433
0.000629187
0.000184641
0.000602656
0.000195343
0.000574518
0.00020551
0.00054484
0.000215116
0.000513697
0.000224136
0.000481165
0.000232544
0.000447325
0.00024032
0.000412265
0.000247438
0.000376076
0.000253882
0.00033885
0.000259629
0.000300696
0.000264663
0.000261713
0.000268967
0.000222009
0.00027253
0.000181697
0.000275341
0.000140886
0.000277393
9.96642e-05
0.000278678
5.81527e-05
1.70274e-05
0.000279255
1.33073e-05
0.000801155
4.76884e-08
2.69599e-05
0.000792803
4.07854e-05
0.000783816
5.46524e-05
0.000774376
6.84665e-05
0.000763833
8.2154e-05
0.000751813
9.56611e-05
0.000738012
0.000108933
0.000722472
0.000121928
0.000705037
0.000134599
0.000685845
0.000146908
0.000664864
0.000158818
0.000642135
0.000170293
0.000617709
0.000181304
0.000591643
0.000191819
0.000564
0.000201812
0.000534846
0.000211254
0.000504252
0.000220123
0.000472295
0.000228391
0.000439054
0.000236039
0.000404616
0.000243041
0.000369071
0.00024938
0.000332509
0.000255034
0.000295039
0.000259986
0.000256758
0.000264221
0.000217772
0.000267725
0.000178189
0.000270489
0.000138118
0.000272507
9.76428e-05
0.000273764
5.68911e-05
1.64816e-05
0.000274301
1.30621e-05
0.000788041
5.19491e-08
2.64673e-05
0.000779398
4.00421e-05
0.000770242
5.36575e-05
0.00076076
6.7221e-05
0.00075027
8.066e-05
0.000738374
9.39219e-05
0.000724751
0.000106953
0.000709441
0.000119713
0.000692278
0.000132155
0.000673402
0.000144243
0.000652776
0.000155941
0.000630438
0.000167214
0.000606435
0.000178033
0.000580825
0.000188366
0.000553666
0.000198189
0.000525024
0.000207471
0.000494969
0.000216192
0.000463575
0.000224323
0.000430922
0.000231845
0.000397096
0.000238733
0.000362183
0.000244968
0.000326275
0.000250529
0.000289479
0.0002554
0.000251889
0.000259564
0.000213609
0.00026301
0.000174746
0.000265725
0.000135404
0.000267705
9.56664e-05
0.000268933
5.56654e-05
1.59816e-05
0.000269439
1.28216e-05
0.000775162
5.53952e-08
2.59836e-05
0.000766235
3.9312e-05
0.000756912
5.26803e-05
0.000747391
6.59974e-05
0.000736951
7.91924e-05
0.000725178
9.22137e-05
0.000711728
0.000105009
0.000696644
0.000117538
0.000679747
0.000129757
0.000661181
0.00014163
0.000640902
0.00015312
0.000618945
0.000164196
0.000595357
0.000174827
0.000570192
0.000184984
0.000543507
0.00019464
0.000515366
0.000203767
0.000485839
0.000212343
0.000454998
0.000220339
0.000422923
0.000227737
0.000389697
0.000234511
0.000355407
0.000240643
0.000320141
0.000246111
0.000284007
0.000250901
0.000247097
0.000254994
0.000209513
0.000258379
0.000171358
0.000261045
0.000132735
0.000262985
9.37223e-05
0.000264185
5.44604e-05
1.54953e-05
0.000264663
1.25858e-05
0.000762519
5.80824e-08
2.55088e-05
0.000753312
3.85952e-05
0.000743826
5.17207e-05
0.000734266
6.4796e-05
0.000723877
7.77516e-05
0.000712222
9.0537e-05
0.000698944
0.000103101
0.000684081
0.000115405
0.000667443
0.000127406
0.00064918
0.000139067
0.00062924
0.000150356
0.000607656
0.000161239
0.000584474
0.000171688
0.000559743
0.000181672
0.000533523
0.000191165
0.000505874
0.000200139
0.000476864
0.000208572
0.000446566
0.000216436
0.000415059
0.000223711
0.000382423
0.000230372
0.000348745
0.000236402
0.000314113
0.000241777
0.000278632
0.000246485
0.000242392
0.000250506
0.000205493
0.00025383
0.000168037
0.000256445
0.000130122
0.000258344
9.18264e-05
0.000259515
5.32929e-05
1.50481e-05
0.000259968
1.23546e-05
0.000750102
6.04233e-08
2.5043e-05
0.000740623
3.78917e-05
0.000730976
5.07789e-05
0.000721377
6.36169e-05
0.000711038
7.63378e-05
0.0006995
8.88922e-05
0.000686388
0.00010123
0.000671741
0.000113314
0.000655358
0.000125101
0.000637391
0.000136558
0.000617782
0.000147649
0.000596563
0.000158345
0.000573776
0.000168614
0.000549472
0.000178429
0.000523706
0.000187762
0.000496539
0.000196586
0.000468037
0.000204879
0.000438273
0.000212611
0.000407323
0.000219765
0.000375268
0.000226313
0.000342194
0.00023224
0.000308185
0.000237523
0.000273346
0.000242148
0.000237765
0.000246097
0.000201541
0.000249359
0.000164772
0.000251923
0.000127555
0.00025378
8.99645e-05
0.000254921
5.21469e-05
1.46088e-05
0.000255351
1.21281e-05
0.000737913
6.19252e-08
2.4586e-05
0.000728165
3.72015e-05
0.000718361
4.98549e-05
0.000708724
6.24605e-05
0.000698433
7.49515e-05
0.000687009
8.72799e-05
0.00067406
9.93966e-05
0.000659624
0.000111265
0.00064349
0.000122844
0.000625811
0.0001341
0.000606527
0.000144999
0.000585664
0.000155511
0.000563265
0.000165605
0.000539378
0.000175254
0.000514057
0.00018443
0.000487363
0.000193106
0.000459361
0.000201259
0.000430121
0.000208862
0.00039972
0.000215894
0.000368237
0.000222331
0.000335757
0.000228155
0.000302362
0.000233346
0.000268156
0.000237887
0.000233226
0.000241764
0.000197666
0.000244964
0.000161575
0.000247475
0.000125046
0.00024929
8.81525e-05
0.0002504
5.10401e-05
1.42071e-05
0.000250809
1.19062e-05
0.000725943
6.21805e-08
2.41379e-05
0.000715933
3.65246e-05
0.000705974
4.8949e-05
0.000696299
6.13268e-05
0.000686054
7.35929e-05
0.000674742
8.57001e-05
0.000661952
9.76008e-05
0.000647722
0.000109259
0.00063183
0.000120635
0.000614434
0.000131694
0.000595465
0.000142405
0.000574951
0.000152737
0.000552931
0.000162659
0.000529453
0.000172145
0.00050457
0.000181166
0.00047834
0.000189696
0.000450829
0.000197711
0.000422105
0.000205184
0.000392244
0.000212096
0.000361325
0.000218421
0.000329429
0.000224144
0.000296639
0.000229241
0.000263056
0.0002337
0.000228765
0.000237503
0.000193859
0.000240641
0.000158435
0.0002431
0.000122583
0.000244873
8.63744e-05
0.000245952
4.99549e-05
1.3811e-05
0.000246339
1.16888e-05
0.000714193
6.1552e-08
2.36987e-05
0.000703923
3.58611e-05
0.000693812
4.8061e-05
0.000684099
6.02159e-05
0.000673899
7.2262e-05
0.000662696
8.41531e-05
0.000650061
9.58426e-05
0.000636033
0.000107295
0.000620378
0.000118472
0.000603257
0.00012934
0.000584598
0.000139866
0.000564425
0.000150021
0.000542777
0.000159775
0.000519699
0.000169099
0.000495245
0.000177968
0.000469472
0.000186352
0.000442444
0.000194231
0.000414228
0.000201576
0.000384899
0.000208367
0.000354534
0.000214582
0.000323215
0.000220202
0.00029102
0.000225206
0.000258052
0.000229582
0.000224391
0.000233313
0.00019013
0.000236388
0.000155363
0.000238795
0.000120179
0.000240526
8.46463e-05
0.000241575
4.89097e-05
1.34527e-05
0.000241941
1.14758e-05
0.000702656
6.07433e-08
2.32682e-05
0.00069213
3.52109e-05
0.000681869
4.71911e-05
0.000672118
5.91278e-05
0.000661962
7.09587e-05
0.000650864
8.26385e-05
0.000638381
9.41216e-05
0.000624548
0.000105373
0.000609125
0.000116356
0.000592273
0.000127035
0.000573916
0.000137381
0.000554078
0.000147362
0.000532794
0.000156949
0.00051011
0.000166115
0.000486078
0.000174832
0.000460754
0.000183073
0.0004342
0.000190815
0.000406485
0.000198032
0.00037768
0.000204705
0.000347861
0.000210808
0.000317108
0.000216327
0.000285501
0.000221239
0.000253136
0.000225533
0.000220096
0.000229191
0.000186469
0.000232203
0.000152347
0.000234558
0.000117819
0.000236249
8.2951e-05
0.000237267
4.7885e-05
1.30976e-05
0.000237612
1.12672e-05
0.000691329
5.98597e-08
2.28465e-05
0.000680551
3.4574e-05
0.000670142
4.6339e-05
0.000660353
5.80624e-05
0.000650239
6.96827e-05
0.000639243
8.11558e-05
0.000626908
9.24369e-05
0.000613267
0.000103492
0.000598069
0.000114284
0.000581481
0.000124779
0.000563421
0.000134947
0.00054391
0.000144756
0.000522984
0.00015418
0.000500687
0.000163188
0.00047707
0.000171755
0.000452187
0.000179854
0.000426101
0.000187462
0.000398878
0.000194552
0.000370589
0.000201106
0.000341309
0.000207099
0.000311115
0.000212516
0.000280085
0.000217337
0.000248316
0.000221548
0.000215887
0.000225134
0.000182884
0.000228085
0.000149399
0.000230389
0.000115518
0.000232039
8.13047e-05
0.000233028
4.68999e-05
1.278e-05
0.000233354
1.10627e-05
0.000680207
5.90835e-08
2.24333e-05
0.00066918
3.39502e-05
0.000658624
4.55047e-05
0.000648798
5.70192e-05
0.000638724
6.84335e-05
0.000627828
7.97044e-05
0.000615636
9.07878e-05
0.000602182
0.00010165
0.000587206
0.000112255
0.000570875
0.000122569
0.000553106
0.000132561
0.000533916
0.000142203
0.000513341
0.000151464
0.000491425
0.000160317
0.000468215
0.000168736
0.000443767
0.000176693
0.000418142
0.000184167
0.000391404
0.000191131
0.000363623
0.000197567
0.000334872
0.000203451
0.000305229
0.000208768
0.000274767
0.000213497
0.000243584
0.000217627
0.000211755
0.000221142
0.000179366
0.000224033
0.000146506
0.000226287
0.000113259
0.000227897
7.96891e-05
0.000228858
4.5933e-05
1.24621e-05
0.000229165
1.08624e-05
0.000669286
5.87536e-08
2.20286e-05
0.000658014
3.33392e-05
0.000647314
4.46877e-05
0.00063745
5.59978e-05
0.000627414
6.72105e-05
0.000616615
7.82833e-05
0.000604564
8.91729e-05
0.000591293
9.98465e-05
0.000576532
0.000110267
0.000560455
0.000120403
0.00054297
0.000130223
0.000524096
0.000139698
0.000503866
0.000148799
0.000482324
0.000157498
0.000459516
0.00016577
0.000435496
0.000173587
0.000410324
0.000180928
0.000384064
0.000187767
0.000356783
0.000194086
0.000328555
0.000199862
0.000299453
0.000205079
0.000269552
0.000209719
0.000238945
0.000213769
0.000207707
0.000217214
0.000175923
0.000220044
0.000143678
0.000222249
0.000111057
0.000223822
7.81206e-05
0.000224755
4.50042e-05
1.21805e-05
0.000225045
1.06661e-05
0.000658561
5.92918e-08
2.16322e-05
0.000647048
3.27409e-05
0.000636205
4.38876e-05
0.000626302
5.49976e-05
0.000616303
6.60128e-05
0.000605599
7.68915e-05
0.000593684
8.7591e-05
0.000580592
9.80789e-05
0.000566043
0.000108319
0.000550214
0.000118279
0.000533008
0.000127929
0.000514444
0.000137239
0.000494555
0.000146182
0.00047338
0.000154729
0.000450967
0.000162855
0.000427369
0.000170534
0.000402643
0.000177743
0.000376854
0.000184459
0.000350066
0.000190662
0.000322351
0.00019633
0.000293782
0.000201449
0.000264432
0.000206
0.000234391
0.000209971
0.000203735
0.000213347
0.000172544
0.000216119
0.000140903
0.000218276
0.000108895
0.000219812
7.658e-05
0.000220719
4.40904e-05
1.18941e-05
0.000220994
1.04736e-05
0.000648027
6.05743e-08
2.12438e-05
0.000636278
3.21549e-05
0.000625294
4.3104e-05
0.000615353
5.40179e-05
0.00060539
6.48395e-05
0.000594777
7.55277e-05
0.000582996
8.60405e-05
0.000570079
9.63459e-05
0.000555738
0.000106408
0.000540151
0.000116195
0.000523221
0.000125677
0.000504962
0.000134825
0.000485406
0.000143611
0.000464594
0.000152008
0.00044257
0.00015999
0.000419387
0.000167531
0.000395102
0.00017461
0.000369775
0.000181203
0.000343473
0.000187292
0.000316264
0.000192854
0.00028822
0.000197876
0.000259411
0.00020234
0.000229929
0.000206233
0.000199843
0.000209541
0.000169237
0.000212257
0.000138191
0.000214367
0.000106788
0.000215868
7.50841e-05
0.00021675
4.32127e-05
1.16424e-05
0.000217011
1.02849e-05
0.000637679
6.25412e-08
2.08632e-05
0.000625699
3.15807e-05
0.000614576
4.23363e-05
0.000604597
5.30579e-05
0.000594667
6.36896e-05
0.000584144
7.41908e-05
0.000572494
8.45201e-05
0.000559749
9.46458e-05
0.000545611
0.000104532
0.000530264
0.000114149
0.000513603
0.000123466
0.000495644
0.000132453
0.000476417
0.000141084
0.000455962
0.000149332
0.000434321
0.000157171
0.000411547
0.000164577
0.000387695
0.000171527
0.000362824
0.000177999
0.000336999
0.000183975
0.000310288
0.000189433
0.000282759
0.000194359
0.000254483
0.000198737
0.000225549
0.000202554
0.000196025
0.000205796
0.000165991
0.000208456
0.000135529
0.000210522
0.000104717
0.000211988
7.3613e-05
0.000212847
4.23465e-05
1.1381e-05
0.000213096
1.00998e-05
0.000627515
6.50429e-08
2.04903e-05
0.000615309
3.1018e-05
0.000604049
4.15838e-05
0.000594031
5.21168e-05
0.000584135
6.2562e-05
0.000573699
7.28794e-05
0.000562177
8.30282e-05
0.0005496
9.29771e-05
0.000535662
0.000102691
0.00052055
0.000112139
0.000504155
0.000121292
0.000486491
0.000130121
0.000467588
0.000138599
0.000447483
0.0001467
0.000426221
0.000154398
0.000403849
0.000161669
0.000380423
0.000168493
0.000356002
0.000174845
0.000330647
0.00018071
0.000304425
0.000186065
0.000277404
0.000190898
0.000249652
0.000195191
0.000221256
0.000198934
0.000192284
0.000202112
0.000162814
0.000204718
0.000132926
0.00020674
0.000102697
0.000208174
7.2184e-05
0.000209011
4.1514e-05
1.11527e-05
0.00020925
9.91822e-06
0.000617528
6.80595e-08
2.01246e-05
0.000605102
3.04664e-05
0.000593706
4.0846e-05
0.000583651
5.11939e-05
0.000573786
6.14558e-05
0.000563436
7.15925e-05
0.00055204
8.15636e-05
0.000539627
9.13383e-05
0.000525887
0.000100882
0.000511005
0.000110164
0.000494872
0.000119155
0.000477499
0.000127828
0.000458915
0.000136155
0.000439156
0.00014411
0.000418265
0.000151669
0.000396289
0.000158808
0.000373283
0.000165506
0.000349303
0.000171741
0.00032441
0.000177496
0.00029867
0.00018275
0.000272148
0.000187491
0.00024491
0.000191702
0.000217043
0.000195372
0.000188613
0.000198487
0.000159696
0.000201041
0.00013037
0.000203021
0.000100712
0.000204423
7.07767e-05
0.00020524
4.06899e-05
1.09104e-05
0.000205469
9.74002e-06
0.000607718
7.12668e-08
1.97659e-05
0.000595076
2.99253e-05
0.000583547
4.01221e-05
0.000573454
5.02881e-05
0.00056362
6.03699e-05
0.000553354
7.03287e-05
0.000542081
8.01249e-05
0.000529831
8.97278e-05
0.000516284
9.91033e-05
0.000501629
0.000108221
0.000485754
0.000117053
0.000468666
0.000125571
0.000450396
0.000133749
0.000430978
0.000141561
0.000410453
0.000148983
0.000388868
0.000155991
0.000366275
0.000162566
0.000342729
0.000168685
0.000318291
0.000174332
0.000293024
0.000179488
0.000266992
0.000184139
0.00024026
0.000188268
0.000212914
0.000191867
0.000185016
0.000194922
0.000156643
0.000197424
0.000127871
0.000199364
9.87749e-05
0.000200737
6.94087e-05
0.000201534
3.98969e-05
1.06997e-05
0.000201757
9.56509e-06
0.000598077
7.45234e-08
1.9414e-05
0.000585226
2.93943e-05
0.000573566
3.94116e-05
0.000563435
4.93988e-05
0.000553632
5.93034e-05
0.000543449
6.90871e-05
0.000532297
7.87109e-05
0.000520206
8.81446e-05
0.00050685
9.73544e-05
0.000492419
0.000106311
0.000476796
0.000114985
0.000459991
0.000123351
0.00044203
0.000131382
0.000422946
0.000139052
0.000402782
0.000146338
0.00038158
0.000153218
0.000359393
0.000159672
0.000336275
0.000165677
0.000312284
0.000171219
0.000287482
0.000176277
0.000261932
0.00018084
0.000235697
0.000184891
0.000208861
0.00018842
0.000181486
0.000191415
0.000153646
0.000193869
0.000125416
0.00019577
9.68689e-05
0.000197114
6.80596e-05
0.000197894
3.91097e-05
1.04716e-05
0.000198109
9.39331e-06
0.000588606
7.76387e-08
1.90686e-05
0.000575551
2.8873e-05
0.000563762
3.87139e-05
0.000553594
4.85253e-05
0.000543821
5.82554e-05
0.000533718
6.78668e-05
0.000522685
7.73207e-05
0.000510752
8.65875e-05
0.000497583
9.56339e-05
0.000483372
0.000104431
0.000467999
0.00011295
0.000451471
0.000121165
0.000433814
0.000129051
0.000415061
0.000136582
0.000395251
0.000143736
0.000374427
0.000150489
0.00035264
0.000156823
0.000329942
0.000162717
0.00030639
0.000168155
0.000282045
0.000173118
0.000256968
0.000177595
0.000231222
0.000181569
0.000204887
0.000185031
0.000178026
0.000187968
0.00015071
0.000190374
0.000123013
0.000192237
9.50083e-05
0.000193554
6.67471e-05
0.000194317
3.83512e-05
1.02728e-05
0.000194528
9.22456e-06
0.0005793
8.05947e-08
1.87293e-05
0.000566045
2.8361e-05
0.000554129
3.80284e-05
0.000543926
4.76668e-05
0.000534182
5.72252e-05
0.000524159
6.66667e-05
0.000513243
7.59533e-05
0.000501464
8.50556e-05
0.00048848
9.39409e-05
0.000474486
0.000102581
0.000459359
0.000110947
0.000443104
0.000119014
0.000425746
0.000126757
0.000407318
0.00013415
0.000387856
0.000141173
0.000367404
0.000147802
0.000346009
0.00015402
0.000323724
0.000159804
0.000300605
0.000165141
0.000276708
0.000170011
0.000252097
0.000174403
0.000226829
0.000178302
0.000200987
0.000181698
0.000174629
0.000184579
0.000147827
0.000186939
0.000120652
0.000188765
9.31762e-05
0.000190057
6.54512e-05
0.000190805
3.75965e-05
1.00554e-05
0.00019101
9.05875e-06
0.000570158
8.3255e-08
1.83961e-05
0.000556707
2.78578e-05
0.000544667
3.73547e-05
0.000534429
4.68227e-05
0.000524714
5.62121e-05
0.000514769
6.54863e-05
0.000503969
7.4608e-05
0.000492342
8.35482e-05
0.00047954
9.22747e-05
0.000465759
0.000100759
0.000450874
0.000108975
0.000434888
0.000116897
0.000417825
0.000124499
0.000399716
0.000131757
0.000380597
0.000138652
0.00036051
0.000145159
0.000339502
0.000151261
0.000317623
0.000156938
0.000294927
0.000162176
0.000271472
0.000166955
0.000247317
0.000171265
0.00022252
0.00017509
0.000197162
0.000178422
0.000171299
0.000181248
0.000145001
0.000183563
0.00011834
0.000185355
9.13867e-05
0.000186622
6.41894e-05
0.000187355
3.6868e-05
9.8632e-06
0.000187558
8.89578e-06
0.000561175
8.56265e-08
1.80686e-05
0.000547533
2.73633e-05
0.000535371
3.66922e-05
0.000525099
4.59927e-05
0.000515413
5.52155e-05
0.000505545
6.4325e-05
0.000494859
7.32842e-05
0.000483382
8.20646e-05
0.000470759
9.06347e-05
0.000457188
9.89669e-05
0.000442541
0.000107035
0.000426819
0.000114812
0.000410047
0.000122276
0.000392251
0.000129402
0.00037347
0.00013617
0.000353742
0.000142557
0.000333114
0.000148547
0.000311633
0.000154119
0.000289354
0.000159259
0.000266332
0.000163949
0.000242626
0.000168179
0.000218291
0.000171933
0.000193407
0.000175202
0.000168029
0.000177975
0.000142226
0.000180247
0.000116068
0.000182005
8.96232e-05
0.000183248
6.29422e-05
0.000183967
3.61416e-05
9.65217e-06
0.000184168
8.73557e-06
0.000552352
8.76868e-08
1.77466e-05
0.000538521
2.6877e-05
0.000526241
3.60407e-05
0.000515935
4.51761e-05
0.000506277
5.4235e-05
0.000496486
6.31821e-05
0.000485912
7.19813e-05
0.000474583
8.06044e-05
0.000462135
8.90205e-05
0.000448772
9.72024e-05
0.000434359
0.000105124
0.000418897
0.000112761
0.00040241
0.000120088
0.000384924
0.000127084
0.000366474
0.000133728
0.000347099
0.000139998
0.000326843
0.000145878
0.000305755
0.000151346
0.000283885
0.000156391
0.000261288
0.000160995
0.000238022
0.000165146
0.000214141
0.000168829
0.000189722
0.000172038
0.000164821
0.00017476
0.000139505
0.000176989
0.000113842
0.000178714
8.79e-05
0.000179935
6.17269e-05
0.000180641
3.54394e-05
9.46286e-06
0.000180841
8.57803e-06
0.000543683
8.94992e-08
1.743e-05
0.000529668
2.63988e-05
0.000517271
3.53998e-05
0.000506933
4.43727e-05
0.000497304
5.32701e-05
0.000487588
6.20574e-05
0.000477125
7.0699e-05
0.000465941
7.91672e-05
0.000453667
8.74317e-05
0.000440507
9.54658e-05
0.000426324
0.000103244
0.000411119
0.000110742
0.000394912
0.000117936
0.000377729
0.000124804
0.000359605
0.000131326
0.000340577
0.000137481
0.000320687
0.000143252
0.000299984
0.00014862
0.000278516
0.000153572
0.000256337
0.00015809
0.000233503
0.000162165
0.000210067
0.00016578
0.000186106
0.00016893
0.000161672
0.000171601
0.000136832
0.000173789
0.000111653
0.000175483
8.62008e-05
0.000176681
6.05245e-05
0.000177376
3.47379e-05
9.25602e-06
0.000177573
8.42312e-06
0.000535168
9.10555e-08
1.71187e-05
0.000520972
2.59283e-05
0.000508461
3.47692e-05
0.000498092
4.35821e-05
0.000488491
5.23206e-05
0.000478849
6.09505e-05
0.000468495
6.94369e-05
0.000457454
7.77527e-05
0.000445351
8.5868e-05
0.000432391
9.37567e-05
0.000418435