/*--------------------------------*- C++ -*----------------------------------*\
  =========                 |
  \\      /  F ield         | OpenFOAM: The Open Source CFD Toolbox
   \\    /   O peration     | Website:  https://openfoam.org
    \\  /    A nd           | Version:  6.0
     \\/     M anipulation  |
\*---------------------------------------------------------------------------*/
FoamFile
{
    version     2.0;
    format      ascii;
    class       volVectorField;
    location    "18";
    object      U;
}
// * * * * * * * * * * * * * * * * * * * * * * * * * * * * * * * * * * * * * //

dimensions      [0 1 -1 0 0 0 0];

internalField   nonuniform List<vector> 
34500
(
(0.999996 1.22687e-05 2.61542e-17)
(0.999949 1.061e-05 5.62157e-17)
(0.999865 -6.01722e-05 1.90602e-16)
(0.999771 -0.000171266 1.72912e-16)
(0.999689 -0.00027837 -9.8192e-17)
(0.999619 -0.00036922 2.746e-16)
(0.999558 -0.000477998 -2.06899e-16)
(0.999532 -0.000593227 -7.43356e-16)
(0.999521 -0.000722777 1.87925e-16)
(0.999546 -0.000844016 -5.26401e-17)
(0.99958 -0.00098128 -2.72018e-16)
(0.999629 -0.00116319 -6.42756e-16)
(0.999682 -0.00136718 -2.93079e-16)
(1.00008 -0.00179179 -2.46389e-16)
(0.994765 -0.00482622 5.27525e-17)
(0.999994 1.99622e-05 -3.4269e-17)
(0.999897 -5.85053e-05 3.84286e-17)
(0.999748 -0.000251491 -1.32865e-17)
(0.999608 -0.000445546 -8.76685e-17)
(0.999492 -0.000580606 -1.41616e-16)
(0.999377 -0.00069276 1.9997e-16)
(0.999277 -0.000873966 -2.34503e-16)
(0.999247 -0.00107471 8.6914e-16)
(0.999248 -0.00127092 -4.65751e-16)
(0.99931 -0.00143807 -3.71995e-16)
(0.999376 -0.00162143 -5.15732e-16)
(0.999474 -0.00189386 4.2889e-16)
(0.999484 -0.00218684 4.23622e-16)
(1.00009 -0.00277123 -1.38981e-16)
(0.99625 -0.00557761 -1.63437e-16)
(0.999989 4.71737e-06 2.42707e-17)
(0.999883 -0.000169606 -6.1119e-17)
(0.999741 -0.000432525 -2.4652e-16)
(0.999632 -0.00061747 -1.94617e-16)
(0.999555 -0.000695927 4.20093e-16)
(0.99946 -0.000759862 -6.89729e-17)
(0.999382 -0.00093069 4.92933e-16)
(0.999371 -0.00113262 -3.67842e-16)
(0.999399 -0.0012907 7.6573e-16)
(0.999487 -0.00139203 5.24752e-16)
(0.999566 -0.0014837 5.69834e-16)
(0.999689 -0.00166411 9.46581e-17)
(0.999592 -0.00187717 -3.97772e-16)
(1.00006 -0.00229335 -7.18974e-17)
(0.997748 -0.00401747 3.61308e-16)
(0.999973 -2.58595e-05 -1.3438e-17)
(0.999863 -0.000290033 5.6723e-17)
(0.999728 -0.000592329 8.71551e-17)
(0.999641 -0.000749587 -5.44397e-17)
(0.999592 -0.000780063 -3.57367e-16)
(0.999513 -0.000820298 -3.17934e-16)
(0.999444 -0.00100549 -3.44349e-16)
(0.999427 -0.00124619 -9.66119e-18)
(0.99945 -0.00142587 -2.47061e-16)
(0.999537 -0.00153836 -1.08776e-15)
(0.999615 -0.00162494 7.10406e-18)
(0.999763 -0.0017945 7.70157e-17)
(0.999623 -0.00202153 3.07905e-16)
(0.999888 -0.00236929 -2.56155e-16)
(0.998024 -0.00413755 7.28551e-17)
(0.999946 -6.05443e-05 -3.26205e-17)
(0.99983 -0.000393341 5.74159e-18)
(0.999691 -0.000714413 -7.17975e-17)
(0.999609 -0.00084927 9.60917e-17)
(0.999578 -0.00085736 -2.77736e-16)
(0.999513 -0.000897816 3.29586e-16)
(0.99945 -0.00111086 2.50802e-16)
(0.999415 -0.00140662 -2.26905e-16)
(0.999412 -0.00164847 -2.62573e-16)
(0.999477 -0.00183432 6.76247e-16)
(0.999544 -0.00199088 -6.79706e-16)
(0.999717 -0.00221708 -1.94446e-16)
(0.999614 -0.00249216 2.90899e-16)
(0.999737 -0.00278977 1.23934e-16)
(0.998334 -0.00442681 -7.71035e-16)
(0.999911 -9.06245e-05 4.12052e-17)
(0.999792 -0.000465812 -3.25745e-17)
(0.99965 -0.000790264 2.03541e-16)
(0.999576 -0.000911268 5.90115e-17)
(0.999575 -0.000912267 3.05888e-16)
(0.999552 -0.000948744 -5.98906e-16)
(0.999525 -0.00115724 -1.95685e-16)
(0.999495 -0.00146017 -2.43066e-16)
(0.999474 -0.00172545 4.99476e-16)
(0.99951 -0.0019605 -3.02148e-16)
(0.999556 -0.00217755 2.83922e-17)
(0.999735 -0.002452 2.7257e-16)
(0.999692 -0.00275303 -2.88609e-16)
(0.99972 -0.00297546 3.01755e-16)
(0.998746 -0.00433673 4.19874e-16)
(0.999872 -0.000111843 -2.47248e-17)
(0.999751 -0.000506844 -1.87231e-17)
(0.999604 -0.000829171 6.17164e-17)
(0.999535 -0.000953715 -2.1664e-16)
(0.999569 -0.000969352 2.95837e-16)
(0.999606 -0.00100398 5.60908e-16)
(0.999643 -0.00117958 1.07843e-16)
(0.999648 -0.0014402 4.4673e-16)
(0.999627 -0.00167619 -6.35095e-16)
(0.999642 -0.00191572 1.92869e-16)
(0.999662 -0.00216458 4.6656e-16)
(0.999824 -0.00247506 -1.05257e-16)
(0.999825 -0.00280876 -1.40076e-16)
(0.999802 -0.00299615 -4.76965e-17)
(0.999045 -0.00423742 1.315e-16)
(0.999832 -0.000122874 -3.95966e-17)
(0.999704 -0.00052172 -3.80871e-17)
(0.999539 -0.000846102 -1.88146e-16)
(0.999453 -0.00100188 1.29885e-16)
(0.999498 -0.00106928 -2.26411e-16)
(0.999578 -0.00113229 1.12063e-16)
(0.999678 -0.00128634 4.08815e-18)
(0.999729 -0.00149882 -1.40074e-17)
(0.999727 -0.00169 2.78583e-16)
(0.999736 -0.00191625 3.09989e-16)
(0.999741 -0.00218609 -1.7917e-16)
(0.999888 -0.00253376 7.62694e-17)
(0.999929 -0.00291494 5.09225e-16)
(0.999906 -0.00310881 -3.26662e-17)
(0.999304 -0.004288 -3.42209e-17)
(0.999791 -0.000124071 -7.96251e-18)
(0.999651 -0.000516389 -3.58025e-17)
(0.999452 -0.000850363 -4.42591e-17)
(0.99932 -0.00106401 -1.37666e-16)
(0.999339 -0.00122175 -2.19581e-16)
(0.999426 -0.00135593 -3.52105e-16)
(0.999564 -0.00152654 4.75363e-18)
(0.999655 -0.00171897 5.0936e-16)
(0.999683 -0.00188103 -1.68695e-16)
(0.999709 -0.00209686 -3.75447e-16)
(0.999728 -0.00238189 3.14277e-16)
(0.999884 -0.0027559 1.76798e-16)
(0.99998 -0.0031638 -9.48292e-16)
(1.00001 -0.00334401 3.88891e-16)
(0.999644 -0.00436276 2.67778e-17)
(0.999752 -0.000116994 8.87249e-17)
(0.9996 -0.000496406 1.25428e-16)
(0.999364 -0.000843976 -9.51171e-19)
(0.999172 -0.00112871 2.93361e-17)
(0.999137 -0.00139751 1.29167e-16)
(0.999197 -0.00163242 8.44804e-17)
(0.999343 -0.00185456 -5.64959e-18)
(0.999461 -0.00205879 -7.83097e-16)
(0.999526 -0.0022129 6.34494e-16)
(0.999591 -0.0024218 2.1261e-16)
(0.999653 -0.00270747 -1.11801e-16)
(0.999849 -0.00307729 -6.1565e-16)
(1.00002 -0.00346201 7.67551e-16)
(1.00012 -0.00357157 -2.51031e-16)
(1.0001 -0.00433358 -1.10753e-16)
(0.999716 -0.0001043 -5.2208e-17)
(0.99956 -0.000467725 -1.5854e-16)
(0.9993 -0.000827079 5.57914e-17)
(0.99906 -0.0011782 3.18275e-16)
(0.998968 -0.00155277 -1.83057e-16)
(0.998984 -0.00189045 -3.44903e-16)
(0.999119 -0.00217695 -6.07748e-17)
(0.99925 -0.00240907 5.08756e-16)
(0.999351 -0.0025661 -2.6716e-16)
(0.999466 -0.00276446 2.8619e-17)
(0.99959 -0.00303023 -7.78519e-17)
(0.999844 -0.00336125 8.45044e-17)
(1.00009 -0.00367707 -4.34694e-16)
(1.00025 -0.00367565 -3.04179e-16)
(1.00061 -0.00416815 -2.69198e-16)
(0.999683 -8.92127e-05 7.23892e-19)
(0.999536 -0.000436852 -8.64754e-19)
(0.99928 -0.000801883 1.15636e-16)
(0.999019 -0.00120092 -6.44629e-17)
(0.998889 -0.00165445 2.65369e-16)
(0.998866 -0.00207212 4.17218e-17)
(0.99898 -0.00241263 5.51717e-16)
(0.999117 -0.00267077 -8.99679e-17)
(0.999249 -0.00283057 -2.55308e-16)
(0.999413 -0.00301173 -2.39091e-16)
(0.999599 -0.00324192 8.63683e-17)
(0.999914 -0.00351349 1.46381e-16)
(1.00023 -0.0037418 4.13689e-16)
(1.00042 -0.00362921 1.86099e-17)
(1.00111 -0.0039156 2.45809e-16)
(0.999652 -7.49299e-05 -2.11255e-17)
(0.99953 -0.000410054 2.21029e-16)
(0.999305 -0.00077384 -2.95414e-17)
(0.999061 -0.00119647 -1.2918e-16)
(0.998922 -0.00169194 6.71112e-18)
(0.998877 -0.00215317 6.71728e-17)
(0.998972 -0.00252345 -3.166e-16)
(0.999108 -0.00279492 -2.10494e-16)
(0.999261 -0.00295236 1.12098e-16)
(0.999464 -0.00311267 -8.40201e-17)
(0.999702 -0.00330336 -2.14705e-16)
(1.00006 -0.00351514 -2.05486e-16)
(1.00043 -0.00366585 -6.53229e-16)
(1.00062 -0.00347411 -6.98787e-18)
(1.00154 -0.0036502 3.44465e-16)
(0.999621 -6.40796e-05 3.53919e-17)
(0.999535 -0.000392335 -1.22425e-16)
(0.999366 -0.000749781 4.58843e-17)
(0.999168 -0.00117333 -1.48891e-16)
(0.999051 -0.00167451 1.22404e-16)
(0.999004 -0.00214206 -1.55285e-16)
(0.999088 -0.00251521 -1.40831e-16)
(0.999221 -0.00278546 -2.42608e-16)
(0.999386 -0.00293645 4.75179e-16)
(0.999614 -0.00307847 3.04726e-16)
(0.999887 -0.00323758 4.24263e-16)
(1.00028 -0.00340536 6.39517e-16)
(1.00067 -0.00350533 3.2526e-16)
(1.00084 -0.00327771 1.03877e-15)
(1.00189 -0.0034361 -1.98982e-16)
(0.999588 -5.83688e-05 -1.91832e-17)
(0.999544 -0.000386655 8.80004e-17)
(0.999442 -0.000735986 -7.4046e-17)
(0.999312 -0.00114406 1.38175e-16)
(0.999238 -0.0016232 -8.82141e-17)
(0.999207 -0.00206758 1.89818e-16)
(0.99929 -0.00242223 1.78697e-16)
(0.999419 -0.00268076 6.92175e-16)
(0.999589 -0.00282514 -8.6626e-16)
(0.999829 -0.00295697 -1.12484e-16)
(1.00012 -0.0030996 -5.35412e-17)
(1.00053 -0.00324626 -6.73159e-16)
(1.00093 -0.0033258 3.32183e-16)
(1.00108 -0.00310052 -3.02297e-16)
(1.00216 -0.00331044 -1.2263e-16)
(0.999551 -5.85197e-05 1.63719e-17)
(0.999547 -0.000393752 -6.38911e-17)
(0.999515 -0.000736372 2.90638e-17)
(0.999459 -0.00112053 4.3814e-17)
(0.999441 -0.00156123 3.44366e-17)
(0.999439 -0.00196498 -2.33695e-16)
(0.999529 -0.00228908 6.63982e-17)
(0.999657 -0.00253192 -5.41306e-16)
(0.999828 -0.00267377 3.14512e-16)
(1.00007 -0.00280638 -2.28215e-16)
(1.00038 -0.00294923 -4.41653e-16)
(1.00079 -0.00309664 3.20806e-16)
(1.00119 -0.00318004 -2.63586e-16)
(1.00132 -0.00298138 -1.86716e-17)
(1.00238 -0.00328296 -8.46384e-17)
(0.999507 -6.43119e-05 -1.8144e-17)
(0.999539 -0.000412425 8.45329e-17)
(0.999569 -0.000752195 -1.78749e-17)
(0.999584 -0.00111122 -1.66152e-17)
(0.999623 -0.00150838 -1.08003e-16)
(0.999656 -0.00186583 1.27766e-16)
(0.999759 -0.002157 -1.87347e-16)
(0.999891 -0.00238626 5.08162e-17)
(1.00006 -0.00253235 -2.24223e-16)
(1.00031 -0.00267659 1.84328e-16)
(1.00062 -0.00283359 4.23766e-16)
(1.00103 -0.00299749 -1.55912e-16)
(1.00145 -0.00309909 2.48165e-16)
(1.00155 -0.002937 -3.64229e-16)
(1.00258 -0.00334403 2.97297e-16)
(0.999456 -7.49377e-05 7.78028e-19)
(0.999516 -0.000440229 -1.38078e-16)
(0.999595 -0.000782185 3.66973e-17)
(0.99967 -0.00112032 6.70846e-17)
(0.99976 -0.00147755 3.80427e-17)
(0.999829 -0.00179277 1.45001e-16)
(0.999951 -0.00205624 2.59386e-16)
(1.00009 -0.00227844 3.57647e-16)
(1.00027 -0.0024365 2.67742e-16)
(1.00053 -0.00260107 -6.53785e-17)
(1.00085 -0.00278114 1.06734e-17)
(1.00126 -0.00296962 3.77823e-16)
(1.00168 -0.00309386 -1.39568e-16)
(1.00178 -0.00296627 1.67612e-16)
(1.00276 -0.00347441 -2.47506e-16)
(0.999398 -8.91314e-05 1.75804e-17)
(0.999477 -0.000474158 8.63391e-17)
(0.99959 -0.000823575 -1.24328e-17)
(0.99971 -0.00114832 1.37592e-17)
(0.999843 -0.00147515 -8.95668e-17)
(0.999945 -0.00175853 -1.06189e-16)
(1.00009 -0.00200442 -4.57697e-16)
(1.00025 -0.00222826 -4.18109e-17)
(1.00044 -0.00240532 -3.04148e-18)
(1.00071 -0.00259563 6.49881e-17)
(1.00104 -0.00280231 1.44485e-16)
(1.00148 -0.00301637 -2.52058e-16)
(1.00191 -0.00316015 -3.71469e-16)
(1.00201 -0.00305769 -2.09184e-16)
(1.00295 -0.00365141 2.03305e-16)
(0.999334 -0.000105542 -1.55725e-17)
(0.999423 -0.000511278 -3.61651e-17)
(0.999555 -0.000872868 -5.07045e-18)
(0.999705 -0.00119311 1.17019e-16)
(0.99987 -0.00150191 8.13861e-17)
(1 -0.00176715 -1.96256e-17)
(1.00017 -0.0020077 3.78724e-16)
(1.00035 -0.00224226 -4.12317e-16)
(1.00057 -0.00244369 -2.53537e-16)
(1.00086 -0.00266185 -2.75613e-16)
(1.00122 -0.00289408 -7.70224e-16)
(1.00167 -0.00312956 3.69404e-16)
(1.00212 -0.00328505 3.38648e-16)
(1.00224 -0.00319447 8.30071e-17)
(1.00316 -0.00385338 -1.16869e-16)
(0.999264 -0.000122778 4.06125e-18)
(0.999356 -0.000549141 -4.96014e-17)
(0.999496 -0.000926825 8.28009e-17)
(0.999663 -0.00125146 -2.0698e-16)
(0.99985 -0.00155534 -5.48102e-17)
(1.00001 -0.00181673 2.70286e-16)
(1.00021 -0.00206424 -2.83588e-16)
(1.00042 -0.00231754 1.0791e-16)
(1.00067 -0.00254665 -1.21411e-16)
(1.00099 -0.00279184 -2.88495e-17)
(1.00137 -0.00304531 2.47655e-16)
(1.00185 -0.00329491 -3.97349e-16)
(1.00233 -0.00345232 -2.29334e-16)
(1.00247 -0.00336016 4.4922e-16)
(1.00338 -0.00406227 -1.40615e-16)
(0.999192 -0.000139745 1.41975e-17)
(0.99928 -0.000586038 4.70498e-17)
(0.999418 -0.000982838 -1.88273e-16)
(0.999593 -0.00131994 -1.45084e-16)
(0.999796 -0.00163109 1.91753e-16)
(0.999979 -0.00190192 -1.83713e-17)
(1.00021 -0.00216722 7.6963e-17)
(1.00045 -0.00244555 1.72646e-16)
(1.00074 -0.00270363 1.08842e-16)
(1.00109 -0.00297296 1.1214e-16)
(1.00152 -0.00324153 8.41304e-17)
(1.00203 -0.00349676 -3.53306e-16)
(1.00254 -0.00364624 1.12689e-16)
(1.0027 -0.00354019 -5.95375e-16)
(1.00362 -0.00426599 1.94975e-16)
(0.999118 -0.000155552 -4.12469e-18)
(0.999198 -0.000621056 5.0198e-18)
(0.999328 -0.00103934 -1.35434e-18)
(0.999505 -0.00139578 3.3908e-16)
(0.999718 -0.00172473 -3.6226e-16)
(0.999925 -0.00201619 1.36636e-16)
(1.00018 -0.00230797 1.60464e-16)
(1.00047 -0.00261555 -9.46719e-17)
(1.0008 -0.00290212 -6.90499e-17)
(1.0012 -0.00319138 2.31647e-16)
(1.00166 -0.00346819 -6.24257e-17)
(1.00221 -0.00372066 5.57833e-16)
(1.00275 -0.00385356 1.89195e-16)
(1.00293 -0.00372382 1.03182e-16)
(1.00387 -0.00445677 1.29546e-17)
(0.999043 -0.000169706 -2.57571e-17)
(0.999112 -0.000653997 9.34674e-17)
(0.999233 -0.00109566 1.51171e-16)
(0.999408 -0.00147705 -2.67839e-16)
(0.99963 -0.00183223 1.42005e-16)
(0.999858 -0.00215306 -2.10927e-16)
(1.00015 -0.0024775 -9.77281e-17)
(1.00047 -0.0028166 1.50752e-16)
(1.00085 -0.00312982 6.36173e-17)
(1.0013 -0.00343419 -4.40345e-16)
(1.0018 -0.00371255 4.86459e-16)
(1.0024 -0.00395479 9.45581e-17)
(1.00296 -0.00406406 -1.27358e-16)
(1.00316 -0.00390299 -2.13855e-16)
(1.00413 -0.00463018 7.86866e-17)
(0.998968 -0.000181916 2.62485e-18)
(0.999025 -0.000685227 -1.14158e-18)
(0.999136 -0.00115202 -1.31197e-16)
(0.999309 -0.00156282 7.04204e-17)
(0.999539 -0.0019507 1.63893e-16)
(0.99979 -0.00230712 -2.84189e-16)
(1.00011 -0.00266812 1.46688e-16)
(1.00048 -0.0030392 -4.62835e-16)
(1.00091 -0.00337627 1.2916e-16)
(1.0014 -0.00369077 -3.10709e-17)
(1.00196 -0.00396459 -2.68317e-16)
(1.00259 -0.0041904 -1.58524e-16)
(1.00317 -0.00427084 1.13184e-16)
(1.0034 -0.00407337 2.39613e-16)
(1.00439 -0.00478428 -3.5507e-16)
(0.998892 -0.000192252 3.56586e-19)
(0.998937 -0.000715479 -2.38498e-16)
(0.99904 -0.00120917 1.47113e-17)
(0.999213 -0.00165291 -3.35229e-17)
(0.999453 -0.00207803 -2.51485e-16)
(0.999728 -0.00247407 3.84415e-16)
(1.00009 -0.00287343 -1.25241e-16)
(1.0005 -0.00327559 5.21182e-16)
(1.00098 -0.00363316 -4.05966e-17)
(1.00152 -0.00395304 4.47551e-16)
(1.00212 -0.00421717 -1.21189e-16)
(1.00278 -0.00442172 -1.17309e-16)
(1.00339 -0.00446974 -4.04927e-16)
(1.00363 -0.00423252 -1.58267e-16)
(1.00465 -0.00491991 4.77067e-17)
(0.998817 -0.000200904 1.95571e-17)
(0.99885 -0.000745696 4.85295e-17)
(0.998948 -0.00126822 5.03969e-17)
(0.999124 -0.00174766 -1.06347e-16)
(0.999375 -0.00221314 -9.67039e-18)
(0.999675 -0.00265092 -3.22981e-16)
(1.00007 -0.00308883 -1.50404e-16)
(1.00053 -0.00352013 -2.47628e-16)
(1.00106 -0.00389455 9.64611e-17)
(1.00164 -0.00421546 3.47673e-16)
(1.00228 -0.00446567 2.18314e-17)
(1.00298 -0.00464541 5.08764e-17)
(1.00361 -0.00465884 4.48322e-16)
(1.00386 -0.00438017 8.50106e-17)
(1.00491 -0.00503882 3.33874e-16)
(0.99874 -0.000208293 -1.65232e-17)
(0.998764 -0.00077684 2.88286e-17)
(0.99886 -0.00133029 -1.3161e-16)
(0.999041 -0.00184766 1.21249e-16)
(0.999307 -0.00235528 2.49309e-16)
(0.999635 -0.00283549 2.15768e-16)
(1.00007 -0.00331082 -1.20512e-16)
(1.00057 -0.00376863 3.91694e-16)
(1.00115 -0.00415622 6.68968e-17)
(1.00178 -0.00447435 -5.87184e-16)
(1.00245 -0.00470732 -4.05855e-16)
(1.00319 -0.00485976 -7.35598e-17)
(1.00384 -0.00483736 2.67882e-16)
(1.00409 -0.00451627 -4.48524e-17)
(1.00516 -0.00514282 3.38373e-17)
(0.998662 -0.000214829 4.34951e-17)
(0.998679 -0.000809806 5.97011e-17)
(0.998775 -0.00139646 1.21489e-16)
(0.998965 -0.00195351 -7.3417e-17)
(0.999249 -0.00250418 -1.48923e-16)
(0.999606 -0.00302635 -1.83394e-16)
(1.00008 -0.00353716 2.38476e-16)
(1.00063 -0.00401842 -5.05396e-16)
(1.00124 -0.00441561 -3.1253e-16)
(1.00192 -0.00472763 1.15526e-16)
(1.00263 -0.00494083 5.46021e-16)
(1.00339 -0.00506432 -4.0565e-17)
(1.00405 -0.00500565 -5.143e-16)
(1.00431 -0.00464213 4.55262e-16)
(1.00541 -0.00523357 -9.5277e-17)
(0.99858 -0.000221029 -5.4718e-17)
(0.998592 -0.0008453 -2.8996e-17)
(0.998693 -0.00146751 -1.74384e-17)
(0.998895 -0.00206564 2.20575e-17)
(0.999199 -0.00265947 -1.1796e-16)
(0.999587 -0.00322236 2.6363e-16)
(1.0001 -0.0037661 -7.06895e-17)
(1.00069 -0.00426759 5.05734e-16)
(1.00135 -0.00467107 6.63678e-16)
(1.00206 -0.00497422 5.41508e-17)
(1.00281 -0.00516579 -6.85127e-17)
(1.0036 -0.00525938 1.87373e-16)
(1.00427 -0.00516446 3.33317e-16)
(1.00453 -0.00475874 -4.64268e-17)
(1.00564 -0.00531354 -4.00523e-16)
(0.998494 -0.000227302 5.04949e-17)
(0.998505 -0.000883845 2.83979e-17)
(0.998612 -0.00154393 1.30393e-16)
(0.998829 -0.00218421 6.39203e-17)
(0.999156 -0.00282084 5.4018e-17)
(0.999576 -0.00342269 -4.56737e-16)
(1.00012 -0.00399654 2.06259e-16)
(1.00076 -0.00451507 -5.395e-16)
(1.00146 -0.00492182 -5.815e-16)
(1.00221 -0.00521384 -2.76676e-16)
(1.00298 -0.00538248 9.1046e-17)
(1.00379 -0.00544572 -2.37214e-16)
(1.00447 -0.00531497 -3.36971e-16)
(1.00474 -0.00486775 -8.35966e-17)
(1.00586 -0.00538476 2.35345e-16)
(0.998403 -0.000234075 -2.0265e-17)
(0.998416 -0.00092571 -4.35877e-17)
(0.998532 -0.00162585 -1.39838e-16)
(0.998766 -0.00230904 9.73998e-19)
(0.999118 -0.00298767 -5.96486e-17)
(0.99957 -0.00362639 3.48828e-16)
(1.00015 -0.00422739 1.94528e-16)
(1.00083 -0.00475991 -1.82631e-16)
(1.00157 -0.00516731 1.38761e-17)
(1.00235 -0.00544639 2.67331e-17)
(1.00316 -0.00559124 -1.40659e-16)
(1.00399 -0.00562404 1.49764e-17)
(1.00467 -0.00545801 -4.29936e-16)
(1.00493 -0.00496982 -1.2957e-16)
(1.00607 -0.00544863 -1.4185e-17)
(0.998306 -0.000241604 -3.50943e-17)
(0.998324 -0.00097098 -2.94075e-17)
(0.99845 -0.00171313 -3.45261e-17)
(0.998704 -0.0024397 -1.87861e-17)
(0.999081 -0.00315926 2.77132e-16)
(0.999567 -0.00383262 -2.36395e-16)
(1.00019 -0.0044579 -1.97076e-16)
(1.0009 -0.00500159 4.29139e-16)
(1.00168 -0.00540735 2.96059e-17)
(1.00249 -0.00567211 3.82752e-16)
(1.00332 -0.00579268 2.10048e-17)
(1.00417 -0.00579522 -4.1454e-17)
(1.00486 -0.00559462 3.80836e-16)
(1.00512 -0.00506628 3.84553e-17)
(1.00627 -0.00550601 2.64642e-16)
(0.998203 -0.000250126 1.48548e-17)
(0.998228 -0.00101951 1.53577e-17)
(0.998366 -0.00180529 1.43806e-16)
(0.99864 -0.00257543 -7.33333e-18)
(0.999045 -0.00333462 -5.82021e-17)
(0.999564 -0.00404032 5.01098e-16)
(1.00022 -0.00468712 -1.50016e-16)
(1.00097 -0.0052395 2.91952e-16)
(1.00178 -0.00564175 1.11402e-16)
(1.00263 -0.0058912 1.10915e-16)
(1.00348 -0.00598732 2.15863e-16)
(1.00435 -0.00595999 1.04911e-16)
(1.00505 -0.00572556 1.98314e-16)
(1.0053 -0.00515776 -2.54446e-16)
(1.00647 -0.00555841 -1.78629e-16)
(0.998094 -0.000259706 1.67381e-17)
(0.998127 -0.00107106 8.29585e-18)
(0.998278 -0.00190172 -1.75252e-16)
(0.998573 -0.00271533 -4.77796e-17)
(0.999006 -0.00351276 -3.64765e-17)
(0.999559 -0.00424858 -4.44779e-16)
(1.00025 -0.00491441 -1.15672e-16)
(1.00104 -0.00547333 -4.74154e-16)
(1.00188 -0.00587056 2.53725e-16)
(1.00276 -0.00610404 -1.7043e-16)
(1.00363 -0.00617579 -1.63169e-16)
(1.00451 -0.00611915 -2.40489e-17)
(1.00522 -0.00585175 5.86426e-17)
(1.00547 -0.00524536 2.73066e-16)
(1.00664 -0.00560693 1.73e-16)
(0.997978 -0.000270387 3.64924e-17)
(0.998021 -0.0011252 2.7977e-17)
(0.998186 -0.00200161 -5.68195e-18)
(0.998503 -0.00285833 2.12877e-16)
(0.998963 -0.00369247 -5.78176e-18)
(0.999549 -0.00445629 1.21795e-16)
(1.00027 -0.00513889 -1.388e-16)
(1.0011 -0.00570253 1.91146e-16)
(1.00197 -0.00609364 -3.11546e-16)
(1.00287 -0.0063108 -3.19283e-16)
(1.00377 -0.00635847 1.01323e-16)
(1.00467 -0.00627316 -1.70876e-16)
(1.00538 -0.00597359 -8.56616e-17)
(1.00563 -0.0053292 -2.34604e-16)
(1.00682 -0.00565218 -3.46063e-16)
(0.997855 -0.000282072 -6.47727e-17)
(0.99791 -0.00118149 -3.15731e-17)
(0.998088 -0.00210412 -3.48707e-17)
(0.998427 -0.00300336 -2.65089e-16)
(0.998915 -0.00387271 -6.24508e-17)
(0.999533 -0.00466254 1.078e-16)
(1.00029 -0.00535999 2.42569e-16)
(1.00115 -0.00592691 -2.73104e-16)
(1.00206 -0.00631108 -2.86047e-16)
(1.00298 -0.00651181 4.05445e-16)
(1.0039 -0.00653586 -4.97419e-17)
(1.00481 -0.00642261 1.5459e-16)
(1.00552 -0.00609172 1.28259e-17)
(1.00578 -0.00541014 -1.70808e-16)
(1.00698 -0.00569449 5.68733e-17)
(0.997725 -0.000294664 4.50347e-17)
(0.997792 -0.00123939 1.01978e-16)
(0.997985 -0.00220834 2.09819e-16)
(0.998345 -0.00314933 5.44811e-17)
(0.998861 -0.00405233 -8.15761e-17)
(0.999511 -0.00486638 -9.23512e-17)
(1.0003 -0.00557702 -7.06625e-17)
(1.00119 -0.00614608 3.49364e-16)
(1.00213 -0.00652285 2.22476e-16)
(1.00308 -0.0067073 9.20512e-18)
(1.00402 -0.00670833 -3.1993e-17)
(1.00495 -0.00656791 -1.47625e-16)
(1.00566 -0.00620653 -8.52625e-17)
(1.00592 -0.00548837 3.29325e-16)
(1.00714 -0.00573482 8.75677e-17)
(0.997589 -0.00030797 -3.1535e-17)
(0.997668 -0.00129843 2.82117e-17)
(0.997875 -0.00231345 -1.61414e-17)
(0.998257 -0.00329524 1.22834e-16)
(0.9988 -0.00423044 3.26268e-16)
(0.999481 -0.00506713 -2.76591e-17)
(1.0003 -0.00578964 1.02701e-16)
(1.00122 -0.00636004 -2.22979e-16)
(1.00219 -0.00672919 2.44381e-16)
(1.00317 -0.00689769 -1.27628e-17)
(1.00412 -0.00687641 -6.90645e-17)
(1.00507 -0.00670969 2.35226e-17)
(1.00579 -0.00631865 -1.0148e-16)
(1.00605 -0.00556478 4.12815e-17)
(1.00729 -0.00577359 -8.16276e-17)
(0.997447 -0.000321828 1.84912e-17)
(0.997538 -0.00135807 -1.01399e-16)
(0.997758 -0.00241865 -2.3845e-16)
(0.998162 -0.00344019 -5.1281e-17)
(0.998731 -0.00440614 -1.6761e-16)
(0.999442 -0.00526409 -7.15394e-17)
(1.0003 -0.00599738 2.06528e-18)
(1.00125 -0.0065686 2.01103e-16)
(1.00224 -0.00693016 -6.42604e-17)
(1.00324 -0.00708322 -5.49828e-17)
(1.00422 -0.00704041 1.7013e-16)
(1.00518 -0.00684822 3.05598e-16)
(1.00592 -0.00642827 8.33641e-17)
(1.00618 -0.00563922 2.35476e-16)
(1.00744 -0.00581122 1.09708e-16)
(0.997299 -0.000336022 3.47926e-17)
(0.997401 -0.0014179 9.9026e-18)
(0.997635 -0.00252328 3.03425e-16)
(0.998059 -0.00358344 -3.80847e-17)
(0.998654 -0.00457885 3.75331e-17)
(0.999395 -0.00545689 -5.99021e-17)
(1.00028 -0.00620019 8.47592e-17)
(1.00126 -0.00677197 -1.38295e-16)
(1.00228 -0.00712614 7.09685e-19)
(1.00331 -0.00726437 -2.47108e-16)
(1.00431 -0.00720084 -2.2667e-17)
(1.00529 -0.00698404 1.0086e-16)
(1.00603 -0.00653594 -3.03387e-16)
(1.0063 -0.00571237 -6.75581e-17)
(1.00758 -0.00584837 3.31963e-18)
(0.997145 -0.00035039 -1.69692e-17)
(0.997258 -0.00147749 9.91546e-17)
(0.997504 -0.00262674 -1.51533e-16)
(0.997949 -0.00372439 4.34908e-17)
(0.99857 -0.00474802 -2.16166e-16)
(0.999339 -0.00564518 3.69497e-17)
(1.00025 -0.00639793 -1.22148e-16)
(1.00126 -0.00697022 -9.34311e-17)
(1.00231 -0.00731739 2.13408e-16)
(1.00337 -0.00744152 2.68364e-16)
(1.00439 -0.00735812 -1.89954e-17)
(1.00538 -0.00711753 2.14135e-16)
(1.00614 -0.00664194 1.29685e-16)
(1.00641 -0.00578457 -1.38609e-16)
(1.00773 -0.00588291 -7.58107e-18)
(0.996986 -0.000364743 -2.1394e-17)
(0.997108 -0.00153653 -2.00716e-18)
(0.997367 -0.00272863 1.21489e-16)
(0.997832 -0.00386261 -8.16424e-17)
(0.998477 -0.00491341 9.19821e-17)
(0.999275 -0.00582894 2.13471e-16)
(1.00022 -0.00659085 1.2789e-17)
(1.00126 -0.0071638 -1.08291e-16)
(1.00234 -0.00750448 -2.17699e-16)
(1.00342 -0.00761527 -7.11624e-17)
(1.00446 -0.00751287 -5.54815e-17)
(1.00547 -0.00724931 -4.59388e-16)
(1.00624 -0.00674692 -3.96262e-17)
(1.00652 -0.00585635 -2.07901e-16)
(1.00786 -0.00591987 -4.71937e-17)
(0.996821 -0.000378957 -5.94686e-18)
(0.996952 -0.00159474 -1.18149e-16)
(0.997223 -0.00282857 -2.05143e-16)
(0.997707 -0.0039978 5.63989e-17)
(0.998376 -0.00507481 1.81801e-16)
(0.999202 -0.00600815 -6.78635e-17)
(1.00017 -0.00677905 -9.75533e-17)
(1.00124 -0.00735295 2.61996e-16)
(1.00235 -0.00768778 -7.05527e-17)
(1.00346 -0.00778605 -5.898e-17)
(1.00452 -0.00766549 -3.33024e-16)
(1.00556 -0.00737966 3.73814e-18)
(1.00633 -0.006851 6.52353e-16)
(1.00663 -0.00592772 -1.52488e-16)
(1.00801 -0.00595784 -1.27439e-17)
(0.99665 -0.000392899 -2.19245e-17)
(0.996789 -0.00165196 5.26174e-17)
(0.997073 -0.00292641 3.1227e-17)
(0.997576 -0.00412986 1.45675e-16)
(0.998268 -0.00523232 -1.19572e-16)
(0.99912 -0.00618308 -7.71317e-17)
(1.00012 -0.00696304 -5.1493e-17)
(1.00122 -0.00753832 -1.53833e-16)
(1.00236 -0.00786796 1.43713e-16)
(1.00349 -0.00795451 3.95251e-17)
(1.00458 -0.0078166 4.22642e-16)
(1.00563 -0.00750918 2.51092e-16)
(1.00642 -0.00695474 -8.65064e-16)
(1.00673 -0.00599957 6.11942e-16)
(1.00815 -0.00599528 -1.03977e-17)
(0.996475 -0.000406502 1.27018e-17)
(0.996621 -0.00170803 -3.33763e-17)
(0.996916 -0.00302201 1.10781e-16)
(0.997437 -0.00425875 -1.38324e-16)
(0.998152 -0.00538601 1.12664e-16)
(0.999031 -0.00635396 2.23371e-16)
(1.00006 -0.00714315 1.45623e-16)
(1.00119 -0.00772033 -6.16813e-17)
(1.00235 -0.00804553 9.63281e-17)
(1.00351 -0.00812117 5.56453e-18)
(1.00463 -0.00796667 -4.36309e-16)
(1.00571 -0.00763824 -1.58941e-17)
(1.00651 -0.00705845 4.04081e-16)
(1.00683 -0.00607185 -3.86005e-16)
(1.00829 -0.00603605 1.48421e-16)
(0.996295 -0.000419695 -2.04425e-17)
(0.996446 -0.00176294 -6.60332e-17)
(0.996752 -0.0031154 -7.34045e-17)
(0.997292 -0.00438462 -1.05558e-16)
(0.99803 -0.0055362 -7.27567e-17)
(0.998935 -0.0065213 -1.54573e-16)
(0.999993 -0.00732006 1.14286e-16)
(1.00115 -0.00789975 1.22607e-16)
(1.00234 -0.00822125 -9.4464e-17)
(1.00353 -0.00828677 7.47998e-17)
(1.00467 -0.00811641 1.23905e-16)
(1.00577 -0.00776751 -2.20205e-16)
(1.0066 -0.00716275 3.84063e-16)
(1.00693 -0.00614522 1.73413e-16)
(1.00842 -0.00607897 -4.24793e-17)
(0.99611 -0.000432466 1.31405e-17)
(0.996266 -0.00181665 5.92158e-17)
(0.996583 -0.00320664 9.8119e-18)
(0.99714 -0.00450765 8.31065e-17)
(0.9979 -0.0056832 1.35698e-16)
(0.998831 -0.00668549 -1.6341e-16)
(0.999917 -0.00749422 -2.30224e-16)
(1.0011 -0.00807707 2.4329e-16)
(1.00233 -0.00839564 -1.93051e-16)
(1.00354 -0.00845178 -2.93697e-16)
(1.00471 -0.00826618 1.14249e-16)
(1.00584 -0.00789723 1.16066e-16)
(1.00668 -0.00726772 2.81226e-17)
(1.00704 -0.0062195 -3.98693e-16)
(1.00856 -0.00612335 5.6359e-17)
(0.995921 -0.000444799 1.11534e-17)
(0.99608 -0.00186924 4.71668e-17)
(0.996407 -0.00329591 -2.94232e-17)
(0.996982 -0.00462813 8.09983e-18)
(0.997763 -0.00582749 2.66591e-17)
(0.99872 -0.00684717 2.7225e-16)
(0.999835 -0.0076664 2.80914e-16)
(1.00105 -0.00825312 8.94313e-18)
(1.00231 -0.00856947 1.00317e-16)
(1.00355 -0.00861694 1.41674e-16)
(1.00475 -0.00841665 2.27505e-16)
(1.0059 -0.00802803 -9.6334e-18)
(1.00676 -0.00737393 -9.35135e-17)
(1.00714 -0.00629519 -1.68312e-17)
(1.0087 -0.00616996 -9.29562e-17)
(0.995726 -0.000456727 -3.87761e-17)
(0.995889 -0.00192077 -7.09593e-17)
(0.996226 -0.00338339 -4.82793e-17)
(0.996817 -0.00474642 -8.51223e-17)
(0.997621 -0.00596948 -2.70069e-16)
(0.998603 -0.00700685 -1.67584e-17)
(0.999746 -0.00783711 5.98589e-18)
(1.00099 -0.00842842 -3.72183e-16)
(1.00228 -0.0087433 -8.9984e-17)
(1.00356 -0.00878274 1.11712e-16)
(1.00478 -0.00856822 -1.66621e-16)
(1.00596 -0.00816021 5.89391e-17)
(1.00685 -0.00748158 -8.38584e-16)
(1.00724 -0.00637238 5.32897e-16)
(1.00885 -0.00621815 1.92608e-17)
(0.995528 -0.000468273 4.00994e-17)
(0.995692 -0.0019714 5.11794e-18)
(0.996039 -0.00346936 1.08855e-16)
(0.996647 -0.0048629 1.54799e-16)
(0.997472 -0.00610976 6.13636e-17)
(0.998481 -0.00716522 8.84349e-17)
(0.999652 -0.00800719 -6.80737e-17)
(1.00093 -0.00860382 2.69517e-16)
(1.00225 -0.00891791 2.18182e-16)
(1.00356 -0.0089499 2.0562e-16)
(1.00482 -0.00872158 -6.41677e-17)
(1.00603 -0.0082944 -1.26598e-16)
(1.00693 -0.0075913 7.92344e-16)
(1.00735 -0.00645169 -5.41989e-16)
(1.00899 -0.00626915 -5.66556e-17)
(0.995325 -0.000479501 -8.03733e-18)
(0.99549 -0.00202124 1.2814e-16)
(0.995847 -0.00355408 -7.40701e-17)
(0.996472 -0.00497798 -1.17491e-16)
(0.997318 -0.00624879 2.54327e-17)
(0.998352 -0.00732282 -1.61557e-16)
(0.999553 -0.00817713 8.81105e-17)
(1.00086 -0.00877981 -1.09025e-16)
(1.00222 -0.00909377 -2.63035e-16)
(1.00356 -0.00911882 -5.55239e-17)
(1.00485 -0.00887701 4.3e-16)
(1.00609 -0.00843073 2.1292e-16)
(1.00701 -0.00770308 -4.94514e-16)
(1.00746 -0.00653291 5.43128e-16)
(1.00914 -0.00632198 -9.38789e-17)
(0.995117 -0.000490457 2.84683e-17)
(0.995283 -0.00207049 -2.49115e-17)
(0.99565 -0.00363788 2.19693e-17)
(0.996291 -0.0050921 9.25393e-17)
(0.997159 -0.00638718 3.03396e-17)
(0.998219 -0.00748034 1.64958e-17)
(0.999449 -0.00834774 -2.38438e-16)
(1.00079 -0.00895719 4.09412e-17)
(1.00218 -0.00927163 -1.28982e-16)
(1.00356 -0.00929016 -5.20459e-16)
(1.00488 -0.0090351 -2.80049e-18)
(1.00615 -0.00856977 -1.4168e-16)
(1.0071 -0.00781746 -2.31167e-16)
(1.00757 -0.0066166 1.2696e-16)
(1.00929 -0.00637776 9.36467e-17)
(0.994906 -0.000501222 -1.32418e-20)
(0.995071 -0.0021193 -8.40794e-17)
(0.995447 -0.00372104 -1.2555e-17)
(0.996105 -0.0052057 -1.52633e-16)
(0.996994 -0.00652541 -3.26942e-17)
(0.998081 -0.00763831 -2.22609e-16)
(0.999341 -0.00851949 6.75309e-17)
(1.00072 -0.00913641 -2.56519e-17)
(1.00214 -0.00945192 3.84272e-16)
(1.00356 -0.00946431 4.53836e-16)
(1.00491 -0.00919616 -1.63008e-16)
(1.00621 -0.00871172 2.28082e-16)
(1.00719 -0.00793454 6.2617e-16)
(1.00769 -0.00670275 -2.48418e-16)
(1.00945 -0.00643582 3.36085e-17)
(0.99469 -0.000511852 -3.12209e-17)
(0.994854 -0.00216789 -1.54789e-17)
(0.99524 -0.00380391 1.55466e-16)
(0.995914 -0.00531922 1.1945e-16)
(0.996824 -0.00666407 8.44136e-17)
(0.997938 -0.0077974 1.00272e-16)
(0.999229 -0.00869315 -2.19808e-17)
(1.00064 -0.00931826 -5.57543e-18)
(1.0021 -0.00963535 1.26265e-16)
(1.00355 -0.00964191 -1.46322e-16)
(1.00494 -0.00936076 -3.14906e-16)
(1.00628 -0.00885712 -3.74548e-16)
(1.00728 -0.00805486 1.17459e-17)
(1.00781 -0.006792 2.07999e-17)
(1.00962 -0.00649746 1.03367e-17)
(0.99447 -0.00052243 3.40128e-17)
(0.994632 -0.0022164 9.18302e-17)
(0.995027 -0.00388679 -4.44376e-17)
(0.995717 -0.00543308 -7.34595e-17)
(0.99665 -0.0068036 -1.94232e-16)
(0.99779 -0.00795807 -4.14468e-17)
(0.999113 -0.00886913 1.18862e-16)
(1.00056 -0.00950308 -7.84723e-17)
(1.00206 -0.00982225 -4.04007e-16)
(1.00355 -0.00982322 1.33918e-16)
(1.00498 -0.00952906 1.37954e-16)
(1.00634 -0.00900601 2.02664e-16)
(1.00738 -0.00817828 4.20562e-17)
(1.00793 -0.00688398 -1.40096e-16)
(1.00979 -0.00656151 2.00886e-17)