/*--------------------------------*- C++ -*----------------------------------*\
  =========                 |
  \\      /  F ield         | OpenFOAM: The Open Source CFD Toolbox
   \\    /   O peration     | Website:  https://openfoam.org
    \\  /    A nd           | Version:  6.0
     \\/     M anipulation  |
\*---------------------------------------------------------------------------*/
FoamFile
{
    version     2.0;
    format      ascii;
    class       volVectorField;
    location    "18";
    object      U;
}
// * * * * * * * * * * * * * * * * * * * * * * * * * * * * * * * * * * * * * //

dimensions      [0 1 -1 0 0 0 0];

internalField   nonuniform List<vector> 
62000
(
(0.999996 -1.51506e-05 -1.88172e-20)
(0.999991 -3.43368e-05 6.77775e-20)
(0.999982 -5.35118e-05 -2.35977e-19)
(0.999969 -7.13511e-05 -4.64432e-20)
(0.999952 -8.704e-05 -3.62879e-19)
(0.999931 -9.99608e-05 1.10482e-19)
(0.999907 -0.000109871 2.40069e-19)
(0.999878 -0.000116977 3.51365e-19)
(0.999844 -0.000122021 -6.05941e-19)
(0.999806 -0.000126212 -3.34533e-19)
(0.999763 -0.0001312 -8.61867e-20)
(0.999715 -0.000138892 -1.29741e-19)
(0.999663 -0.000151323 4.41843e-20)
(0.999606 -0.000170429 3.37884e-19)
(0.999545 -0.000197901 7.78899e-19)
(0.999481 -0.000235011 -8.91069e-19)
(0.999415 -0.000282504 3.47638e-19)
(0.999348 -0.000340597 -7.49573e-19)
(0.99928 -0.000408931 3.06984e-21)
(0.999214 -0.000486704 3.58875e-19)
(0.99915 -0.000572717 -7.0108e-19)
(0.999089 -0.000665545 -3.09946e-19)
(0.999032 -0.000763612 5.10644e-19)
(0.99898 -0.000865364 -1.11778e-18)
(0.998933 -0.000969284 7.13915e-19)
(0.998891 -0.00107405 -8.0448e-19)
(0.998855 -0.00117846 7.48577e-19)
(0.998825 -0.00128158 -1.47787e-19)
(0.998801 -0.00138263 5.34381e-19)
(0.998782 -0.00148107 2.62264e-19)
(0.998769 -0.00157656 1.01696e-18)
(0.998761 -0.00166897 3.40779e-19)
(0.998757 -0.0017584 -9.8001e-20)
(0.998756 -0.00184519 -6.49782e-19)
(0.998758 -0.00192996 5.0686e-19)
(0.998763 -0.0020136 3.5363e-19)
(0.998768 -0.00209733 2.17559e-20)
(0.998774 -0.00218268 2.65605e-20)
(0.998779 -0.00227153 -7.08548e-19)
(0.998782 -0.0023661 -5.54508e-20)
(0.998783 -0.00246894 -2.21899e-19)
(0.998781 -0.00258293 -1.87004e-19)
(0.998777 -0.0027113 3.98419e-19)
(0.998768 -0.00285765 -2.67739e-19)
(0.998756 -0.00302596 -1.57443e-19)
(0.998741 -0.00322069 1.14979e-19)
(0.998722 -0.00344689 1.98637e-19)
(0.998699 -0.00371039 -2.00757e-20)
(0.998673 -0.00401806 6.73892e-20)
(0.998644 -0.00437826 2.34566e-19)
(0.998611 -0.0048014 2.61082e-19)
(0.998573 -0.00530081 8.73772e-20)
(0.998531 -0.00589418 8.60453e-20)
(0.998479 -0.00660538 -5.1988e-21)
(0.998417 -0.00746817 1.15076e-19)
(0.998319 -0.00853176 2.33891e-20)
(0.998214 -0.00987018 -7.88084e-20)
(0.997838 -0.0116232 -9.57811e-20)
(0.997412 -0.0139146 6.27275e-20)
(0.993001 -0.0170987 -6.0759e-21)
(0.999974 -6.54469e-05 3.29623e-20)
(0.999967 -8.49183e-05 -2.87351e-20)
(0.999954 -0.000100579 -8.02062e-20)
(0.999933 -0.000109879 -6.28444e-20)
(0.999904 -0.000112546 9.72861e-20)
(0.999868 -0.000109212 1.91487e-19)
(0.999823 -0.00010166 -2.21193e-19)
(0.999769 -9.26768e-05 5.40632e-20)
(0.999707 -8.59429e-05 -4.71824e-19)
(0.999635 -8.56144e-05 6.03728e-19)
(0.999554 -9.60136e-05 1.46731e-19)
(0.999465 -0.000121109 -9.53255e-21)
(0.999369 -0.000164213 -7.80761e-20)
(0.999267 -0.000227584 1.25215e-19)
(0.999163 -0.000312287 -1.29673e-19)
(0.999057 -0.000418124 2.21685e-19)
(0.998952 -0.00054368 9.59109e-19)
(0.99885 -0.000686556 1.24279e-18)
(0.998753 -0.000843597 -8.34742e-19)
(0.998662 -0.00101123 -8.90918e-19)
(0.99858 -0.00118571 2.40631e-19)
(0.998506 -0.00136345 -2.01985e-19)
(0.998443 -0.00154106 -8.3064e-19)
(0.99839 -0.00171565 1.81446e-18)
(0.998348 -0.00188467 -9.42715e-20)
(0.998317 -0.00204607 1.1886e-19)
(0.998298 -0.00219812 -1.31667e-18)
(0.998289 -0.00233944 5.98132e-19)
(0.998291 -0.00246888 -6.30688e-19)
(0.998303 -0.00258556 -1.06574e-18)
(0.998324 -0.0026888 -2.47116e-19)
(0.998353 -0.00277819 -6.82211e-19)
(0.998389 -0.0028536 8.86684e-19)
(0.99843 -0.00291528 3.97585e-19)
(0.998476 -0.00296383 -1.0328e-18)
(0.998524 -0.00300031 -9.15954e-19)
(0.998573 -0.00302619 7.81333e-20)
(0.998621 -0.00304338 2.74043e-19)
(0.998668 -0.00305415 8.59856e-19)
(0.998712 -0.00306105 -4.63262e-19)
(0.998753 -0.00306682 -1.62443e-20)
(0.99879 -0.00307426 1.45539e-19)
(0.998824 -0.00308612 2.76805e-19)
(0.998855 -0.00310489 2.91282e-19)
(0.998884 -0.00313276 -2.32151e-19)
(0.998911 -0.00317139 -9.71987e-20)
(0.998939 -0.0032218 5.40707e-20)
(0.998968 -0.00328427 1.36443e-20)
(0.999001 -0.00335802 -1.15019e-19)
(0.99904 -0.00344112 -4.3354e-20)
(0.999086 -0.00353006 -4.95914e-20)
(0.99914 -0.0036193 -9.68955e-20)
(0.999206 -0.00370061 -2.14511e-19)
(0.999282 -0.003762 9.81145e-20)
(0.999368 -0.00378453 -1.26618e-19)
(0.999456 -0.00374352 -5.37284e-20)
(0.999514 -0.00359052 1.31163e-20)
(0.999582 -0.00326811 -3.84018e-20)
(0.999378 -0.00250314 -4.47444e-20)
(1.00081 -0.000463602 2.33078e-21)
(0.99996 -7.6461e-05 4.78059e-20)
(0.999958 -7.24146e-05 -9.86794e-20)
(0.99995 -6.31025e-05 1.98946e-19)
(0.999936 -4.70984e-05 8.45958e-20)
(0.999916 -2.59534e-05 2.60634e-19)
(0.999888 -2.2486e-06 -5.56869e-20)
(0.999852 2.03028e-05 2.07124e-19)
(0.999808 3.72238e-05 -1.73578e-19)
(0.999754 4.35851e-05 1.24335e-19)
(0.999692 3.45684e-05 3.58947e-19)
(0.999622 5.87883e-06 -1.04867e-19)
(0.999546 -4.57221e-05 1.75128e-19)
(0.999464 -0.000122205 -4.19109e-19)
(0.999379 -0.000223984 -1.16136e-19)
(0.999292 -0.000349968 -9.90454e-20)
(0.999206 -0.00049776 -1.87086e-19)
(0.999123 -0.000663898 -4.1505e-19)
(0.999044 -0.000844121 -1.08521e-18)
(0.998971 -0.00103398 1.33595e-18)
(0.998904 -0.00122895 1.44536e-19)
(0.998845 -0.00142488 3.94467e-19)
(0.998795 -0.00161815 3.93847e-19)
(0.998753 -0.00180561 5.4818e-19)
(0.99872 -0.00198483 -2.08148e-18)
(0.998696 -0.00215376 1.03267e-18)
(0.998682 -0.00231086 -1.40859e-19)
(0.998678 -0.00245476 5.6479e-20)
(0.998683 -0.00258431 1.72229e-19)
(0.998696 -0.00269846 3.30179e-19)
(0.998719 -0.00279625 8.09584e-19)
(0.998749 -0.00287687 6.91465e-19)
(0.998785 -0.0029397 2.19192e-19)
(0.998828 -0.00298443 -4.46376e-19)
(0.998874 -0.00301114 -3.7163e-19)
(0.998923 -0.00302038 1.2116e-18)
(0.998972 -0.00301328 -4.3044e-19)
(0.999022 -0.00299146 9.96915e-20)
(0.999069 -0.00295715 -4.66335e-19)
(0.999114 -0.00291301 -8.63262e-20)
(0.999156 -0.00286215 1.16991e-19)
(0.999194 -0.00280792 2.93441e-19)
(0.999227 -0.00275383 7.39879e-21)
(0.999258 -0.00270343 -3.58356e-19)
(0.999285 -0.00266011 1.50387e-19)
(0.99931 -0.00262709 3.0813e-19)
(0.999335 -0.00260726 -3.69822e-20)
(0.999361 -0.0026032 1.26487e-20)
(0.999389 -0.00261713 -1.5697e-19)
(0.999421 -0.00265091 1.98763e-19)
(0.999458 -0.00270625 -1.57417e-19)
(0.999501 -0.00278479 -1.1929e-19)
(0.99955 -0.00288839 -1.14388e-19)
(0.999604 -0.00301955 1.28885e-20)
(0.99966 -0.00318215 -5.07024e-20)
(0.999711 -0.00338113 8.29076e-20)
(0.999742 -0.00362372 -2.61867e-20)
(0.999735 -0.00392307 -2.23473e-20)
(0.999634 -0.00428291 7.59974e-20)
(0.999581 -0.00461106 3.76343e-21)
(0.998315 -0.00491341 7.66073e-21)
(0.999958 -6.15736e-05 2.26906e-20)
(0.99996 -4.13468e-05 1.2955e-20)
(0.999958 -1.75908e-05 -3.87363e-20)
(0.999952 9.30459e-06 -7.82191e-20)
(0.99994 3.63878e-05 -1.00964e-20)
(0.999922 5.99459e-05 9.68667e-20)
(0.999897 7.55522e-05 -1.53656e-19)
(0.999865 7.85508e-05 9.84795e-20)
(0.999826 6.43985e-05 1.71964e-19)
(0.999779 2.91792e-05 -4.6271e-19)
(0.999726 -3.00451e-05 -5.87946e-19)
(0.999668 -0.000114861 2.49475e-19)
(0.999605 -0.00022546 2.55373e-19)
(0.999541 -0.000360538 2.92258e-19)
(0.999475 -0.000517423 -4.66471e-19)
(0.99941 -0.000692564 9.44071e-20)
(0.999347 -0.000881746 3.06683e-19)
(0.999287 -0.00108031 5.45781e-19)
(0.99923 -0.00128393 -4.39943e-19)
(0.999178 -0.00148849 5.8989e-19)
(0.99913 -0.00169049 1.99585e-19)
(0.999088 -0.00188716 -5.28051e-19)
(0.999051 -0.00207617 -6.11392e-19)
(0.99902 -0.00225595 7.99489e-19)
(0.998994 -0.00242514 9.52512e-20)
(0.998975 -0.00258281 9.42069e-19)
(0.998961 -0.002728 -1.61316e-19)
(0.998954 -0.0028599 -4.86909e-19)
(0.998952 -0.00297764 -1.88326e-19)
(0.998956 -0.00308042 2.70976e-19)
(0.998965 -0.0031675 -7.39334e-19)
(0.998978 -0.00323837 -5.89419e-20)
(0.998994 -0.00329284 3.48061e-19)
(0.999013 -0.00333113 2.42943e-20)
(0.999032 -0.00335397 -7.06383e-20)
(0.999052 -0.00336272 4.2475e-19)
(0.999071 -0.00335925 4.34021e-19)
(0.99909 -0.00334606 -1.23564e-19)
(0.999106 -0.00332607 1.78134e-19)
(0.999122 -0.00330266 -8.83211e-19)
(0.999136 -0.0032794 4.21697e-20)
(0.99915 -0.00326004 1.20955e-19)
(0.999164 -0.00324828 5.23013e-21)
(0.99918 -0.00324763 -3.15139e-20)
(0.9992 -0.00326141 -1.80903e-19)
(0.999225 -0.00329248 -1.51131e-19)
(0.999257 -0.0033433 -2.40976e-19)
(0.999298 -0.00341585 1.66509e-19)
(0.99935 -0.00351143 -8.21689e-20)
(0.999415 -0.00363084 -8.08012e-20)
(0.999494 -0.00377408 1.78727e-19)
(0.999588 -0.00394023 -6.75734e-20)
(0.999697 -0.00412718 1.95157e-20)
(0.99982 -0.0043308 1.02719e-19)
(0.999955 -0.00454283 3.25479e-20)
(1.0001 -0.00474764 2.20572e-20)
(1.00024 -0.00492066 -3.06492e-20)
(1.00038 -0.00503056 -4.46911e-20)
(1.00052 -0.00490578 1.40404e-20)
(1.00097 -0.00407615 -1.01245e-20)
(0.999957 -4.46099e-05 1.17809e-21)
(0.999963 -2.81296e-05 6.45892e-20)
(0.999966 -1.09096e-05 1.26261e-19)
(0.999966 5.59362e-06 1.07226e-19)
(0.999962 1.81165e-05 -4.64661e-19)
(0.999953 2.29802e-05 1.63501e-19)
(0.99994 1.61736e-05 -1.15202e-21)
(0.999921 -6.15751e-06 -2.11964e-19)
(0.999897 -4.74425e-05 -5.59573e-20)
(0.999867 -0.000110284 2.37275e-19)
(0.999833 -0.000196219 -7.73185e-20)
(0.999796 -0.000305486 1.48389e-20)
(0.999755 -0.000437119 4.7811e-19)
(0.999713 -0.000588953 -7.68738e-19)
(0.999671 -0.000757714 2.95276e-19)
(0.999629 -0.000939655 -5.9918e-20)
(0.999589 -0.00113073 9.38234e-20)
(0.99955 -0.00132657 3.84096e-20)
(0.999514 -0.00152344 -8.93093e-20)
(0.99948 -0.00171788 -8.27956e-19)
(0.999449 -0.00190702 -4.46094e-21)
(0.999422 -0.00208877 -2.19228e-20)
(0.999397 -0.00226126 3.01768e-19)
(0.999376 -0.00242342 -1.96442e-19)
(0.999357 -0.00257422 -3.02097e-19)
(0.999342 -0.00271302 -1.5437e-18)
(0.99933 -0.0028391 6.00275e-20)
(0.99932 -0.00295192 1.09058e-18)
(0.999313 -0.00305086 -2.43375e-19)
(0.999308 -0.00313547 6.38254e-19)
(0.999305 -0.00320536 -1.35991e-19)
(0.999302 -0.00326045 -3.32016e-19)
(0.999301 -0.00330092 2.43112e-19)
(0.9993 -0.00332749 -6.51573e-19)
(0.999298 -0.00334118 -1.11638e-19)
(0.999296 -0.00334371 -9.02427e-20)
(0.999295 -0.00333707 -6.55958e-19)
(0.999293 -0.00332383 5.61545e-19)
(0.999292 -0.00330677 -4.92208e-19)
(0.999294 -0.00328895 8.32299e-19)
(0.999298 -0.00327347 -2.77663e-19)
(0.999308 -0.0032633 -4.14055e-19)
(0.999324 -0.00326136 -9.48219e-20)
(0.999349 -0.00326997 3.84546e-20)
(0.999385 -0.00329119 3.51811e-19)
(0.999434 -0.0033264 -1.29873e-19)
(0.999499 -0.00337631 2.00717e-19)
(0.999581 -0.00344105 -1.68007e-19)
(0.999684 -0.00351966 -9.18769e-20)
(0.999808 -0.00361051 9.75776e-20)
(0.999955 -0.00371089 -2.61576e-20)
(1.00013 -0.00381681 -8.28662e-20)
(1.00032 -0.00392307 -5.52814e-20)
(1.00054 -0.00402243 1.06969e-20)
(1.00078 -0.00410469 -6.30243e-20)
(1.00103 -0.0041544 6.49355e-20)
(1.0013 -0.00415525 1.8916e-20)
(1.00158 -0.00410108 2.13367e-20)
(1.0019 -0.00388408 -5.90924e-22)
(1.00235 -0.00312201 2.79914e-21)
(0.999949 -3.59518e-05 -5.08418e-20)
(0.999957 -3.93401e-05 -3.35619e-20)
(0.999966 -4.3882e-05 -2.07856e-19)
(0.999973 -5.13985e-05 -2.4713e-19)
(0.99998 -6.45626e-05 3.74083e-19)
(0.999985 -8.62846e-05 6.56272e-20)
(0.999987 -0.00011966 1.87574e-19)
(0.999986 -0.000167501 1.11341e-19)
(0.999982 -0.000232152 3.64614e-19)
(0.999975 -0.000315184 -8.4907e-20)
(0.999966 -0.000417236 5.93312e-19)
(0.999954 -0.000537869 -1.19895e-18)
(0.999941 -0.000675699 4.12762e-20)
(0.999927 -0.000828462 6.92985e-19)
(0.999913 -0.000992963 -1.67065e-19)
(0.999899 -0.00116578 5.85539e-19)
(0.999887 -0.00134336 -6.56246e-19)
(0.999876 -0.00152179 -3.56711e-19)
(0.999868 -0.00169785 4.87014e-19)
(0.999861 -0.00186848 6.03729e-19)
(0.999856 -0.00203109 2.87031e-19)
(0.999853 -0.00218384 -8.90553e-19)
(0.999851 -0.00232492 -3.25813e-19)
(0.99985 -0.00245338 3.33413e-19)
(0.99985 -0.00256821 4.28536e-19)
(0.999851 -0.00266893 4.15995e-19)
(0.999851 -0.00275504 2.99228e-19)
(0.999851 -0.00282637 -2.68584e-19)
(0.99985 -0.00288282 4.789e-19)
(0.999847 -0.00292462 -2.60596e-19)
(0.999842 -0.00295214 -1.85171e-19)
(0.999834 -0.00296621 -3.17298e-19)
(0.999824 -0.00296787 -3.61632e-19)
(0.999812 -0.00295876 -5.40457e-19)
(0.999797 -0.00294067 -2.23996e-19)
(0.999781 -0.00291604 4.52528e-19)
(0.999765 -0.00288733 5.34794e-19)
(0.999749 -0.00285745 -1.09885e-19)
(0.999737 -0.0028293 4.5001e-19)
(0.999728 -0.00280581 -1.70362e-19)
(0.999727 -0.00278982 4.16069e-19)
(0.999734 -0.00278377 1.40649e-20)
(0.999754 -0.00279001 -2.46235e-19)
(0.999788 -0.00281007 -2.01105e-19)
(0.999838 -0.00284526 3.1748e-20)
(0.999909 -0.00289613 1.40972e-20)
(1 -0.00296261 -4.17157e-20)
(1.00012 -0.00304422 -8.46103e-20)
(1.00026 -0.0031395 1.14735e-20)
(1.00042 -0.00324668 7.97275e-20)
(1.00062 -0.00336331 -9.16447e-21)
(1.00084 -0.00348617 7.29517e-20)
(1.00109 -0.00361173 -5.64912e-21)
(1.00136 -0.00373534 -6.26026e-20)
(1.00165 -0.00385122 4.88055e-20)
(1.00196 -0.0039497 -3.09604e-20)
(1.00229 -0.00402222 4.25212e-22)
(1.00263 -0.00407745 4.52582e-21)
(1.00299 -0.00403319 -5.25745e-21)
(1.00349 -0.00348879 -9.1579e-22)
(0.999926 -3.59996e-05 4.6682e-20)
(0.999936 -6.75759e-05 1.63371e-20)
(0.999949 -0.000101812 1.52871e-19)
(0.999965 -0.000139203 -2.66073e-20)
(0.999982 -0.000181784 6.43901e-21)
(0.999998 -0.000231645 -3.80655e-19)
(1.00001 -0.000291068 -4.71462e-19)
(1.00003 -0.000362107 3.27634e-19)
(1.00004 -0.000446452 -8.66704e-19)
(1.00005 -0.000545182 2.99583e-19)
(1.00006 -0.000658649 -5.40835e-19)
(1.00006 -0.000786362 1.72904e-19)
(1.00007 -0.000927092 2.27026e-19)
(1.00007 -0.00107894 4.17766e-19)
(1.00008 -0.00123917 -2.46972e-19)
(1.00008 -0.0014049 -1.59332e-19)
(1.00008 -0.00157305 -1.4106e-19)
(1.00009 -0.00174013 -5.67715e-20)
(1.00009 -0.00190315 -9.77179e-20)
(1.0001 -0.0020592 3.19686e-19)
(1.00011 -0.00220564 -9.8698e-19)
(1.00012 -0.00234046 9.13723e-19)
(1.00013 -0.00246171 6.11008e-19)
(1.00014 -0.00256818 -1.07401e-18)
(1.00015 -0.00265882 1.32082e-19)
(1.00015 -0.00273314 -1.07044e-19)
(1.00016 -0.0027909 2.43481e-19)
(1.00016 -0.00283233 -1.53662e-19)
(1.00016 -0.00285797 -1.81017e-19)
(1.00016 -0.00286882 -3.17836e-19)
(1.00015 -0.00286625 1.54842e-19)
(1.00013 -0.00285207 6.00351e-19)
(1.00012 -0.00282842 6.13239e-19)
(1.0001 -0.00279785 8.66726e-19)
(1.00007 -0.00276313 -4.97074e-19)
(1.00005 -0.00272735 5.45578e-20)
(1.00002 -0.00269353 1.86761e-19)
(1 -0.00266488 -1.78022e-19)
(0.999989 -0.00264434 -5.53281e-20)
(0.999982 -0.00263468 -3.68545e-19)
(0.999987 -0.00263833 -1.05931e-19)
(1.00001 -0.00265716 1.69305e-19)
(1.00004 -0.00269275 3.20064e-20)
(1.0001 -0.00274574 3.02157e-19)
(1.00018 -0.00281646 -4.43304e-20)
(1.00028 -0.00290446 -1.3802e-19)
(1.00041 -0.00300856 -7.09316e-20)
(1.00058 -0.00312731 1.10565e-19)
(1.00077 -0.00325818 -3.61976e-22)
(1.00099 -0.00339842 -4.63214e-20)
(1.00124 -0.00354463 -2.5309e-20)
(1.00152 -0.00369261 9.6551e-21)
(1.00183 -0.00383785 4.1461e-20)
(1.00217 -0.00397449 1.15302e-20)
(1.00253 -0.00409552 -1.68101e-20)
(1.00291 -0.0041901 4.77719e-20)
(1.00331 -0.00424703 -4.7334e-21)
(1.00374 -0.00427541 7.37271e-21)
(1.00417 -0.00421445 -9.59633e-22)
(1.00484 -0.00363675 -3.53188e-22)
(0.999884 -4.30569e-05 -5.66026e-20)
(0.999895 -0.000105105 3.62833e-20)
(0.99991 -0.000171252 -7.34028e-20)
(0.999929 -0.000239505 1.48959e-19)
(0.999948 -0.000311416 1.41933e-19)
(0.999968 -0.000388531 2.78699e-20)
(0.999987 -0.000472691 4.60851e-19)
(1 -0.000565639 -3.15691e-19)
(1.00002 -0.000668887 3.84444e-19)
(1.00003 -0.00078349 -7.30587e-19)
(1.00004 -0.000909959 6.2116e-19)
(1.00004 -0.00104814 1.49874e-19)
(1.00004 -0.00119725 -2.44001e-20)
(1.00004 -0.0013559 -6.38655e-19)
(1.00004 -0.00152196 1.20797e-20)
(1.00004 -0.00169301 2.57763e-19)
(1.00004 -0.00186627 2.01025e-19)
(1.00003 -0.00203853 -7.78899e-20)
(1.00003 -0.00220675 7.61763e-20)
(1.00003 -0.00236783 1.98204e-19)
(1.00003 -0.00251895 2.46203e-19)
(1.00004 -0.0026575 -7.35959e-19)
(1.00004 -0.0027813 1.41332e-19)
(1.00005 -0.00288858 2.21864e-20)
(1.00005 -0.00297818 3.43962e-19)
(1.00005 -0.00304936 -5.51956e-19)
(1.00006 -0.00310206 -5.80989e-19)
(1.00006 -0.00313668 -4.49152e-19)
(1.00005 -0.00315432 4.48428e-20)
(1.00005 -0.0031565 -2.08627e-19)
(1.00004 -0.00314537 -1.42239e-19)
(1.00003 -0.0031234 -5.83968e-19)
(1.00001 -0.00309359 -7.31774e-19)
(0.999997 -0.00305901 -8.50486e-20)
(0.999983 -0.00302309 4.20458e-20)
(0.999972 -0.00298912 2.67819e-19)
(0.999967 -0.00296037 -3.81624e-19)
(0.999969 -0.00293991 -2.36064e-19)
(0.999982 -0.00293037 -2.11781e-19)
(1.00001 -0.00293402 1.16926e-19)
(1.00005 -0.00295255 -6.88468e-20)
(1.00012 -0.00298695 -9.93239e-20)
(1.00021 -0.00303783 2.26189e-21)
(1.00032 -0.0031047 -3.89079e-20)
(1.00046 -0.00318676 -1.71966e-19)
(1.00064 -0.00328246 -5.11537e-20)
(1.00084 -0.00338949 1.98144e-19)
(1.00108 -0.00350545 -1.66159e-19)
(1.00135 -0.00362691 7.18268e-20)
(1.00165 -0.00375044 1.24788e-19)
(1.00198 -0.00387227 -5.18859e-20)
(1.00234 -0.00398804 1.08426e-21)
(1.00272 -0.00409372 -1.14346e-21)
(1.00313 -0.00418455 3.4752e-20)
(1.00355 -0.0042557 5.51917e-21)
(1.00399 -0.00430078 -1.36672e-20)
(1.00444 -0.00431521 4.02127e-21)
(1.00493 -0.00431712 -1.38933e-21)
(1.00538 -0.00427367 1.80404e-21)
(1.00601 -0.00384983 1.16746e-21)
(0.999819 -5.50722e-05 1.99219e-20)
(0.999832 -0.000145943 1.78695e-20)
(0.999846 -0.000241932 1.05027e-19)
(0.999862 -0.000338761 5.22487e-20)
(0.999877 -0.000437412 -1.36536e-19)
(0.999891 -0.000539121 6.4612e-19)
(0.999902 -0.000645614 -8.32755e-19)
(0.99991 -0.000758633 3.70148e-19)
(0.999914 -0.00087978 -2.33158e-19)
(0.999913 -0.00101029 3.7812e-20)
(0.999907 -0.00115098 1.88009e-19)
(0.999898 -0.00130209 -2.56984e-19)
(0.999885 -0.00146332 -2.24861e-19)
(0.999869 -0.00163368 -4.84398e-19)
(0.999851 -0.0018115 -5.65322e-19)
(0.999832 -0.00199469 -2.04939e-19)
(0.999814 -0.00218053 1.33785e-19)
(0.999796 -0.0023659 2.52179e-19)
(0.99978 -0.00254756 -8.23758e-19)
(0.999767 -0.00272202 5.39368e-19)
(0.999756 -0.00288618 7.59242e-20)
(0.999749 -0.00303679 6.06009e-19)
(0.999744 -0.00317136 4.45129e-19)
(0.999742 -0.00328757 5.88538e-19)
(0.999743 -0.00338404 -6.4449e-19)
(0.999745 -0.00345981 -4.2959e-19)
(0.999749 -0.00351486 3.90895e-19)
(0.999754 -0.00354971 4.27528e-19)
(0.999759 -0.00356577 -3.59248e-19)
(0.999765 -0.00356489 -1.42171e-19)
(0.999772 -0.00354974 1.0259e-18)
(0.99978 -0.00352316 -1.7938e-19)
(0.999791 -0.00348863 2.16474e-19)
(0.999806 -0.00344949 -1.93408e-19)
(0.999827 -0.00340939 -2.874e-20)
(0.999856 -0.00337174 1.1052e-19)
(0.999897 -0.00333966 2.62117e-19)
(0.999951 -0.00331603 1.16529e-20)
(1.00002 -0.00330309 2.05325e-19)
(1.00011 -0.00330265 5.265e-20)
(1.00022 -0.00331587 7.17126e-20)
(1.00036 -0.0033431 3.97969e-21)
(1.00052 -0.00338449 -1.19774e-19)
(1.00072 -0.00343897 -7.2189e-20)
(1.00094 -0.00350541 2.48245e-19)
(1.00119 -0.00358205 -4.66317e-20)
(1.00148 -0.00366658 -4.52671e-20)
(1.0018 -0.003757 -2.36307e-20)
(1.00214 -0.00385046 -2.70477e-20)
(1.00251 -0.00394459 -3.8882e-21)
(1.00291 -0.00403714 -2.60992e-20)
(1.00333 -0.00412572 -1.57022e-20)
(1.00376 -0.0042089 -1.54327e-20)
(1.00421 -0.00428514 -9.4184e-24)
(1.00466 -0.00435347 2.88809e-21)
(1.00511 -0.00441235 4.64832e-21)
(1.00556 -0.00446295 5.51467e-21)
(1.00604 -0.004527 -7.00383e-21)
(1.00647 -0.0045769 9.79069e-22)
(1.00696 -0.00437145 -1.85978e-21)
(0.999736 -6.92274e-05 -1.77735e-20)
(0.999751 -0.000185982 -1.44469e-19)
(0.999762 -0.000307011 -1.57734e-19)
(0.999772 -0.000428098 -4.60408e-20)
(0.99978 -0.000549232 -2.37111e-19)
(0.999786 -0.000671338 -5.39145e-19)
(0.999788 -0.000796133 3.34619e-19)
(0.999786 -0.00092542 5.72679e-21)
(0.99978 -0.00106089 -1.11968e-20)
(0.999769 -0.00120389 5.73367e-20)
(0.999753 -0.0013554 -5.25042e-19)
(0.999734 -0.00151593 1.79789e-19)
(0.999711 -0.00168549 -1.99512e-19)
(0.999687 -0.00186332 7.76918e-19)
(0.999661 -0.00204795 1.24419e-18)
(0.999634 -0.0022375 1.59818e-19)
(0.999609 -0.00242928 1.24274e-20)
(0.999586 -0.00262011 -6.17734e-21)
(0.999567 -0.00280664 1.46981e-19)
(0.999551 -0.00298509 -5.48256e-19)
(0.99954 -0.00315221 -5.43114e-20)
(0.999535 -0.00330445 4.86717e-19)
(0.999534 -0.00343906 -9.68484e-19)
(0.999539 -0.00355363 1.36874e-19)
(0.999548 -0.00364665 -1.86553e-19)
(0.999562 -0.00371726 1.2382e-18)
(0.999581 -0.00376555 -2.31829e-19)
(0.999604 -0.00379231 -2.22868e-19)
(0.999631 -0.00379924 4.21012e-20)
(0.999662 -0.00378861 4.07848e-19)
(0.999699 -0.00376338 -2.22127e-19)
(0.999741 -0.00372684 -3.24492e-19)
(0.99979 -0.00368265 1.69725e-19)
(0.999848 -0.00363456 -3.82021e-19)
(0.999917 -0.00358612 5.35199e-19)
(0.999998 -0.00354105 1.5857e-19)
(1.0001 -0.00350219 -2.55733e-19)
(1.00021 -0.00347249 8.7353e-20)
(1.00034 -0.00345397 2.33242e-19)
(1.0005 -0.00344825 6.03622e-21)
(1.00068 -0.00345646 -1.5864e-19)
(1.00089 -0.00347871 2.0327e-19)
(1.00112 -0.00351535 -1.50413e-19)
(1.00138 -0.00356533 1.68145e-19)
(1.00167 -0.00362785 -1.58082e-19)
(1.00199 -0.0037017 1.27122e-20)
(1.00234 -0.00378516 2.85817e-20)
(1.0027 -0.00387715 6.10144e-20)
(1.0031 -0.00397584 2.12068e-20)
(1.00351 -0.00407996 -3.07525e-20)
(1.00393 -0.00418847 4.45134e-21)
(1.00437 -0.00430012 1.63791e-21)
(1.00482 -0.00441438 1.18358e-20)
(1.00526 -0.00453038 -1.49801e-20)
(1.0057 -0.00464709 -1.03108e-21)
(1.00614 -0.00476228 8.45347e-22)
(1.00657 -0.00487586 -6.80355e-21)
(1.00701 -0.00500567 2.02947e-20)
(1.00741 -0.00511263 -5.22277e-21)
(1.00779 -0.00501344 -2.02344e-21)
(0.99964 -8.27686e-05 6.52822e-20)
(0.999656 -0.000222387 8.73717e-20)
(0.999664 -0.000363728 -1.21087e-19)
(0.999672 -0.000504481 8.72078e-20)
(0.999678 -0.000643556 2.25369e-19)
(0.999681 -0.000781442 2.45067e-19)
(0.999682 -0.000919769 -8.1556e-20)
(0.99968 -0.00106027 -2.11235e-20)
(0.999675 -0.00120455 2.42023e-19)
(0.999667 -0.00135385 -5.58419e-20)
(0.999657 -0.00150911 4.63343e-19)
(0.999645 -0.00167085 -1.38569e-19)
(0.999631 -0.00183925 2.67102e-19)
(0.999616 -0.0020137 -3.31626e-19)
(0.999602 -0.0021927 -3.05125e-19)
(0.999588 -0.00237463 -1.75881e-19)
(0.999577 -0.00255702 6.87922e-19)
(0.999569 -0.00273664 5.66737e-20)
(0.999565 -0.0029104 -3.33571e-19)
(0.999566 -0.00307464 5.59344e-19)
(0.999572 -0.00322616 1.44849e-19)
(0.999584 -0.0033619 -7.13964e-19)
(0.999602 -0.003479 6.48948e-19)
(0.999625 -0.00357568 3.62663e-19)
(0.999655 -0.00365051 4.6694e-19)
(0.99969 -0.00370329 -5.93131e-19)
(0.999732 -0.00373437 -4.42126e-20)
(0.999779 -0.00374518 -6.26974e-19)
(0.999832 -0.00373773 6.4184e-19)
(0.999892 -0.0037149 -2.92979e-19)
(0.999959 -0.00367987 3.44775e-20)
(1.00003 -0.00363646 -1.66065e-19)
(1.00012 -0.00358831 -1.95952e-19)
(1.00022 -0.00353964 3.92604e-19)
(1.00033 -0.00349375 -1.34041e-19)
(1.00045 -0.00345465 -2.4277e-19)
(1.00059 -0.00342489 -5.4469e-20)
(1.00075 -0.00340742 2.0669e-19)
(1.00094 -0.00340411 8.16102e-20)
(1.00114 -0.00341641 -4.01371e-20)
(1.00137 -0.00344543 1.37405e-19)
(1.00163 -0.00349109 -1.40956e-19)
(1.0019 -0.00355383 1.04738e-19)
(1.00221 -0.00363263 2.63846e-20)
(1.00254 -0.00372671 2.39388e-20)
(1.00289 -0.00383503 -5.98656e-20)
(1.00326 -0.00395594 3.97313e-20)
(1.00366 -0.00408839 -5.16521e-20)
(1.00407 -0.0042305 -1.00394e-20)
(1.00449 -0.0043806 1.27474e-20)
(1.00492 -0.00453705 -3.07002e-21)
(1.00535 -0.00469758 -8.61889e-21)
(1.00579 -0.00486006 -1.58694e-20)
(1.00622 -0.00502163 2.90816e-20)
(1.00665 -0.00517866 -1.49904e-20)
(1.00707 -0.00532592 -8.01919e-21)
(1.00747 -0.00546065 4.63574e-22)
(1.00788 -0.00559781 -7.74162e-21)
(1.00825 -0.00568737 1.35205e-20)
(1.00858 -0.00557728 9.32503e-22)
(0.999534 -9.44848e-05 -8.75719e-20)
(0.99955 -0.000255083 -5.86017e-20)
(0.999561 -0.000413265 1.89852e-19)
(0.999572 -0.000570147 1.37354e-19)
(0.999583 -0.000723659 -9.03078e-20)
(0.999594 -0.000873651 -9.45738e-20)
(0.999606 -0.0010215 2.85818e-19)
(0.999617 -0.00116869 6.67947e-20)
(0.999629 -0.00131649 1.48551e-19)
(0.999642 -0.00146589 1.69883e-19)
(0.999655 -0.00161756 -5.08901e-19)
(0.999668 -0.00177192 8.90424e-19)
(0.999682 -0.00192921 -2.19114e-19)
(0.999696 -0.00208902 5.57674e-19)
(0.999713 -0.00224984 -5.04219e-19)
(0.99973 -0.00241037 3.95184e-19)
(0.99975 -0.00256879 -7.68833e-19)
(0.999773 -0.00272199 4.60337e-19)
(0.999799 -0.00286759 -1.07117e-19)
(0.999829 -0.00300254 -8.5616e-19)
(0.999862 -0.00312408 4.35721e-19)
(0.9999 -0.00323031 -1.15515e-19)
(0.999943 -0.0033186 -1.61967e-19)
(0.99999 -0.00338835 1.55905e-20)
(1.00004 -0.00343857 -5.45468e-19)
(1.0001 -0.00347003 -1.89794e-20)
(1.00016 -0.00348357 5.69048e-20)
(1.00023 -0.00348141 4.10988e-19)
(1.0003 -0.00346592 -6.22664e-19)
(1.00038 -0.00344055 1.9319e-19)
(1.00047 -0.00340858 -1.6949e-19)
(1.00057 -0.0033742 -5.75511e-21)
(1.00067 -0.00334085 -4.87597e-20)
(1.00079 -0.00331291 1.55991e-19)
(1.00093 -0.00329322 -8.57959e-20)
(1.00108 -0.00328567 1.78451e-19)
(1.00125 -0.00329234 5.22936e-21)
(1.00144 -0.00331576 -1.29969e-19)
(1.00165 -0.00335732 -1.59925e-20)
(1.00189 -0.00341792 1.0631e-20)
(1.00214 -0.0034982 -6.39261e-20)
(1.00242 -0.00359749 1.33268e-20)
(1.00273 -0.00371566 3.14592e-20)
(1.00305 -0.00385115 8.95917e-20)
(1.0034 -0.00400248 -2.22557e-20)
(1.00377 -0.00416792 1.09832e-20)
(1.00415 -0.00434498 5.63385e-21)
(1.00456 -0.00453159 8.91322e-21)
(1.00497 -0.00472477 -5.62156e-21)
(1.00539 -0.0049214 -2.91385e-21)
(1.00582 -0.00511826 2.31306e-21)
(1.00625 -0.0053113 1.15707e-20)
(1.00668 -0.00549644 2.62896e-21)
(1.0071 -0.005669 -2.85536e-20)
(1.00751 -0.00582369 7.63877e-21)
(1.00792 -0.00595418 1.41295e-20)
(1.0083 -0.00605757 3.38362e-22)
(1.00869 -0.00614977 3.04205e-21)
(1.00902 -0.00617472 -8.71509e-21)
(1.00933 -0.00599664 -9.86462e-22)
(0.999419 -0.000104443 1.01672e-19)
(0.999439 -0.000285359 9.55668e-20)
(0.999456 -0.000458841 -1.88739e-20)
(0.999476 -0.000629994 -1.65074e-19)
(0.9995 -0.000796082 -1.67344e-19)
(0.999528 -0.000956188 -1.94525e-19)
(0.999561 -0.0011113 -7.87807e-20)
(0.999597 -0.00126247 -1.85618e-19)
(0.999638 -0.00141055 2.10264e-19)
(0.999683 -0.00155609 -1.95114e-19)
(0.99973 -0.00169953 6.74978e-19)
(0.999781 -0.00184108 -6.07843e-19)
(0.999833 -0.0019811 -1.33776e-19)
(0.999888 -0.00211953 1.26387e-19)
(0.999943 -0.00225495 2.1335e-19)
(1 -0.00238657 -3.10532e-19)
(1.00006 -0.00251358 4.08317e-19)
(1.00012 -0.00263328 1.66075e-19)
(1.00018 -0.00274436 -1.53213e-19)
(1.00024 -0.00284479 3.654e-19)
(1.0003 -0.00293261 2.73684e-19)
(1.00036 -0.00300741 -3.2763e-19)
(1.00042 -0.00306721 -2.94032e-19)
(1.00049 -0.00311273 3.69096e-19)
(1.00056 -0.00314369 4.96352e-19)
(1.00063 -0.00316185 -3.60723e-20)
(1.0007 -0.00316865 2.53383e-19)
(1.00078 -0.00316692 -3.22019e-21)
(1.00086 -0.0031593 -8.47669e-20)
(1.00095 -0.0031495 -8.29251e-20)
(1.00105 -0.0031407 5.00287e-19)
(1.00116 -0.00313701 -1.00628e-19)
(1.00128 -0.00314137 2.61854e-19)
(1.00141 -0.00315775 4.08823e-20)
(1.00156 -0.00318827 -2.9206e-19)
(1.00173 -0.00323608 1.738e-19)
(1.00191 -0.00330244 -2.50942e-20)
(1.00212 -0.00338887 5.77306e-20)
(1.00235 -0.00349588 -5.49615e-20)
(1.0026 -0.0036233 -2.24505e-19)
(1.00287 -0.00377075 -7.40901e-20)
(1.00317 -0.00393656 5.34366e-20)
(1.00349 -0.00411942 3.94632e-20)
(1.00383 -0.0043168 1.26075e-20)
(1.00419 -0.00452599 -1.14489e-20)
(1.00457 -0.00474414 3.24222e-20)
(1.00497 -0.0049676 -1.48309e-20)
(1.00538 -0.00519297 1.28754e-20)
(1.0058 -0.00541615 -1.88611e-21)
(1.00622 -0.00563272 3.14589e-21)
(1.00665 -0.00583833 -7.4052e-21)
(1.00708 -0.00602802 4.86049e-21)
(1.00751 -0.00619705 1.30381e-20)
(1.00792 -0.00634056 1.64018e-20)
(1.00833 -0.00645375 -1.3219e-21)
(1.00872 -0.00653141 2.30874e-22)
(1.00909 -0.00657258 -7.30499e-21)
(1.00945 -0.00659581 -1.35446e-20)
(1.00975 -0.0065424 4.57707e-21)
(1.01003 -0.00628309 -4.29341e-21)
(0.999301 -0.000113285 -4.20679e-20)
(0.999323 -0.00031524 -7.55123e-20)
(0.999349 -0.000503858 1.38291e-20)
(0.999382 -0.000688879 6.6911e-20)
(0.999424 -0.000867181 9.14036e-20)
(0.999474 -0.00103705 3.04797e-19)
(0.999532 -0.001199 -3.17276e-19)
(0.999598 -0.00135363 -8.73583e-20)
(0.999672 -0.00150129 -3.55334e-19)
(0.999752 -0.00164217 2.10364e-19)
(0.999837 -0.00177646 -3.42146e-19)
(0.999926 -0.00190431 4.72275e-19)
(1.00002 -0.00202623 -3.67426e-19)
(1.00011 -0.00214266 -3.60858e-19)
(1.0002 -0.00225252 -8.97981e-20)
(1.0003 -0.00235565 3.38074e-19)
(1.00039 -0.00245241 -5.49336e-19)
(1.00048 -0.00254087 -2.09896e-19)
(1.00056 -0.00262089 -4.49013e-20)
(1.00065 -0.00269173 8.65178e-20)
(1.00073 -0.00275238 -3.46605e-19)
(1.00081 -0.00280394 2.05046e-19)
(1.00089 -0.00284534 2.32902e-19)
(1.00097 -0.00287841 1.66512e-19)
(1.00104 -0.00290369 -2.25715e-19)
(1.00112 -0.00292367 -3.47517e-19)
(1.0012 -0.00294023 -2.95172e-19)
(1.00128 -0.00295649 2.27758e-20)
(1.00137 -0.00297511 2.63668e-19)
(1.00146 -0.0029996 1.02309e-19)
(1.00157 -0.00303273 -1.05548e-19)
(1.00168 -0.00307796 7.85024e-20)
(1.00181 -0.00313747 8.97788e-20)
(1.00195 -0.00321423 -2.63371e-19)
(1.00211 -0.00330938 9.41386e-20)
(1.00229 -0.00342473 -1.20562e-19)
(1.00249 -0.0035605 1.3256e-19)
(1.00271 -0.00371678 1.04615e-20)
(1.00295 -0.00389289 -1.04319e-20)
(1.00322 -0.00408734 1.34627e-19)
(1.00351 -0.00429847 -4.71563e-20)
(1.00383 -0.00452346 1.98252e-20)
(1.00417 -0.00475969 -1.22386e-20)
(1.00453 -0.00500365 1.46741e-20)
(1.00491 -0.00525149 -2.38707e-20)
(1.00531 -0.00549941 -3.55437e-20)
(1.00572 -0.00574292 5.57635e-21)
(1.00614 -0.00597785 6.00433e-21)
(1.00657 -0.00619956 6.25606e-21)
(1.00701 -0.00640331 2.64589e-21)
(1.00744 -0.00658468 1.21207e-20)
(1.00787 -0.00673901 -2.30966e-21)
(1.0083 -0.00686233 -3.92984e-21)
(1.00871 -0.00695092 -3.12088e-20)
(1.0091 -0.00700169 2.27719e-20)
(1.00948 -0.00701148 -2.78933e-20)
(1.00982 -0.00698155 1.01979e-20)
(1.01015 -0.0069328 7.80809e-21)
(1.01041 -0.00680498 1.35728e-20)