1.45 	0 	0 	0.00356817 	-0.00377384 	3.95519e-21
2.35 	0 	0 	0.112782 	-0.00843987 	1.96436e-21
