1.45 	0 	0 	0.04549 	-0.00742547 	3.61422e-21
2.35 	0 	0 	0.256555 	-0.0119228 	5.25778e-22
