1.45 	0 	0 	-0.301158
2.35 	0 	0 	-0.0875271
