1.45 	0 	0 	-0.00812287 	-0.00258607 	1.65389e-20
2.35 	0 	0 	0.0622368 	-0.00661914 	9.89272e-21
