/*--------------------------------*- C++ -*----------------------------------*\
  =========                 |
  \\      /  F ield         | OpenFOAM: The Open Source CFD Toolbox
   \\    /   O peration     | Website:  https://openfoam.org
    \\  /    A nd           | Version:  6.0
     \\/     M anipulation  |
\*---------------------------------------------------------------------------*/
FoamFile
{
    version     2.0;
    format      ascii;
    class       volScalarField;
    location    "12";
    object      p;
}
// * * * * * * * * * * * * * * * * * * * * * * * * * * * * * * * * * * * * * //

dimensions      [0 2 -2 0 0 0 0];

internalField   nonuniform List<scalar> 
8000
(
-0.332424
-0.336693
-0.339186
-0.340644
-0.341509
-0.341854
-0.34176
-0.341308
-0.340565
-0.339585
-0.338415
-0.337095
-0.335658
-0.334134
-0.332549
-0.330926
-0.329284
-0.327607
-0.325898
-0.324481
-0.333091
-0.337312
-0.339764
-0.341184
-0.342009
-0.342317
-0.342185
-0.341697
-0.340919
-0.339905
-0.338701
-0.337348
-0.335879
-0.334324
-0.332709
-0.331059
-0.32939
-0.327688
-0.325953
-0.324527
-0.334426
-0.338552
-0.340921
-0.342262
-0.34301
-0.343241
-0.343035
-0.342474
-0.341625
-0.340542
-0.339271
-0.337851
-0.336318
-0.334701
-0.333026
-0.331319
-0.329598
-0.327844
-0.326058
-0.324612
-0.336434
-0.340414
-0.342658
-0.343881
-0.344511
-0.344627
-0.344309
-0.343638
-0.342682
-0.341494
-0.340121
-0.338601
-0.336971
-0.335259
-0.333493
-0.3317
-0.329898
-0.328065
-0.3262
-0.324728
-0.339121
-0.342902
-0.344976
-0.34604
-0.346512
-0.346473
-0.346004
-0.345187
-0.344087
-0.342758
-0.341247
-0.339593
-0.337831
-0.33599
-0.3341
-0.332189
-0.330276
-0.328335
-0.326363
-0.324857
-0.342494
-0.346021
-0.347879
-0.34874
-0.349011
-0.348777
-0.348118
-0.347116
-0.345836
-0.344331
-0.342646
-0.340821
-0.33889
-0.336885
-0.334836
-0.332772
-0.330716
-0.328633
-0.326523
-0.324978
-0.346566
-0.349777
-0.351369
-0.351982
-0.352009
-0.351537
-0.35065
-0.349425
-0.347927
-0.346208
-0.344312
-0.342278
-0.340142
-0.337934
-0.335686
-0.333432
-0.331195
-0.328934
-0.326651
-0.325063
-0.351349
-0.354177
-0.355447
-0.355764
-0.355503
-0.354752
-0.353595
-0.352109
-0.350356
-0.348386
-0.346242
-0.343961
-0.341579
-0.339127
-0.336639
-0.334152
-0.331691
-0.329208
-0.326711
-0.325075
-0.356856
-0.359225
-0.360116
-0.360087
-0.35949
-0.358417
-0.356951
-0.355167
-0.353122
-0.350865
-0.348435
-0.345868
-0.343198
-0.340458
-0.337682
-0.334913
-0.332179
-0.329421
-0.326659
-0.324969
-0.363103
-0.364928
-0.365376
-0.364948
-0.363967
-0.362529
-0.360715
-0.358596
-0.356224
-0.353645
-0.350892
-0.348
-0.345
-0.341924
-0.338808
-0.3357
-0.332632
-0.329533
-0.326443
-0.324685
-0.3701
-0.371287
-0.371223
-0.370341
-0.368927
-0.367081
-0.364882
-0.362393
-0.359663
-0.356728
-0.353619
-0.350364
-0.34699
-0.343527
-0.340013
-0.3365
-0.333024
-0.329502
-0.325999
-0.324147
-0.377858
-0.3783
-0.377651
-0.376257
-0.374362
-0.372066
-0.369445
-0.366556
-0.363439
-0.360122
-0.356627
-0.352974
-0.349184
-0.345282
-0.341305
-0.337309
-0.333334
-0.32928
-0.325247
-0.323254
-0.386375
-0.38596
-0.384646
-0.382682
-0.380257
-0.377472
-0.374398
-0.371082
-0.367555
-0.363834
-0.35993
-0.355852
-0.351609
-0.347217
-0.342706
-0.338136
-0.33355
-0.328822
-0.324094
-0.321869
-0.395642
-0.394248
-0.392191
-0.389599
-0.386596
-0.383285
-0.37973
-0.375967
-0.372014
-0.367877
-0.363552
-0.359031
-0.354308
-0.34938
-0.344266
-0.339019
-0.33368
-0.328089
-0.322426
-0.319811
-0.405633
-0.403138
-0.400258
-0.396981
-0.393356
-0.389485
-0.385425
-0.381202
-0.376819
-0.372266
-0.367522
-0.362559
-0.357345
-0.351852
-0.346071
-0.340038
-0.333775
-0.327065
-0.320105
-0.316816
-0.416308
-0.412591
-0.408811
-0.404795
-0.400507
-0.396048
-0.391468
-0.386778
-0.381971
-0.377018
-0.37188
-0.366501
-0.360818
-0.354762
-0.348278
-0.341359
-0.333979
-0.325806
-0.31701
-0.312579
-0.427606
-0.422554
-0.417804
-0.413001
-0.408015
-0.402944
-0.397834
-0.392683
-0.38747
-0.382153
-0.376671
-0.370942
-0.364864
-0.358314
-0.351165
-0.343334
-0.334701
-0.324725
-0.313372
-0.306992
-0.439446
-0.432964
-0.427185
-0.421555
-0.41584
-0.410141
-0.404496
-0.398896
-0.39331
-0.387685
-0.381944
-0.37598
-0.369654
-0.362777
-0.355128
-0.346504
-0.336643
-0.324575
-0.309421
-0.298975
-0.451731
-0.443747
-0.436891
-0.430403
-0.423938
-0.4176
-0.411423
-0.405393
-0.399477
-0.39362
-0.38774
-0.381717
-0.375379
-0.368469
-0.36063
-0.351456
-0.34032
-0.325108
-0.302476
-0.282263
-0.464354
-0.454821
-0.446859
-0.439492
-0.432263
-0.425278
-0.418574
-0.412138
-0.405943
-0.399948
-0.394092
-0.388282
-0.382372
-0.376118
-0.369133
-0.360862
-0.350134
-0.333124
-0.303358
-0.272953
-0.477198
-0.466099
-0.45702
-0.448764
-0.440763
-0.433129
-0.425903
-0.419076
-0.412639
-0.406581
-0.400895
-0.39558
-0.390647
-0.386135
-0.382166
-0.379025
-0.377015
-0.376326
-0.380824
-0.405609
-0.490148
-0.477496
-0.467304
-0.458162
-0.44939
-0.441106
-0.433355
-0.426133
-0.419445
-0.413308
-0.407756
-0.402848
-0.398686
-0.395439
-0.393397
-0.392995
-0.394674
-0.399294
-0.411548
-0.438833
-0.503093
-0.488925
-0.477644
-0.467631
-0.458097
-0.449165
-0.440884
-0.433252
-0.42628
-0.420002
-0.414471
-0.409776
-0.406045
-0.403473
-0.402345
-0.403022
-0.405794
-0.411297
-0.422806
-0.443054
-0.515932
-0.500308
-0.487976
-0.477116
-0.466838
-0.457269
-0.448455
-0.440393
-0.433097
-0.426603
-0.420971
-0.416291
-0.412688
-0.410334
-0.409459
-0.410308
-0.413022
-0.418004
-0.427526
-0.441994
-0.528576
-0.511567
-0.498233
-0.486564
-0.47557
-0.465377
-0.456031
-0.447522
-0.439859
-0.433073
-0.427216
-0.422362
-0.418613
-0.416094
-0.414958
-0.415336
-0.417233
-0.420892
-0.428032
-0.437899
-0.54094
-0.522627
-0.508349
-0.495916
-0.484238
-0.473443
-0.463571
-0.454598
-0.446526
-0.439372
-0.433172
-0.427977
-0.423851
-0.420868
-0.419111
-0.418614
-0.419293
-0.421302
-0.426032
-0.43205
-0.552944
-0.53341
-0.518252
-0.505105
-0.492783
-0.48141
-0.471015
-0.461564
-0.453041
-0.445449
-0.4388
-0.433117
-0.428428
-0.424761
-0.422137
-0.420528
-0.419799
-0.420067
-0.422495
-0.425235
-0.564505
-0.543832
-0.527861
-0.514053
-0.501128
-0.489202
-0.478292
-0.468346
-0.459331
-0.451232
-0.444038
-0.437744
-0.432344
-0.42783
-0.424179
-0.421323
-0.419107
-0.417637
-0.417895
-0.417803
-0.575531
-0.553801
-0.537085
-0.522671
-0.509185
-0.496729
-0.485307
-0.474849
-0.465303
-0.456633
-0.448808
-0.4418
-0.435575
-0.430097
-0.425317
-0.421146
-0.417428
-0.414269
-0.412495
-0.409941
-0.58592
-0.563212
-0.545819
-0.530854
-0.516846
-0.503884
-0.491953
-0.480962
-0.470845
-0.461546
-0.453017
-0.445209
-0.438072
-0.431552
-0.425585
-0.420075
-0.41488
-0.410109
-0.406445
-0.401751
-0.595551
-0.571947
-0.553945
-0.538483
-0.523993
-0.510544
-0.498102
-0.486559
-0.475832
-0.465851
-0.456554
-0.44788
-0.439769
-0.432157
-0.424979
-0.41814
-0.411519
-0.405228
-0.399819
-0.393277
-0.604289
-0.579873
-0.561332
-0.545426
-0.53049
-0.51657
-0.503615
-0.4915
-0.480127
-0.469417
-0.459301
-0.449711
-0.440584
-0.431857
-0.423467
-0.415332
-0.407355
-0.399645
-0.392642
-0.384516
-0.61198
-0.586843
-0.567834
-0.551538
-0.53619
-0.521815
-0.508342
-0.495634
-0.483583
-0.472106
-0.461129
-0.450589
-0.440423
-0.430578
-0.420997
-0.411617
-0.402365
-0.393347
-0.384899
-0.375434
-0.618457
-0.592697
-0.573295
-0.556661
-0.540935
-0.526117
-0.512123
-0.498804
-0.486047
-0.473771
-0.461906
-0.450395
-0.439186
-0.428235
-0.417502
-0.406941
-0.396506
-0.386292
-0.376549
-0.365968
-0.623541
-0.597265
-0.577548
-0.56063
-0.544558
-0.529311
-0.514792
-0.500846
-0.487362
-0.474265
-0.461495
-0.449007
-0.436763
-0.424737
-0.412903
-0.401236
-0.389714
-0.378421
-0.36753
-0.356036
-0.627041
-0.60037
-0.58042
-0.563271
-0.546887
-0.531225
-0.516179
-0.501595
-0.487369
-0.473438
-0.459758
-0.4463
-0.433047
-0.419986
-0.407115
-0.394426
-0.381919
-0.369663
-0.357768
-0.345545
-0.628764
-0.601827
-0.581731
-0.564408
-0.547746
-0.531683
-0.516112
-0.500884
-0.48591
-0.471143
-0.45656
-0.442153
-0.427926
-0.413887
-0.400051
-0.38643
-0.373043
-0.359941
-0.347178
-0.334395
-0.628513
-0.601451
-0.581302
-0.563862
-0.546957
-0.530511
-0.514421
-0.49855
-0.48283
-0.467235
-0.451769
-0.436447
-0.421296
-0.406344
-0.391624
-0.377168
-0.363008
-0.349176
-0.335679
-0.322486
-0.626093
-0.599059
-0.578952
-0.561454
-0.544344
-0.527538
-0.510941
-0.494436
-0.47798
-0.461579
-0.445262
-0.429071
-0.413056
-0.397267
-0.381754
-0.366563
-0.35174
-0.337292
-0.323187
-0.309721
-0.621317
-0.59447
-0.574505
-0.557012
-0.539738
-0.522597
-0.50551
-0.48839
-0.471223
-0.454048
-0.436924
-0.419923
-0.403117
-0.386577
-0.370366
-0.354546
-0.339169
-0.324219
-0.309627
-0.296014
-0.614008
-0.587515
-0.567795
-0.550371
-0.532977
-0.515532
-0.497983
-0.480274
-0.46243
-0.444526
-0.426654
-0.408914
-0.391401
-0.374203
-0.357397
-0.341056
-0.325238
-0.309897
-0.294935
-0.281286
-0.603994
-0.57803
-0.55866
-0.541372
-0.523907
-0.506197
-0.48822
-0.469961
-0.451488
-0.432914
-0.414364
-0.395967
-0.377841
-0.360087
-0.342796
-0.326046
-0.309898
-0.294276
-0.279056
-0.265475
-0.591128
-0.565869
-0.546958
-0.529875
-0.512392
-0.494463
-0.476103
-0.457345
-0.438302
-0.419128
-0.399985
-0.381025
-0.362388
-0.344189
-0.326525
-0.30948
-0.293114
-0.277322
-0.261949
-0.24853
-0.57528
-0.550907
-0.532562
-0.515756
-0.498313
-0.480217
-0.461529
-0.442334
-0.422795
-0.403107
-0.383465
-0.364048
-0.345012
-0.326483
-0.308563
-0.291339
-0.274869
-0.259013
-0.243589
-0.230417
-0.556344
-0.533034
-0.515365
-0.498909
-0.48157
-0.463369
-0.444418
-0.424862
-0.404912
-0.384807
-0.364773
-0.345014
-0.325699
-0.306962
-0.288906
-0.271621
-0.255158
-0.239344
-0.223967
-0.211118
-0.534239
-0.512168
-0.495281
-0.479252
-0.462087
-0.44385
-0.424715
-0.404884
-0.384622
-0.364209
-0.343902
-0.323923
-0.304455
-0.285636
-0.267568
-0.25034
-0.233995
-0.218326
-0.203088
-0.19063
-0.508909
-0.48825
-0.472252
-0.456728
-0.439812
-0.42162
-0.402387
-0.382381
-0.361918
-0.341317
-0.320864
-0.300798
-0.281309
-0.262537
-0.244582
-0.227527
-0.21141
-0.195987
-0.180976
-0.168967
-0.480331
-0.46125
-0.446246
-0.431307
-0.414721
-0.396662
-0.377431
-0.35736
-0.336818
-0.316161
-0.295697
-0.275681
-0.256307
-0.237715
-0.219998
-0.203234
-0.187453
-0.172375
-0.157673
-0.146163
-0.448513
-0.43117
-0.417259
-0.402989
-0.386821
-0.36899
-0.34987
-0.329856
-0.309367
-0.288792
-0.268461
-0.248639
-0.22952
-0.211241
-0.193888
-0.177531
-0.162191
-0.147553
-0.13324
-0.122266
-0.413494
-0.398039
-0.385321
-0.371804
-0.356144
-0.338648
-0.319756
-0.29993
-0.279635
-0.259289
-0.23924
-0.219758
-0.201037
-0.183207
-0.166343
-0.150508
-0.135713
-0.121609
-0.107757
-0.0973478
-0.375348
-0.361922
-0.35049
-0.337811
-0.322758
-0.305707
-0.28717
-0.267671
-0.247717
-0.227753
-0.208139
-0.189147
-0.170969
-0.153723
-0.137474
-0.122275
-0.108128
-0.0946507
-0.0813292
-0.0715017
-0.334182
-0.322917
-0.312861
-0.301106
-0.286759
-0.27027
-0.252221
-0.233193
-0.213733
-0.194307
-0.175283
-0.156934
-0.139443
-0.122918
-0.107411
-0.0929636
-0.0795679
-0.0668102
-0.054089
-0.0448493
-0.290138
-0.281152
-0.272557
-0.261811
-0.248274
-0.232468
-0.215043
-0.196634
-0.177823
-0.159093
-0.140817
-0.123262
-0.106604
-0.0909381
-0.0763017
-0.0627234
-0.0501872
-0.0382473
-0.0261998
-0.0175459
-0.243394
-0.236792
-0.229737
-0.220084
-0.20746
-0.19246
-0.175796
-0.158155
-0.140148
-0.12227
-0.104897
-0.088288
-0.0726088
-0.0579409
-0.0443074
-0.0317228
-0.0201627
-0.00915168
0.00213529
0.01021
-0.194158
-0.190033
-0.184589
-0.176111
-0.164503
-0.15043
-0.134664
-0.117938
-0.100886
-0.0840126
-0.0676911
-0.0521754
-0.0376187
-0.0240899
-0.0115975
-0.000142464
0.0103066
0.0202513
0.0306594
0.038156
-0.142674
-0.141103
-0.137333
-0.130107
-0.119615
-0.106588
-0.0918524
-0.0761809
-0.0602272
-0.0445013
-0.029373
-0.0150889
-0.00179234
0.0104578
0.0216647
0.0318384
0.0410132
0.0497077
0.0590567
0.065944
-0.0892147
-0.0902589
-0.0882187
-0.0823168
-0.0730339
-0.061166
-0.0475853
-0.0330986
-0.0183741
-0.0039243
0.00988526
0.0228148
0.0347272
0.0455688
0.0553476
0.064079
0.0717926
0.0790008
0.0870037
0.0931463
-0.0340841
-0.0377871
-0.0375215
-0.0330083
-0.0250229
-0.014418
-0.00210584
0.0110796
0.0244605
0.0375253
0.0499133
0.0613893
0.0718178
0.0811412
0.0893599
0.0964854
0.102532
0.107929
0.114008
0.118929
0.0223887
0.0160016
0.0144584
0.0175259
0.0241347
0.0333825
0.0443252
0.0561091
0.0680527
0.0796491
0.0905436
0.100504
0.109389
0.117122
0.123671
0.129014
0.133095
0.135996
0.1386
0.140792
0.0798494
0.0707725
0.0673981
0.0689722
0.0741348
0.0819429
0.0914291
0.101729
0.112163
0.122238
0.131608
0.140051
0.147422
0.153625
0.158583
0.162234
0.164351
0.164159
0.161293
0.158903
0.137922
0.12617
0.120955
0.120998
0.124655
0.130953
0.138908
0.147655
0.156526
0.165047
0.172895
0.179872
0.185859
0.19079
0.194646
0.197498
0.199244
0.198576
0.194562
0.200054
0.196236
0.181838
0.174782
0.173264
0.175367
0.180092
0.186452
0.193585
0.200845
0.207777
0.214091
0.219613
0.22426
0.228006
0.230894
0.233081
0.234595
0.234538
0.232939
0.240749
0.254394
0.237399
0.228512
0.225415
0.225925
0.229027
0.233738
0.239207
0.244807
0.250114
0.254861
0.258901
0.262173
0.264678
0.266482
0.267746
0.268502
0.268038
0.266615
0.273482
0.311996
0.292469
0.281778
0.277094
0.275983
0.277425
0.280444
0.284206
0.28811
0.291756
0.294902
0.297423
0.299276
0.300476
0.301095
0.301286
0.301069
0.299815
0.2978
0.303052
0.368646
0.346669
0.334208
0.327942
0.325197
0.324954
0.326254
0.32828
0.330459
0.332417
0.333935
0.334906
0.335299
0.335135
0.334488
0.333495
0.332164
0.329931
0.32709
0.330705
0.423953
0.399621
0.385438
0.377605
0.373227
0.371291
0.370858
0.371136
0.371577
0.371836
0.371713
0.371116
0.370023
0.368461
0.366499
0.364259
0.361738
0.358436
0.354671
0.356668
0.477536
0.450955
0.435107
0.425736
0.419741
0.41612
0.41396
0.412494
0.411204
0.409769
0.40801
0.405848
0.403269
0.400301
0.397011
0.393505
0.389776
0.385385
0.380667
0.381076
0.529023
0.500311
0.482866
0.471999
0.464418
0.459138
0.455275
0.45209
0.449094
0.445992
0.442622
0.438919
0.434875
0.43052
0.425917
0.421161
0.416241
0.410781
0.405119
0.403985
0.578059
0.547343
0.528379
0.51607
0.506951
0.500056
0.494534
0.489674
0.485018
0.480294
0.47536
0.47016
0.464694
0.458993
0.453116
0.447149
0.44108
0.434592
0.428015
0.425398
0.624304
0.591719
0.571325
0.557642
0.547046
0.5386
0.53148
0.52501
0.518759
0.512479
0.506045
0.499413
0.492587
0.4856
0.478507
0.471386
0.464228
0.456768
0.449317
0.445289
0.667439
0.633128
0.6114
0.596423
0.584431
0.574511
0.565876
0.557879
0.550117
0.542365
0.534514
0.52653
0.518421
0.510223
0.501989
0.493785
0.485608
0.477243
0.468971
0.463617
0.707165
0.671278
0.648323
0.632143
0.618847
0.607551
0.597499
0.588075
0.578903
0.56978
0.560611
0.55137
0.542072
0.532752
0.52346
0.514257
0.505142
0.495946
0.486912
0.480328
0.743206
0.705901
0.681832
0.664553
0.650061
0.637499
0.626146
0.615412
0.604948
0.594568
0.584193
0.573805
0.563422
0.553079
0.542825
0.532714
0.522749
0.512802
0.503075
0.495367
0.775313
0.736752
0.71169
0.693425
0.677857
0.664157
0.651632
0.639719
0.628093
0.616586
0.60513
0.593714
0.58236
0.571105
0.559992
0.549072
0.538352
0.527738
0.517391
0.508675
0.803261
0.763614
0.737687
0.718559
0.702047
0.687345
0.673791
0.660845
0.6482
0.635706
0.623304
0.61099
0.598789
0.586737
0.574877
0.563252
0.551875
0.540683
0.529796
0.520199
0.826857
0.786296
0.759639
0.739779
0.722463
0.706911
0.692482
0.678657
0.665147
0.651815
0.638612
0.625538
0.61262
0.599895
0.587403
0.575184
0.563254
0.551576
0.540231
0.529886
0.845934
0.804637
0.777391
0.756935
0.738967
0.722723
0.707582
0.693043
0.67883
0.664819
0.650966
0.637276
0.623778
0.610508
0.597505
0.584806
0.57243
0.560359
0.548645
0.537693
0.860361
0.818509
0.790816
0.769909
0.751446
0.734675
0.718994
0.703913
0.689167
0.674641
0.660295
0.646139
0.632201
0.618519
0.60513
0.592069
0.579355
0.566988
0.554994
0.543582
0.870035
0.827811
0.799819
0.778609
0.759812
0.742688
0.726643
0.711198
0.696094
0.681222
0.666545
0.652076
0.637843
0.623885
0.610237
0.596932
0.583993
0.571428
0.559245
0.547524
0.874889
0.832479
0.804337
0.782975
0.76401
0.746709
0.730481
0.714852
0.699569
0.684522
0.66968
0.655053
0.640672
0.626575
0.612797
0.599371
0.586318
0.573654
0.561376
0.5495
0.87489
0.832479
0.804337
0.782975
0.76401
0.746709
0.730481
0.714852
0.699569
0.684522
0.66968
0.655053
0.640672
0.626575
0.612798
0.599371
0.586318
0.573654
0.561377
0.5495
0.870036
0.827812
0.799819
0.77861
0.759813
0.742689
0.726644
0.711198
0.696095
0.681222
0.666546
0.652076
0.637843
0.623885
0.610237
0.596933
0.583993
0.571428
0.559245
0.547525
0.860362
0.81851
0.790817
0.76991
0.751446
0.734676
0.718995
0.703913
0.689168
0.674642
0.660296
0.64614
0.632202
0.61852
0.605131
0.592069
0.579356
0.566989
0.554994
0.543583
0.845936
0.804639
0.777392
0.756937
0.738969
0.722724
0.707583
0.693044
0.678832
0.66482
0.650967
0.637277
0.623779
0.610509
0.597506
0.584807
0.572431
0.56036
0.548645
0.537694
0.826858
0.786297
0.759641
0.73978
0.722465
0.706913
0.692483
0.678658
0.665148
0.651816
0.638613
0.625539
0.612621
0.599896
0.587404
0.575186
0.563255
0.551577
0.540232
0.529888
0.803263
0.763616
0.73769
0.718561
0.702049
0.687347
0.673793
0.660847
0.648202
0.635707
0.623306
0.610992
0.598791
0.586739
0.574878
0.563254
0.551877
0.540685
0.529797
0.5202
0.775315
0.736755
0.711693
0.693428
0.67786
0.664159
0.651634
0.639722
0.628095
0.616588
0.605132
0.593716
0.582362
0.571107
0.559994
0.549074
0.538353
0.52774
0.517393
0.508677
0.743209
0.705904
0.681835
0.664556
0.650063
0.637502
0.626149
0.615415
0.60495
0.594571
0.584196
0.573807
0.563424
0.553082
0.542828
0.532717
0.522751
0.512804
0.503077
0.495368
0.707168
0.671282
0.648326
0.632147
0.61885
0.607554
0.597502
0.588078
0.578906
0.569783
0.560614
0.551373
0.542075
0.532755
0.523463
0.51426
0.505144
0.495949
0.486915
0.48033
0.667443
0.633132
0.611404
0.596427
0.584434
0.574514
0.565879
0.557882
0.55012
0.542368
0.534517
0.526533
0.518424
0.510226
0.501991
0.493788
0.485611
0.477246
0.468973
0.463619
0.624308
0.591723
0.571329
0.557646
0.54705
0.538603
0.531484
0.525014
0.518762
0.512483
0.506049
0.499416
0.49259
0.485603
0.47851
0.471389
0.46423
0.456771
0.44932
0.445292
0.578063
0.547347
0.528384
0.516075
0.506955
0.50006
0.494538
0.489678
0.485022
0.480297
0.475363
0.470163
0.464697
0.458996
0.453119
0.447152
0.441083
0.434595
0.428018
0.425401
0.529028
0.500316
0.482871
0.472004
0.464423
0.459143
0.455279
0.452094
0.449098
0.445996
0.442626
0.438923
0.434879
0.430524
0.42592
0.421164
0.416244
0.410784
0.405122
0.403988
0.477541
0.45096
0.435112
0.425741
0.419746
0.416125
0.413965
0.412498
0.411208
0.409773
0.408014
0.405852
0.403273
0.400305
0.397014
0.393509
0.389779
0.385388
0.38067
0.381079
0.423959
0.399627
0.385443
0.37761
0.373232
0.371296
0.370863
0.37114
0.371582
0.37184
0.371717
0.37112
0.370027
0.368465
0.366503
0.364263
0.361742
0.35844
0.354674
0.356672
0.368652
0.346675
0.334214
0.327947
0.325203
0.32496
0.326259
0.328285
0.330464
0.332422
0.33394
0.33491
0.335303
0.335139
0.334492
0.333499
0.332168
0.329935
0.327094
0.330708
0.312002
0.292475
0.281784
0.2771
0.275989
0.27743
0.28045
0.284211
0.288115
0.291761
0.294907
0.297427
0.299281
0.30048
0.301099
0.30129
0.301073
0.299819
0.297804
0.303055
0.2544
0.237405
0.228519
0.225421
0.225931
0.229033
0.233744
0.239212
0.244813
0.25012
0.254866
0.258905
0.262178
0.264683
0.266486
0.26775
0.268506
0.268042
0.266619
0.273486
0.196243
0.181845
0.174788
0.17327
0.175373
0.180098
0.186458
0.193591
0.20085
0.207783
0.214096
0.219618
0.224265
0.228011
0.230899
0.233086
0.234599
0.234542
0.232943
0.240752
0.137928
0.126177
0.120961
0.121004
0.124662
0.130959
0.138914
0.147661
0.156532
0.165052
0.172901
0.179877
0.185864
0.190795
0.194651
0.197503
0.199249
0.198581
0.194566
0.200058
0.0798565
0.0707795
0.067405
0.068979
0.0741415
0.0819495
0.0914356
0.101735
0.112169
0.122244
0.131614
0.140056
0.147428
0.15363
0.158588
0.162239
0.164356
0.164163
0.161297
0.158908
0.022396
0.0160088
0.0144655
0.0175329
0.0241415
0.0333893
0.0443318
0.0561155
0.0680589
0.0796552
0.0905495
0.10051
0.109394
0.117127
0.123676
0.129019
0.1331
0.136001
0.138604
0.140797
-0.0340766
-0.0377797
-0.0375142
-0.0330011
-0.0250158
-0.0144111
-0.00209908
0.0110862
0.0244669
0.0375316
0.0499194
0.0613952
0.0718234
0.0811467
0.0893652
0.0964905
0.102537
0.107934
0.114013
0.118933
-0.0892071
-0.0902514
-0.0882113
-0.0823095
-0.0730267
-0.0611589
-0.0475784
-0.0330918
-0.0183675
-0.00391791
0.00989145
0.0228208
0.034733
0.0455745
0.055353
0.0640843
0.0717978
0.0790058
0.0870086
0.093151
-0.142666
-0.141095
-0.137326
-0.1301
-0.119607
-0.106581
-0.0918454
-0.0761741
-0.0602205
-0.0444947
-0.0293667
-0.0150827
-0.00178638
0.0104636
0.0216703
0.0318439
0.0410185
0.0497128
0.0590617
0.0659489
-0.19415
-0.190026
-0.184581
-0.176103
-0.164495
-0.150423
-0.134657
-0.117931
-0.100879
-0.084006
-0.0676847
-0.0521692
-0.0376126
-0.0240839
-0.0115917
-0.000136868
0.010312
0.0202566
0.0306645
0.038161
-0.243386
-0.236784
-0.229729
-0.220077
-0.207453
-0.192453
-0.175789
-0.158148
-0.140141
-0.122264
-0.10489
-0.0882816
-0.0726026
-0.0579349
-0.0443015
-0.031717
-0.0201572
-0.00914628
0.00214055
0.0102151
-0.29013
-0.281144
-0.272549
-0.261804
-0.248267
-0.232461
-0.215035
-0.196627
-0.177816
-0.159086
-0.14081
-0.123256
-0.106598
-0.0909319
-0.0762958
-0.0627176
-0.0501815
-0.0382418
-0.0261945
-0.0175407
-0.334174
-0.322909
-0.312853
-0.301098
-0.286751
-0.270263
-0.252214
-0.233186
-0.213725
-0.1943
-0.175277
-0.156928
-0.139437
-0.122912
-0.107405
-0.0929577
-0.0795621
-0.0668046
-0.0540835
-0.044844
-0.375339
-0.361914
-0.350482
-0.337804
-0.32275
-0.305699
-0.287163
-0.267664
-0.24771
-0.227746
-0.208132
-0.189141
-0.170962
-0.153716
-0.137468
-0.122269
-0.108122
-0.094645
-0.0813236
-0.0714963
-0.413486
-0.398031
-0.385313
-0.371796
-0.356136
-0.33864
-0.319749
-0.299923
-0.279628
-0.259282
-0.239233
-0.219751
-0.201031
-0.1832
-0.166337
-0.150502
-0.135707
-0.121604
-0.107751
-0.0973422
-0.448505
-0.431162
-0.417251
-0.402981
-0.386813
-0.368982
-0.349862
-0.329849
-0.30936
-0.288785
-0.268455
-0.248632
-0.229514
-0.211235
-0.193882
-0.177525
-0.162185
-0.147547
-0.133234
-0.12226
-0.480323
-0.461242
-0.446237
-0.431299
-0.414714
-0.396654
-0.377423
-0.357353
-0.336811
-0.316153
-0.29569
-0.275674
-0.256301
-0.237708
-0.219991
-0.203228
-0.187447
-0.172369
-0.157668
-0.146157
-0.508901
-0.488242
-0.472244
-0.45672
-0.439804
-0.421612
-0.40238
-0.382373
-0.361911
-0.34131
-0.320857
-0.300791
-0.281302
-0.26253
-0.244575
-0.227521
-0.211404
-0.195981
-0.18097
-0.168962
-0.53423
-0.51216
-0.495273
-0.479244
-0.462079
-0.443843
-0.424707
-0.404876
-0.384615
-0.364202
-0.343895
-0.323917
-0.304448
-0.285629
-0.267562
-0.250334
-0.233989
-0.21832
-0.203082
-0.190624
-0.556336
-0.533026
-0.515357
-0.498901
-0.481562
-0.463361
-0.444411
-0.424854
-0.404905
-0.3848
-0.364766
-0.345007
-0.325692
-0.306955
-0.2889
-0.271615
-0.255152
-0.239338
-0.223961
-0.211112
-0.575272
-0.550899
-0.532555
-0.515748
-0.498305
-0.480209
-0.461521
-0.442327
-0.422788
-0.4031
-0.383458
-0.364041
-0.345005
-0.326477
-0.308556
-0.291333
-0.274863
-0.259007
-0.243583
-0.230411
-0.59112
-0.565862
-0.546951
-0.529868
-0.512385
-0.494455
-0.476095
-0.457337
-0.438295
-0.419121
-0.399978
-0.381019
-0.362381
-0.344183
-0.326518
-0.309473
-0.293108
-0.277316
-0.261943
-0.248524
-0.603986
-0.578022
-0.558653
-0.541365
-0.523899
-0.50619
-0.488213
-0.469954
-0.451481
-0.432907
-0.414357
-0.39596
-0.377834
-0.360081
-0.342789
-0.326039
-0.309891
-0.29427
-0.279049
-0.265469
-0.614001
-0.587508
-0.567788
-0.550364
-0.53297
-0.515525
-0.497976
-0.480267
-0.462424
-0.444519
-0.426648
-0.408907
-0.391394
-0.374196
-0.357391
-0.34105
-0.325231
-0.30989
-0.294929
-0.28128
-0.62131
-0.594463
-0.574498
-0.557005
-0.539731
-0.52259
-0.505504
-0.488383
-0.471216
-0.454041
-0.436917
-0.419916
-0.403111
-0.38657
-0.370359
-0.354539
-0.339163
-0.324213
-0.309621
-0.296007
-0.626086
-0.599052
-0.578944
-0.561447
-0.544337
-0.527531
-0.510934
-0.494429
-0.477974
-0.461573
-0.445255
-0.429065
-0.41305
-0.397261
-0.381747
-0.366556
-0.351733
-0.337286
-0.32318
-0.309715
-0.628506
-0.601444
-0.581295
-0.563855
-0.54695
-0.530505
-0.514415
-0.498544
-0.482823
-0.467229
-0.451763
-0.436441
-0.421289
-0.406337
-0.391618
-0.377161
-0.363001
-0.34917
-0.335672
-0.322479
-0.628757
-0.60182
-0.581725
-0.564402
-0.547739
-0.531677
-0.516106
-0.500878
-0.485903
-0.471136
-0.456554
-0.442147
-0.42792
-0.413881
-0.400044
-0.386423
-0.373036
-0.359935
-0.347172
-0.334389
-0.627035
-0.600363
-0.580413
-0.563265
-0.546881
-0.531219
-0.516173
-0.501588
-0.487363
-0.473432
-0.459752
-0.446294
-0.43304
-0.41998
-0.407109
-0.394419
-0.381912
-0.369657
-0.357761
-0.345539
-0.623534
-0.597259
-0.577542
-0.560624
-0.544552
-0.529305
-0.514786
-0.50084
-0.487356
-0.474259
-0.461489
-0.449001
-0.436757
-0.424731
-0.412897
-0.40123
-0.389708
-0.378415
-0.367524
-0.35603
-0.618451
-0.592691
-0.573289
-0.556655
-0.540929
-0.526112
-0.512118
-0.498798
-0.486041
-0.473765
-0.461901
-0.450389
-0.43918
-0.428229
-0.417496
-0.406935
-0.396499
-0.386286
-0.376543
-0.365962
-0.611974
-0.586837
-0.567828
-0.551532
-0.536185
-0.521809
-0.508337
-0.495628
-0.483577
-0.4721
-0.461124
-0.450583
-0.440418
-0.430572
-0.420992
-0.411611
-0.40236
-0.393341
-0.384893
-0.375428
-0.604283
-0.579867
-0.561326
-0.545421
-0.530485
-0.516565
-0.50361
-0.491495
-0.480121
-0.469412
-0.459295
-0.449705
-0.440578
-0.431851
-0.423461
-0.415326
-0.407349
-0.399639
-0.392636
-0.38451
-0.595546
-0.571942
-0.55394
-0.538478
-0.523988
-0.510539
-0.498097
-0.486554
-0.475827
-0.465846
-0.456549
-0.447875
-0.439763
-0.432152
-0.424973
-0.418134
-0.411514
-0.405222
-0.399814
-0.393271
-0.585915
-0.563207
-0.545814
-0.530849
-0.516842
-0.503879
-0.491948
-0.480958
-0.47084
-0.461541
-0.453012
-0.445204
-0.438067
-0.431546
-0.42558
-0.42007
-0.414875
-0.410104
-0.406439
-0.401745
-0.575526
-0.553796
-0.53708
-0.522666
-0.50918
-0.496725
-0.485303
-0.474844
-0.465298
-0.456628
-0.448804
-0.441795
-0.43557
-0.430092
-0.425312
-0.42114
-0.417422
-0.414264
-0.41249
-0.409935
-0.5645
-0.543827
-0.527857
-0.514048
-0.501124
-0.489197
-0.478287
-0.468341
-0.459327
-0.451228
-0.444033
-0.437739
-0.43234
-0.427825
-0.424174
-0.421318
-0.419101
-0.417631
-0.417889
-0.417797
-0.552939
-0.533405
-0.518248
-0.5051
-0.492779
-0.481406
-0.471011
-0.46156
-0.453037
-0.445444
-0.438796
-0.433113
-0.428423
-0.424756
-0.422132
-0.420523
-0.419794
-0.420062
-0.42249
-0.425229
-0.540935
-0.522623
-0.508345
-0.495912
-0.484234
-0.473439
-0.463567
-0.454594
-0.446522
-0.439368
-0.433168
-0.427973
-0.423847
-0.420864
-0.419106
-0.418609
-0.419288
-0.421297
-0.426026
-0.432044
-0.528571
-0.511563
-0.498229
-0.48656
-0.475566
-0.465373
-0.456028
-0.447519
-0.439855
-0.433069
-0.427212
-0.422359
-0.418609
-0.41609
-0.414954
-0.415332
-0.417229
-0.420887
-0.428027
-0.437893
-0.515928
-0.500304
-0.487972
-0.477113
-0.466835
-0.457265
-0.448451
-0.440389
-0.433093
-0.4266
-0.420968
-0.416287
-0.412684
-0.410331
-0.409455
-0.410304
-0.413018
-0.417999
-0.427521
-0.441988
-0.503089
-0.488921
-0.477641
-0.467627
-0.458093
-0.449162
-0.440881
-0.433248
-0.426277
-0.419998
-0.414468
-0.409772
-0.406042
-0.403469
-0.402341
-0.403017
-0.405789
-0.411292
-0.422801
-0.443048
-0.490144
-0.477492
-0.4673
-0.458159
-0.449387
-0.441103
-0.433352
-0.42613
-0.419442
-0.413305
-0.407752
-0.402845
-0.398683
-0.395436
-0.393393
-0.392991
-0.39467
-0.39929
-0.411543
-0.438828
-0.477194
-0.466096
-0.457016
-0.448761
-0.44076
-0.433126
-0.4259
-0.419074
-0.412636
-0.406578
-0.400892
-0.395577
-0.390644
-0.386132
-0.382162
-0.379021
-0.377011
-0.376322
-0.380819
-0.405605
-0.46435
-0.454817
-0.446856
-0.439489
-0.43226
-0.425275
-0.418572
-0.412136
-0.40594
-0.399946
-0.39409
-0.388279
-0.382369
-0.376115
-0.36913
-0.360859
-0.350131
-0.33312
-0.303353
-0.272948
-0.451728
-0.443744
-0.436888
-0.4304
-0.423936
-0.417597
-0.41142
-0.405391
-0.399474
-0.393617
-0.387737
-0.381714
-0.375376
-0.368466
-0.360627
-0.351453
-0.340317
-0.325104
-0.302472
-0.282258
-0.439442
-0.432961
-0.427181
-0.421552
-0.415837
-0.410138
-0.404494
-0.398894
-0.393307
-0.387682
-0.381941
-0.375978
-0.369651
-0.362774
-0.355124
-0.346501
-0.33664
-0.324571
-0.309417
-0.298971
-0.427602
-0.422551
-0.417801
-0.412998
-0.408012
-0.402942
-0.397831
-0.39268
-0.387467
-0.38215
-0.376668
-0.370939
-0.364861
-0.358311
-0.351163
-0.343331
-0.334698
-0.324721
-0.313368
-0.306988
-0.416305
-0.412587
-0.408808
-0.404792
-0.400504
-0.396045
-0.391465
-0.386776
-0.381968
-0.377016
-0.371877
-0.366498
-0.360815
-0.354759
-0.348275
-0.341356
-0.333976
-0.325803
-0.317006
-0.312574
-0.40563
-0.403135
-0.400255
-0.396978
-0.393353
-0.389482
-0.385423
-0.381199
-0.376816
-0.372264
-0.36752
-0.362557
-0.357343
-0.35185
-0.346068
-0.340035
-0.333772
-0.327061
-0.320101
-0.316812
-0.395638
-0.394245
-0.392189
-0.389596
-0.386594
-0.383283
-0.379727
-0.375964
-0.372012
-0.367875
-0.36355
-0.359029
-0.354305
-0.349378
-0.344263
-0.339016
-0.333677
-0.328086
-0.322423
-0.319807
-0.386371
-0.385957
-0.384644
-0.38268
-0.380255
-0.37747
-0.374396
-0.37108
-0.367553
-0.363832
-0.359928
-0.35585
-0.351607
-0.347215
-0.342704
-0.338133
-0.333547
-0.328819
-0.324091
-0.321865
-0.377854
-0.378297
-0.377648
-0.376254
-0.374359
-0.372064
-0.369443
-0.366554
-0.363437
-0.36012
-0.356625
-0.352972
-0.349182
-0.34528
-0.341302
-0.337306
-0.333332
-0.329277
-0.325244
-0.32325
-0.370097
-0.371284
-0.37122
-0.370338
-0.368925
-0.367079
-0.36488
-0.362391
-0.359661
-0.356726
-0.353617
-0.350362
-0.346988
-0.343525
-0.34001
-0.336497
-0.333022
-0.329499
-0.325996
-0.324144
-0.363099
-0.364925
-0.365373
-0.364946
-0.363965
-0.362527
-0.360713
-0.358594
-0.356223
-0.353643
-0.35089
-0.347998
-0.344998
-0.341922
-0.338806
-0.335698
-0.33263
-0.32953
-0.32644
-0.324682
-0.356853
-0.359222
-0.360114
-0.360085
-0.359488
-0.358415
-0.35695
-0.355165
-0.353121
-0.350863
-0.348433
-0.345866
-0.343196
-0.340456
-0.33768
-0.334911
-0.332177
-0.329418
-0.326656
-0.324966