1.45 	0 	0 	-0.294758
2.35 	0 	0 	-0.1297
