1.275 	2.15223e-18 	-2.76991e-20 	-0.0344619 	-0.000434576 	-1.91004e-22
1.825 	2.15223e-18 	-1.39322e-20 	-0.00946154 	-0.00275365 	1.68735e-21
2.375 	2.15223e-18 	-2.66896e-23 	0.115318 	-0.00323924 	-7.03834e-22
