1.275 	2.15223e-18 	-2.76991e-20 	-0.03448 	-0.000439197 	-1.90304e-22
1.825 	2.15223e-18 	-1.39322e-20 	-0.00949774 	-0.00275497 	1.67823e-21
2.375 	2.15223e-18 	-2.66896e-23 	0.115205 	-0.00323025 	-6.99956e-22
