1.45 	0 	0 	-0.00774575 	-0.00258819 	3.82318e-21
2.35 	0 	0 	0.0621741 	-0.00665799 	2.34227e-21
