1.45 	0 	0 	-0.296179
2.35 	0 	0 	-0.130862
