1.275 	2.15223e-18 	-2.76991e-20 	-0.0334483 	-0.000466973 	-2.0094e-22
1.825 	2.15223e-18 	-1.39322e-20 	-0.00774533 	-0.00285081 	1.80677e-21
2.375 	2.15223e-18 	-2.66896e-23 	0.12018 	-0.00339253 	-7.53557e-22
