1.45 	0 	0 	-0.291605
2.35 	0 	0 	-0.126916
