/*--------------------------------*- C++ -*----------------------------------*\
  =========                 |
  \\      /  F ield         | OpenFOAM: The Open Source CFD Toolbox
   \\    /   O peration     | Website:  https://openfoam.org
    \\  /    A nd           | Version:  6.0
     \\/     M anipulation  |
\*---------------------------------------------------------------------------*/
FoamFile
{
    version     2.0;
    format      ascii;
    class       surfaceScalarField;
    location    "2";
    object      phi;
}
// * * * * * * * * * * * * * * * * * * * * * * * * * * * * * * * * * * * * * //

dimensions      [0 3 -1 0 0 0 0];

internalField   nonuniform List<scalar> 
123526
(
-0.000160649
2.62569e-05
0.000161116
-0.000160193
2.83958e-05
-0.000159665
3.07107e-05
-0.000159126
3.32155e-05
-0.000158511
3.59263e-05
-0.000157881
3.88604e-05
-0.000157165
4.20367e-05
-0.000156428
4.54758e-05
-0.000155593
4.91992e-05
-0.000154731
5.32311e-05
-0.000153757
5.7599e-05
-0.000152747
6.23311e-05
-0.000151611
6.74593e-05
-0.000150424
7.30152e-05
-0.000149094
7.90383e-05
-0.000147697
8.55735e-05
-0.000146146
9.26639e-05
-0.000144497
0.000100351
-0.000142675
0.000108699
-0.000140731
0.00011777
-0.000138592
0.000127616
-0.000136286
0.000138319
-0.000133769
0.000149966
-0.000131032
0.000162618
-0.000128046
0.000176405
-0.000124794
0.000191411
-0.000121237
0.000207757
-0.000117355
0.000225581
-0.000113109
0.000245003
-0.000108465
0.000266207
-0.000103382
0.000289321
-9.78097e-05
0.000314562
-9.16894e-05
0.000342094
-8.49678e-05
0.000372131
-7.75931e-05
0.000404882
-6.94791e-05
0.000440526
-6.0576e-05
0.000479288
-5.08005e-05
0.000521305
-4.00728e-05
0.000566686
-2.83305e-05
0.000615484
-1.55087e-05
0.000667598
-1.54608e-06
0.000722781
1.35664e-05
0.000780613
2.98272e-05
0.000840464
4.72165e-05
0.000901489
6.56976e-05
0.000962618
8.51938e-05
0.00102254
0.00010561
0.00107974
0.00012683
0.00113242
0.000148737
0.00117841
0.000171283
0.00121484
0.000194281
0.00123762
0.000217734
0.00124084
0.000241109
0.0012166
0.000263995
0.00115365
0.000285574
0.001037
0.000304943
0.000844516
0.000321043
0.000537769
0.000329336
-5.65953e-06
-0.000602818
0.000323503
-0.000158452
2.58206e-05
0.000158911
-0.000157993
2.79253e-05
-0.000157469
3.02036e-05
-0.000156931
3.2669e-05
-0.000156326
3.53374e-05
-0.000155701
3.82257e-05
-0.000155002
4.13528e-05
-0.000154278
4.47388e-05
-0.000153468
4.84043e-05
-0.000152626
5.23728e-05
-0.000151686
5.66726e-05
-0.000150703
6.13307e-05
-0.00014961
6.63785e-05
-0.000148457
7.18448e-05
-0.000147178
7.77693e-05
-0.000145823
8.42008e-05
-0.000144331
9.11782e-05
-0.000142735
9.87355e-05
-0.000140981
0.000106945
-0.0001391
0.00011587
-0.000137038
0.000125548
-0.000134807
0.000136067
-0.000132376
0.000147523
-0.000129725
0.000159947
-0.000126837
0.0001735
-0.000123686
0.000188241
-0.000120239
0.000204292
-0.000116474
0.0002218
-0.000112346
0.000240859
-0.000107838
0.000261673
-0.000102887
0.000284345
-9.74565e-05
0.000309106
-9.14792e-05
0.000336096
-8.49033e-05
0.000365535
-7.76709e-05
0.000397629
-6.9694e-05
0.000432527
-6.09152e-05
0.000470487
-5.1247e-05
0.000511613
-4.06019e-05
0.000556016
-2.89133e-05
0.000603768
-1.61129e-05
0.000654768
-2.1405e-06
0.000708777
1.30056e-05
0.000765431
2.93013e-05
0.000824128
4.67019e-05
0.000884039
6.51409e-05
0.000944121
8.45134e-05
0.00100309
0.000104705
0.00105944
0.000125594
0.00111137
0.000147072
0.00115669
0.000169111
0.0011925
0.000191545
0.00121478
0.000214414
0.00121772
0.000237201
0.0011935
0.00025953
0.00113108
0.000280602
0.00101567
0.000299568
0.000825434
0.000315434
0.000521741
0.000323925
-1.5484e-05
-0.000599577
0.000319065
-0.000155765
2.53948e-05
0.000156225
-0.00015531
2.74653e-05
-0.000154795
2.9707e-05
-0.000154262
3.21331e-05
-0.000153666
3.4759e-05
-0.000153049
3.76019e-05
-0.00015236
4.06801e-05
-0.000151644
4.40139e-05
-0.000150846
4.76225e-05
-0.000150014
5.15293e-05
-0.000149089
5.57627e-05
-0.00014812
6.03492e-05
-0.000147047
6.53192e-05
-0.000145913
7.06988e-05
-0.000144661
7.65283e-05
-0.000143331
8.286e-05
-0.000141872
8.97287e-05
-0.000140308
9.71608e-05
-0.000138594
0.000105237
-0.000136755
0.000114019
-0.000134741
0.000123534
-0.00013256
0.000133875
-0.000130187
0.000145144
-0.000127597
0.000157346
-0.000124776
0.000170669
-0.000121696
0.00018515
-0.000118328
0.000200912
-0.000114646
0.000218109
-0.000110611
0.00023681
-0.000106199
0.000257246
-0.000101355
0.00027948
-9.60362e-05
0.000303769
-9.01807e-05
0.000330226
-8.37355e-05
0.000359076
-7.66442e-05
0.000390522
-6.88187e-05
0.000424684
-6.0202e-05
0.000461851
-5.07068e-05
0.000502097
-4.02457e-05
0.000545532
-2.8752e-05
0.000592251
-1.61571e-05
0.000642146
-2.39984e-06
0.000694992
1.25224e-05
0.000750477
2.85822e-05
0.000808037
4.57318e-05
0.000866854
6.39013e-05
0.000925915
8.29834e-05
0.00098397
0.000102862
0.00103952
0.000123415
0.00109075
0.000144532
0.00113546
0.000166183
0.00117077
0.000188199
0.00119255
0.000210627
0.00119527
0.000232955
0.001171
0.000254828
0.00110911
0.000275465
0.000994844
0.000294048
0.000806581
0.00030959
0.000505907
0.000318263
-2.45955e-05
-0.000595183
0.000313869
-0.000153095
2.49691e-05
0.000153533
-0.000152649
2.70054e-05
-0.000152141
2.92105e-05
-0.000151615
3.15973e-05
-0.000151025
3.41811e-05
-0.000150413
3.69788e-05
-0.00014973
4.00087e-05
-0.000149019
4.32908e-05
-0.000148229
4.68433e-05
-0.000147403
5.06892e-05
-0.000146487
5.48574e-05
-0.000145527
5.93736e-05
-0.000144465
6.42677e-05
-0.000143343
6.95629e-05
-0.000142105
7.53001e-05
-0.000140792
8.15348e-05
-0.000139353
8.82982e-05
-0.00013781
9.56089e-05
-0.000136123
0.000103555
-0.000134312
0.0001122
-0.000132333
0.000121556
-0.00013019
0.000131725
-0.00012786
0.000142813
-0.000125318
0.000154797
-0.000122552
0.000167897
-0.000119533
0.000182124
-0.000116231
0.000197604
-0.000112624
0.000214497
-0.000108669
0.000232848
-0.000104349
0.000252911
-9.96022e-05
0.000274716
-9.43909e-05
0.000298544
-8.86531e-05
0.000324478
-8.23371e-05
0.000352749
-7.53873e-05
0.00038356
-6.77175e-05
0.000417
-5.92714e-05
0.000453389
-4.9963e-05
0.00049277
-3.97061e-05
0.000535254
-2.84349e-05
0.000580956
-1.60805e-05
0.000629765
-2.5812e-06
0.000681463
1.20677e-05
0.000735794
2.78383e-05
0.000792231
4.46842e-05
0.000849967
6.25371e-05
0.000908018
8.1293e-05
0.000965159
0.000100837
0.0010199
0.000121051
0.00107044
0.000141821
0.00111454
0.000163108
0.00114929
0.000184745
0.00117064
0.000206767
0.00117307
0.000228677
0.00114882
0.000250125
0.00108738
0.000270351
0.000974261
0.000288564
0.000788053
0.000303769
0.000490273
0.000312626
-3.49333e-05
-0.000592788
0.0003086
-0.000150405
2.45569e-05
0.000150847
-0.000149965
2.65594e-05
-0.000149466
2.87283e-05
-0.00014895
3.1076e-05
-0.000148372
3.36177e-05
-0.00014777
3.63702e-05
-0.000147099
3.93516e-05
-0.000146399
4.25818e-05
-0.000145621
4.6078e-05
-0.000144806
4.98628e-05
-0.000143902
5.39659e-05
-0.000142952
5.84118e-05
-0.000141903
6.32301e-05
-0.000140792
6.84411e-05
-0.000139569
7.40864e-05
-0.000138269
8.02249e-05
-0.000136848
8.68841e-05
-0.000135323
9.40752e-05
-0.000133656
0.000101894
-0.000131868
0.000110405
-0.000129915
0.000119606
-0.000127802
0.000129605
-0.000125506
0.000140516
-0.000123004
0.000152289
-0.000120281
0.00016517
-0.000117313
0.00017915
-0.000114068
0.000194354
-0.000110525
0.000210951
-0.000106643
0.000228959
-0.000102402
0.000248659
-9.77462e-05
0.000270044
-9.26355e-05
0.00029342
-8.70098e-05
0.000318842
-8.08186e-05
0.000346548
-7.40079e-05
0.000376738
-6.64933e-05
0.000409472
-5.82199e-05
0.0004451
-4.91037e-05
0.000483636
-3.90604e-05
0.000525192
-2.80252e-05
0.0005699
-1.59298e-05
0.000617645
-2.71172e-06
0.000668219
1.1636e-05
0.000721418
2.70874e-05
0.000776752
4.35997e-05
0.000833425
6.11094e-05
0.000890481
7.95187e-05
0.000946722
9.87169e-05
0.00100068
0.000118589
0.00105054
0.000139021
0.00109405
0.000159961
0.00112831
0.000181242
0.00114922
0.000202886
0.00115143
0.000224404
0.00112719
0.000245453
0.00106626
0.00026529
0.000954267
0.000283142
0.000769957
0.000298006
0.000475172
0.000307048
-4.42816e-05
-0.000588822
0.000303305
-0.000147787
2.4144e-05
0.000148206
-0.000147356
2.61131e-05
-0.000146865
2.82461e-05
-0.000146355
3.05553e-05
-0.000145783
3.30556e-05
-0.000145188
3.57636e-05
-0.000144525
3.86973e-05
-0.000143832
4.18765e-05
-0.000143063
4.53172e-05
-0.000142256
4.90419e-05
-0.000141363
5.30806e-05
-0.000140423
5.74571e-05
-0.000139385
6.22006e-05
-0.000138287
6.73287e-05
-0.000137077
7.28834e-05
-0.00013579
7.89271e-05
-0.000134384
8.54838e-05
-0.000132875
9.2557e-05
-0.000131228
0.00010025
-0.000129459
0.000108629
-0.00012753
0.000117677
-0.000125442
0.000127512
-0.000123176
0.000138249
-0.000120707
0.000149814
-0.000118022
0.000162483
-0.000115097
0.000176221
-0.000111902
0.000191155
-0.000108416
0.000207462
-0.000104598
0.000225136
-0.000100431
0.00024448
-9.5858e-05
0.000265455
-9.08411e-05
0.00028839
-8.53216e-05
0.000313313
-7.92501e-05
0.000340468
-7.25742e-05
0.000370052
-6.52118e-05
0.000402097
-5.71096e-05
0.000436983
-4.81861e-05
0.000474696
-3.83587e-05
0.000515345
-2.75645e-05
0.000559083
-1.57356e-05
0.000605791
-2.80957e-06
0.000655265
1.12236e-05
0.000707353
2.63409e-05
0.0007616
4.25051e-05
0.000817222
5.96584e-05
0.000873286
7.77112e-05
0.000928624
9.65578e-05
0.000981776
0.000116089
0.00103093
0.000136187
0.00107384
0.00015679
0.00110756
0.000177731
0.00112808
0.000199014
0.00113
0.000220161
0.00110581
0.000240828
0.00104532
0.000260292
0.000934442
0.000277798
0.000752105
0.00029234
0.000460148
0.000301557
-5.4959e-05
-0.00058678
0.000298008
-0.000145159
2.37455e-05
0.000145585
-0.000144734
2.56818e-05
-0.000144253
2.77795e-05
-0.000143753
3.00503e-05
-0.000143194
3.25095e-05
-0.000142611
3.51731e-05
-0.000141961
3.80592e-05
-0.000141281
4.11874e-05
-0.000140525
4.45727e-05
-0.000139731
4.82373e-05
-0.000138851
5.22117e-05
-0.000137925
5.65188e-05
-0.000136902
6.11875e-05
-0.000135817
6.62327e-05
-0.000134623
7.1697e-05
-0.000133352
7.76461e-05
-0.000131964
8.41006e-05
-0.000130472
9.10568e-05
-0.000128845
9.86258e-05
-0.000127097
0.000106873
-0.00012519
0.000115771
-0.000123127
0.000125442
-0.000120889
0.000136009
-0.00011845
0.000147371
-0.000115802
0.00015983
-0.000112916
0.000173331
-0.000109767
0.000188002
-0.000106333
0.000204025
-0.000102574
0.000221373
-9.84749e-05
0.00024037
-9.39787e-05
0.000260945
-8.90503e-05
0.000283449
-8.36316e-05
0.000307885
-7.76747e-05
0.000334502
-7.11289e-05
0.000363495
-6.39146e-05
0.00039487
-5.59803e-05
0.000429034
-4.72467e-05
0.000465946
-3.76338e-05
0.000505714
-2.708e-05
0.00054851
-1.55187e-05
0.000594207
-2.88719e-06
0.00064261
1.0827e-05
0.000693612
2.56056e-05
0.000746796
4.14164e-05
0.000801384
5.8209e-05
0.00085647
7.59017e-05
0.000910907
9.43951e-05
0.000963262
0.000113585
0.00101172
0.000133353
0.00105404
0.000153626
0.00108726
0.000174237
0.00110736
0.000195171
0.0011091
0.000215961
0.00108494
0.000236262
0.00102499
0.000255369
0.000915224
0.000272538
0.00073476
0.000286772
0.000445772
0.000296142
-6.44903e-05
-0.000582955
0.00029274
-0.000142617
2.3346e-05
0.000143018
-0.0001422
2.52498e-05
-0.000141727
2.73125e-05
-0.000141233
2.95459e-05
-0.000140681
3.19647e-05
-0.000140105
3.4585e-05
-0.000139463
3.74245e-05
-0.00013879
4.05027e-05
-0.000138044
4.38337e-05
-0.00013726
4.74394e-05
-0.000136392
5.13506e-05
-0.000135478
5.55896e-05
-0.000134469
6.01848e-05
-0.000133397
6.51484e-05
-0.000132219
7.05238e-05
-0.000130964
7.63796e-05
-0.000129592
8.27334e-05
-0.000128119
8.9574e-05
-0.000126511
9.70203e-05
-0.000124784
0.000105139
-0.0001229
0.000113888
-0.000120862
0.000123398
-0.000118652
0.000133797
-0.000116244
0.000144958
-0.000113629
0.000157211
-0.000110783
0.00017048
-0.000107677
0.000184892
-0.000104292
0.000200638
-0.00010059
0.000217666
-9.65541e-05
0.000236324
-9.21318e-05
0.000256508
-8.72872e-05
0.000278592
-8.19648e-05
0.000302554
-7.61181e-05
0.000328646
-6.96979e-05
0.000357065
-6.26272e-05
0.000387787
-5.48563e-05
0.00042125
-4.63085e-05
0.000457382
-3.6906e-05
0.000496294
-2.65891e-05
0.000538172
-1.5292e-05
0.000582887
-2.95277e-06
0.000630244
1.04444e-05
0.000680185
2.48854e-05
0.000732322
4.03444e-05
0.00078589
5.67771e-05
0.000839997
7.41111e-05
0.000893532
9.22523e-05
0.000945066
0.000111104
0.00099281
0.000130544
0.0010345
0.000150489
0.00106718
0.000170779
0.0010869
0.000191372
0.00108838
0.000211817
0.00106429
0.000231763
0.00100478
0.000250522
0.000896118
0.000267367
0.000717578
0.000281315
0.000431349
0.000290817
-7.54031e-05
-0.000581004
0.00028751
-0.000140067
2.2961e-05
0.000140475
-0.000139657
2.48328e-05
-0.000139193
2.68612e-05
-0.00013871
2.90574e-05
-0.00013817
3.1436e-05
-0.000137606
3.40131e-05
-0.000136978
3.68062e-05
-0.000136319
3.98346e-05
-0.000135587
4.31115e-05
-0.000134816
4.66583e-05
-0.000133963
5.05067e-05
-0.000133063
5.46778e-05
-0.00013207
5.91996e-05
-0.000131014
6.4082e-05
-0.000129854
6.93688e-05
-0.000128616
7.51319e-05
-0.000127264
8.13854e-05
-0.00012581
8.81114e-05
-0.000124224
9.54359e-05
-0.000122519
0.000103426
-0.00012066
0.000112029
-0.000118648
0.000121379
-0.000116466
0.000131612
-0.000114089
0.000142576
-0.000111509
0.000154627
-0.000108701
0.000167667
-0.000105638
0.000181825
-0.000102301
0.000197298
-9.86535e-05
0.000214013
-9.46802e-05
0.00023234
-9.03279e-05
0.000252143
-8.55645e-05
0.000273817
-8.0335e-05
0.000297315
-7.45947e-05
0.000322897
-6.82961e-05
0.000350756
-6.13645e-05
0.000380844
-5.37524e-05
0.000413624
-4.53854e-05
0.000449
-3.61882e-05
0.000487079
-2.61026e-05
0.000528068
-1.50644e-05
0.000571828
-3.01175e-06
0.00061817
1.00735e-05
0.000667075
2.41826e-05
0.000718191
3.92942e-05
0.000770752
5.53721e-05
0.000823898
7.23506e-05
0.000876532
9.01432e-05
0.000927255
0.000108657
0.000974282
0.000127771
0.00101535
0.000147395
0.00104753
0.000167365
0.00106685
0.000187625
0.00106815
0.000207732
0.00104414
0.000227333
0.000985176
0.000245756
0.000877631
0.000262285
0.000700948
0.00027596
0.000417632
0.000285566
-8.50141e-05
-0.000577179
0.000282335
-0.000137606
2.25747e-05
0.000137991
-0.000137204
2.4415e-05
-0.000136748
2.64095e-05
-0.000136272
2.85693e-05
-0.000135739
3.09087e-05
-0.000135181
3.34437e-05
-0.000134561
3.61915e-05
-0.000133909
3.91713e-05
-0.000133188
4.23954e-05
-0.000132427
4.58848e-05
-0.000131587
4.96715e-05
-0.000130699
5.37761e-05
-0.000129721
5.82261e-05
-0.00012868
6.30288e-05
-0.000127536
6.82286e-05
-0.000126315
7.39005e-05
-0.000124982
8.00553e-05
-0.000123548
8.66683e-05
-0.000121984
9.38727e-05
-0.000120302
0.000101736
-0.000118468
0.000110194
-0.000116483
0.000119387
-0.00011433
0.000129457
-0.000111986
0.000140225
-0.00010944
0.000152077
-0.000106671
0.000164892
-0.000103651
0.000178801
-0.000100362
0.000194007
-9.67689e-05
0.000210415
-9.28556e-05
0.000228417
-8.8573e-05
0.000247846
-8.38882e-05
0.00026912
-7.87491e-05
0.000292166
-7.3112e-05
0.00031725
-6.69314e-05
0.000344566
-6.01349e-05
0.000374035
-5.26769e-05
0.000406153
-4.44856e-05
0.000440793
-3.54877e-05
0.000478065
-2.56273e-05
0.000518188
-1.48408e-05
0.000561019
-3.06769e-06
0.000606371
9.71358e-06
0.000654265
2.34979e-05
0.000704374
3.82701e-05
0.000755946
5.39994e-05
0.000808129
7.06284e-05
0.000859863
8.80766e-05
0.000909752
0.000106256
0.000956046
0.000125047
0.000996477
0.000144349
0.00102811
0.000164004
0.00104705
0.000183935
0.00104811
0.000203713
0.00102419
0.000222976
0.000965674
0.000241069
0.000859214
0.000257294
0.000684413
0.000270713
0.000403772
0.000280404
-9.60446e-05
-0.000575194
0.000277217
-0.000135138
2.2203e-05
0.000135531
-0.000134742
2.40125e-05
-0.000134295
2.59736e-05
-0.00013383
2.80973e-05
-0.000133309
3.03978e-05
-0.000132764
3.28908e-05
-0.000132157
3.55935e-05
-0.000131519
3.85249e-05
-0.000130812
4.16963e-05
-0.000130066
4.51285e-05
-0.00012924
4.88539e-05
-0.000128367
5.28923e-05
-0.000127406
5.72708e-05
-0.000126382
6.19943e-05
-0.000125256
6.71076e-05
-0.000124054
7.26889e-05
-0.000122742
7.87458e-05
-0.000121329
8.52469e-05
-0.000119788
9.23324e-05
-0.00011813
0.000100071
-0.000116322
0.000108385
-0.000114365
0.000117423
-0.000112243
0.000127331
-0.000109931
0.000137908
-0.000107422
0.000149563
-0.000104691
0.000162156
-0.000101715
0.00017582
-9.84747e-05
0.000190763
-9.49349e-05
0.000206871
-9.10826e-05
0.000224554
-8.68675e-05
0.000243619
-8.22602e-05
0.0002645
-7.72095e-05
0.000287105
-7.16732e-05
0.000311705
-6.56076e-05
0.000338489
-5.89424e-05
0.000367358
-5.16342e-05
0.000398831
-4.36133e-05
0.000432758
-3.4809e-05
0.000469244
-2.51669e-05
0.000508528
-1.46248e-05
0.000550458
-3.12273e-06
0.000594849
9.36287e-06
0.000641757
2.28317e-05
0.000690885
3.72726e-05
0.000741481
5.26618e-05
0.000792721
6.89471e-05
0.000843556
8.60568e-05
0.000892627
0.000103905
0.000938185
0.000122374
0.000977984
0.000141358
0.0010091
0.000160699
0.00102764
0.000180306
0.00102854
0.000199759
0.00100472
0.000218692
0.00094676
0.000236464
0.000841415
0.00025239
0.000668444
0.000265564
0.000390632
0.000275314
-0.000105683
-0.00057133
0.000272168
-0.000132761
2.18299e-05
0.00013313
-0.000132373
2.36089e-05
-0.000131935
2.55373e-05
-0.000131474
2.76257e-05
-0.000130961
2.98883e-05
-0.000130421
3.23404e-05
-0.000129823
3.49991e-05
-0.000129193
3.78834e-05
-0.000128496
4.10035e-05
-0.000127759
4.43799e-05
-0.000126947
4.80454e-05
-0.000126086
5.20191e-05
-0.000125139
5.63277e-05
-0.000124131
6.09735e-05
-0.000123022
6.60021e-05
-0.000121838
7.14945e-05
-0.000120546
7.74553e-05
-0.000119154
8.38462e-05
-0.000117636
9.08146e-05
-0.000116003
9.84299e-05
-0.000114222
0.000106603
-0.000112293
0.000115488
-0.000110202
0.000125237
-0.000107923
0.000135624
-0.000105451
0.000147085
-0.00010276
0.000159461
-9.98282e-05
0.000172883
-9.66365e-05
0.000187568
-9.31511e-05
0.00020338
-8.93582e-05
0.000220753
-8.52113e-05
0.000239458
-8.06802e-05
0.000259958
-7.57165e-05
0.000282132
-7.02788e-05
0.000306258
-6.43256e-05
0.000332526
-5.77883e-05
0.00036081
-5.06258e-05
0.000391655
-4.27704e-05
0.000424888
-3.41537e-05
0.000460611
-2.47231e-05
0.000499079
-1.44176e-05
0.000540131
-3.17821e-06
0.000583585
9.02126e-06
0.00062953
2.21836e-05
0.00067769
3.6303e-05
0.000727328
5.13601e-05
0.000777624
6.73098e-05
0.000827566
8.40861e-05
0.000875797
0.000101608
0.000920611
0.000119756
0.000959755
0.000138424
0.000990326
0.000157455
0.00100848
0.00017674
0.00100916
0.000195873
0.000985423
0.000214481
0.000927926
0.000231938
0.000823651
0.000247575
0.000652516
0.000260517
0.000377277
0.00027031
-0.000116766
-0.000569277
0.000267183
-0.000130378
2.1471e-05
0.000130754
-0.000129996
2.32202e-05
-0.000129566
2.51163e-05
-0.000129116
2.71698e-05
-0.000128614
2.93946e-05
-0.000128088
3.18061e-05
-0.000127502
3.44211e-05
-0.000126886
3.72584e-05
-0.000126202
4.03274e-05
-0.000125481
4.36482e-05
-0.000124683
4.72542e-05
-0.000123838
5.11636e-05
-0.000122907
5.54028e-05
-0.000121915
5.99716e-05
-0.000120826
6.49161e-05
-0.000119661
7.03204e-05
-0.00011839
7.61859e-05
-0.00011702
8.24679e-05
-0.000115526
8.93205e-05
-0.000113918
9.68141e-05
-0.000112164
0.000104848
-0.000110265
0.000113582
-0.000108205
0.000123173
-0.000105961
0.000133374
-0.000103526
0.000144644
-0.000100876
0.000156805
-9.79882e-05
0.00016999
-9.48457e-05
0.000184423
-9.14143e-05
0.000199945
-8.76822e-05
0.000217011
-8.36019e-05
0.000235367
-7.9147e-05
0.000255491
-7.42686e-05
0.000277244
-6.89282e-05
0.000300908
-6.30847e-05
0.000326672
-5.66727e-05
0.000354386
-4.96518e-05
0.000384621
-4.19573e-05
0.000417179
-3.35227e-05
0.000452161
-2.42968e-05
0.000489836
-1.42204e-05
0.000530036
-3.23486e-06
0.00057258
8.68742e-06
0.000617587
2.15534e-05
0.000664805
3.53602e-05
0.000713498
5.00947e-05
0.000762873
6.57153e-05
0.000811924
8.21652e-05
0.000859335
9.93632e-05
0.000903403
0.000117195
0.000941901
0.000135549
0.000971944
0.00015427
0.000989709
0.000173238
0.000990229
0.000192054
0.000966613
0.000210343
0.000909675
0.000227492
0.000806506
0.000242846
0.000637171
0.00025556
0.000364664
0.000265375
-0.000126361
-0.000565371
0.000262272
-0.000128084
2.11109e-05
0.000128437
-0.000127709
2.28305e-05
-0.000127287
2.4695e-05
-0.000126843
2.67144e-05
-0.000126348
2.89024e-05
-0.000125827
3.12744e-05
-0.00012525
3.38468e-05
-0.000124641
3.66385e-05
-0.000123968
3.96578e-05
-0.000123255
4.29246e-05
-0.00012247
4.64725e-05
-0.000121638
5.03191e-05
-0.000120722
5.44904e-05
-0.000119746
5.89839e-05
-0.000118674
6.38461e-05
-0.000117527
6.91639e-05
-0.000116276
7.49359e-05
-0.000114928
8.11109e-05
-0.000113458
8.78498e-05
-0.000111875
9.52234e-05
-0.000110149
0.00010312
-0.000108279
0.000111705
-0.000106251
0.000121142
-0.000104042
0.000131159
-0.000101644
0.000142242
-9.90354e-05
0.000154191
-9.61928e-05
0.000167143
-9.30998e-05
0.000181326
-8.97233e-05
0.000196564
-8.60507e-05
0.00021333
-8.2038e-05
0.000231342
-7.7658e-05
0.0002511
-7.28644e-05
0.000272441
-6.76195e-05
0.000295654
-6.18838e-05
0.000320926
-5.5594e-05
0.000348085
-4.87114e-05
0.000377726
-4.11732e-05
0.000409626
-3.29152e-05
0.000443887
-2.38878e-05
0.00048079
-1.40328e-05
0.00052016
-3.293e-06
0.000561815
8.36158e-06
0.000605905
2.09402e-05
0.000652195
3.44444e-05
0.00069996
4.88644e-05
0.000748414
6.41644e-05
0.000796583
8.02937e-05
0.000843157
9.71729e-05
0.000886474
0.000114691
0.000924309
0.000132733
0.000953801
0.000151147
0.00097118
0.0001698
0.000971482
0.000188304
0.000947965
0.000206279
0.00089149
0.000223124
0.000789373
0.000238202
0.000621827
0.000250699
0.000351787
0.000260526
-0.000137422
-0.000563233
0.000257429
-0.000125783
2.07647e-05
0.000126144
-0.000125414
2.24555e-05
-0.000125
2.42888e-05
-0.000124566
2.62744e-05
-0.000124083
2.8426e-05
-0.000123574
3.07586e-05
-0.00012301
3.32887e-05
-0.000122414
3.60349e-05
-0.000121755
3.90047e-05
-0.000121057
4.22176e-05
-0.000120287
4.57079e-05
-0.00011947
4.94922e-05
-0.000118571
5.35962e-05
-0.000117611
5.80149e-05
-0.000116558
6.27956e-05
-0.000115431
6.80279e-05
-0.000114201
7.37074e-05
-0.000112875
7.97766e-05
-0.000111429
8.64031e-05
-0.000109872
9.36585e-05
-0.000108174
0.00010142
-0.000106334
0.000109859
-0.000104338
0.000119143
-0.000102164
0.000128979
-9.98045e-05
0.000139877
-9.72372e-05
0.000151619
-9.44401e-05
0.000164341
-9.13966e-05
0.00017828
-8.80748e-05
0.000193238
-8.44626e-05
0.00020971
-8.05168e-05
0.000227385
-7.62113e-05
0.000246785
-7.15016e-05
0.000267722
-6.63506e-05
0.000290494
-6.07211e-05
0.000315286
-5.45508e-05
0.000341903
-4.78033e-05
0.000370966
-4.04173e-05
0.000402226
-3.23308e-05
0.000435785
-2.34957e-05
0.000471939
-1.38552e-05
0.000510502
-3.35276e-06
0.000551295
8.04265e-06
0.00059449
2.03436e-05
0.000639876
3.35539e-05
0.000686729
4.76686e-05
0.000734283
6.26549e-05
0.000781576
7.84707e-05
0.000827333
9.50353e-05
0.000869899
0.000112242
0.000907082
0.000129975
0.000936041
0.000148084
0.000953033
0.000166427
0.000953184
0.000184621
0.000929792
0.000202286
0.000873877
0.000218835
0.000772851
0.000233641
0.000607068
0.000245924
0.000339654
0.000255744
-0.000146945
-0.000559293
0.000252661
-0.000123571
2.04173e-05
0.00012391
-0.000123209
2.20796e-05
-0.000122803
2.38823e-05
-0.000122374
2.58349e-05
-0.000121898
2.7951e-05
-0.000121394
3.02454e-05
-0.000120838
3.27344e-05
-0.000120249
3.54364e-05
-0.0001196
3.83582e-05
-0.000118912
4.15188e-05
-0.000118154
4.49528e-05
-0.000117349
4.86763e-05
-0.000116465
5.27145e-05
-0.000115521
5.70602e-05
-0.000114485
6.17612e-05
-0.000113376
6.69096e-05
-0.000112167
7.24984e-05
-0.000110863
7.84639e-05
-0.000109441
8.49801e-05
-0.000107909
9.21191e-05
-0.000106239
9.97472e-05
-0.000104428
0.000108042
-0.000102465
0.000117176
-0.000100326
0.000126834
-9.8005e-05
0.000137551
-9.54794e-05
0.000149088
-9.27278e-05
0.000161585
-8.97343e-05
0.000175283
-8.64671e-05
0.000189967
-8.29152e-05
0.00020615
-7.90361e-05
0.000223495
-7.48049e-05
0.000242543
-7.01778e-05
0.000263087
-6.51198e-05
0.000285427
-5.95942e-05
0.000309751
-5.35413e-05
0.000335839
-4.69255e-05
0.000364337
-3.96879e-05
0.000394974
-3.17681e-05
0.000427849
-2.31195e-05
0.000463271
-1.36866e-05
0.000501048
-3.414e-06
0.000540998
7.73101e-06
0.000583318
1.97628e-05
0.000627813
3.26885e-05
0.00067377
4.6506e-05
0.000720427
6.11868e-05
0.000766853
7.66947e-05
0.000811782
9.295e-05
0.000853596
0.000109849
0.000890112
0.000127276
0.000918519
0.000145082
0.000935122
0.000163116
0.000935062
0.000181006
0.000911769
0.000198366
0.000856316
0.000214621
0.000756321
0.000229162
0.000592276
0.000241239
0.000327218
0.000251045
-0.000157953
-0.000557078
0.000247961
-0.000121352
2.00833e-05
0.000121699
-0.000120996
2.17178e-05
-0.000120598
2.34904e-05
-0.000120179
2.54103e-05
-0.000119714
2.74912e-05
-0.000119223
2.97475e-05
-0.000118679
3.21955e-05
-0.000118104
3.48536e-05
-0.000117468
3.77275e-05
-0.000116794
4.0836e-05
-0.00011605
4.42143e-05
-0.00011526
4.78774e-05
-0.000114393
5.18505e-05
-0.000113465
5.61239e-05
-0.000112448
6.07459e-05
-0.000111358
6.58115e-05
-0.00011017
7.13107e-05
-0.000108888
7.71738e-05
-0.00010749
8.35812e-05
-0.000105984
9.06056e-05
-0.000104342
9.81026e-05
-0.000102561
0.000106256
-0.000100631
0.000115242
-9.85273e-05
0.000124725
-9.62442e-05
0.000135263
-9.37603e-05
0.0001466
-9.10544e-05
0.000158875
-8.81106e-05
0.000172337
-8.48984e-05
0.000186751
-8.14067e-05
0.000202651
-7.75939e-05
0.000219673
-7.34363e-05
0.000238376
-6.88911e-05
0.000258534
-6.39247e-05
0.000280452
-5.85015e-05
0.000304318
-5.25636e-05
0.00032989
-4.60767e-05
0.000357838
-3.89837e-05
0.000387868
-3.1226e-05
0.000420077
-2.27585e-05
0.000454788
-1.35269e-05
0.000491801
-3.47668e-06
0.000530931
7.42581e-06
0.000572397
1.91973e-05
0.000616024
3.18465e-05
0.000661101
4.53753e-05
0.000706884
5.97575e-05
0.000752451
7.49645e-05
0.000796572
9.09151e-05
0.000837635
0.000107511
0.000873498
0.000124635
0.000901368
0.000142139
0.000917587
0.000159869
0.000917378
0.000177456
0.000894217
0.000194516
0.000839318
0.000210484
0.000740399
0.000224764
0.000578076
0.000236634
0.000315541
0.000246412
-0.00016736
-0.000553115
0.000243336
-0.00011922
1.97481e-05
0.000119545
-0.000118871
2.13551e-05
-0.00011848
2.30981e-05
-0.000118066
2.49863e-05
-0.000117608
2.70328e-05
-0.000117122
2.92522e-05
-0.000116586
3.16606e-05
-0.000116017
3.4276e-05
-0.000115391
3.71035e-05
-0.000114726
4.01614e-05
-0.000113995
4.34853e-05
-0.000113217
4.70897e-05
-0.000112364
5.09991e-05
-0.000111452
5.52019e-05
-0.000110452
5.97467e-05
-0.00010938
6.47313e-05
-0.000108212
7.01427e-05
-0.000106951
7.59054e-05
-0.000105578
8.22058e-05
-0.000104096
8.91176e-05
-0.000102482
9.64858e-05
-0.000100732
0.000104499
-9.88339e-05
0.00011334
-9.67655e-05
0.000122652
-9.45207e-05
0.000133013
-9.20786e-05
0.000144153
-8.94181e-05
0.00015621
-8.65243e-05
0.00016944
-8.33668e-05
0.000183589
-7.99348e-05
0.000199212
-7.61883e-05
0.000215916
-7.21035e-05
0.000234282
-6.76395e-05
0.000254061
-6.27632e-05
0.000275568
-5.74408e-05
0.000298986
-5.16156e-05
0.000324054
-4.52549e-05
0.000351465
-3.8303e-05
0.000380902
-3.07032e-05
0.000412462
-2.24115e-05
0.000446479
-1.33751e-05
0.000482744
-3.54033e-06
0.000521072
7.12739e-06
0.000561703
1.86463e-05
0.000604475
3.10276e-05
0.000648687
4.42751e-05
0.0006936
5.83666e-05
0.000738318
7.32782e-05
0.000781625
8.89296e-05
0.00082194
0.000105225
0.000857136
0.00012205
0.000884456
0.000139257
0.000900285
0.000156684
0.00089987
0.000173973
0.000876807
0.000190737
0.000822365
0.000206421
0.000724454
0.000220445
0.000563819
0.000232116
0.000303537
0.000241861
-0.000178269
-0.000550819
0.000238778
-0.00011708
1.94264e-05
0.000117414
-0.000116737
2.10065e-05
-0.000116354
2.27204e-05
-0.00011595
2.45771e-05
-0.000115502
2.65896e-05
-0.000115028
2.87722e-05
-0.000114504
3.1141e-05
-0.000113949
3.37139e-05
-0.000113336
3.64951e-05
-0.000112685
3.95027e-05
-0.000111968
4.27726e-05
-0.000111205
4.63186e-05
-0.000110367
5.0165e-05
-0.000109471
5.42979e-05
-0.00010849
5.87664e-05
-0.000107437
6.36708e-05
-0.00010629
6.89956e-05
-0.000105051
7.46592e-05
-0.000103701
8.08544e-05
-0.000102245
8.76553e-05
-0.000100659
9.48967e-05
-9.89384e-05
0.000102773
-9.70731e-05
0.000111471
-9.50398e-05
0.000120613
-9.28333e-05
0.000130802
-9.04328e-05
0.000141747
-8.78179e-05
0.000153591
-8.49736e-05
0.000166593
-8.18705e-05
0.000180482
-7.84983e-05
0.000195832
-7.48172e-05
0.000212225
-7.08047e-05
0.00023026
-6.64208e-05
0.00024967
-6.16336e-05
0.000270773
-5.64103e-05
0.000293754
-5.06959e-05
0.000318328
-4.44586e-05
0.000345215
-3.76444e-05
0.000374075
-3.01984e-05
0.000405002
-2.20778e-05
0.000438344
-1.32309e-05
0.000473882
-3.60496e-06
0.00051143
6.83511e-06
0.000551247
1.81093e-05
0.000593184
3.02302e-05
0.000636548
4.32044e-05
0.000680612
5.70117e-05
0.000724493
7.16345e-05
0.000767004
8.69915e-05
0.000806575
0.000102991
0.000841119
0.00011952
0.000867902
0.000136431
0.000883351
0.000153561
0.000882786
0.000170554
0.000859858
0.000187026
0.000805963
0.000202432
0.000709109
0.000216203
0.000550152
0.000227674
0.000292294
0.000237373
-0.000187547
-0.000546836
0.000234294
-0.000115027
1.91034e-05
0.000115339
-0.00011469
2.0657e-05
-0.000114315
2.23424e-05
-0.000113915
2.41683e-05
-0.000113474
2.61476e-05
-0.000113005
2.82946e-05
-0.000112489
3.0625e-05
-0.000111939
3.31567e-05
-0.000111336
3.5893e-05
-0.000110693
3.88517e-05
-0.000109988
4.20691e-05
-0.000109237
4.55584e-05
-0.000108414
4.93433e-05
-0.000107532
5.3408e-05
-0.000106567
5.78019e-05
-0.000105532
6.26279e-05
-0.000104405
6.78678e-05
-0.000103187
7.34344e-05
-0.000101861
7.95262e-05
-0.00010043
8.62182e-05
-9.88717e-05
9.33351e-05
-9.71806e-05
0.000101076
-9.53476e-05
0.000109634
-9.33494e-05
0.00011861
-9.11808e-05
0.000128629
-8.88219e-05
0.000139384
-8.6252e-05
0.000151016
-8.34572e-05
0.000163795
-8.04082e-05
0.000177429
-7.7095e-05
0.000192511
-7.34789e-05
0.000208599
-6.9538e-05
0.00022631
-6.52333e-05
0.000245358
-6.05341e-05
0.000266066
-5.54082e-05
0.000288619
-4.98024e-05
0.000312712
-4.3686e-05
0.000339087
-3.70064e-05
0.000367382
-2.97103e-05
0.000397691
-2.17561e-05
0.000430373
-1.30932e-05
0.0004652
-3.67003e-06
0.000501985
6.54928e-06
0.000541003
1.75858e-05
0.000582119
2.9454e-05
0.000624649
4.21618e-05
0.00066787
5.56923e-05
0.000710923
7.00317e-05
0.000752635
8.50998e-05