1.45 	0 	0 	-0.291383
2.35 	0 	0 	-0.126627
