1.45 	0 	0 	0.39819 	-0.0198646 	1.72261e-21
2.35 	0 	0 	0.701857 	-0.0108146 	-1.02007e-21
