/*--------------------------------*- C++ -*----------------------------------*\
  =========                 |
  \\      /  F ield         | OpenFOAM: The Open Source CFD Toolbox
   \\    /   O peration     | Website:  https://openfoam.org
    \\  /    A nd           | Version:  6.0
     \\/     M anipulation  |
\*---------------------------------------------------------------------------*/
FoamFile
{
    version     2.0;
    format      ascii;
    class       surfaceScalarField;
    location    "34";
    object      phi;
}
// * * * * * * * * * * * * * * * * * * * * * * * * * * * * * * * * * * * * * //

dimensions      [0 3 -1 0 0 0 0];

internalField   nonuniform List<scalar> 
68636
(
3.0212e-05
0.00310562
3.93192e-09
6.08258e-05
0.00307073
9.10836e-05
0.00300238
0.000120488
0.00290112
0.000148633
0.00276814
0.000175177
0.00260488
0.000199818
0.00241303
0.000222268
0.00219469
0.000242272
0.00195229
0.000259599
0.00168853
0.000274053
0.00140626
0.000285474
0.00110852
0.000293752
0.000798629
0.000298712
0.000479514
0.000149713
0.000298581
2.99315e-05
0.00307567
1.70718e-08
6.02765e-05
0.00304039
9.02631e-05
0.00297238
0.000119396
0.00287199
0.000147279
0.00274027
0.000173578
0.0025786
0.000197993
0.00238863
0.000220239
0.00217247
0.00024006
0.00193249
0.000257229
0.00167138
0.000271553
0.00139197
0.000282866
0.00109723
0.000291096
0.000790424
0.000295809
0.000474833
0.000149703
0.000295914
2.96565e-05
0.00304599
2.75942e-08
5.97329e-05
0.00301032
8.94472e-05
0.00294266
0.000118309
0.00284313
0.000145935
0.00271264
0.000171993
0.00255254
0.000196187
0.00236444
0.000218231
0.00215042
0.000237873
0.00191285
0.000254885
0.00165436
0.000269078
0.00137776
0.000280283
0.001086
0.000288437
0.000782254
0.000293203
0.000470034
0.000149078
0.000293732
2.93853e-05
0.00301657
3.57478e-08
5.91924e-05
0.00298051
8.86345e-05
0.00291321
0.000117229
0.00281453
0.000144601
0.00268527
0.000170423
0.00252672
0.000194398
0.00234047
0.000216242
0.00212858
0.000235705
0.00189339
0.000252561
0.00163751
0.000266625
0.00136371
0.000277724
0.00107492
0.000285787
0.000774192
0.000290566
0.000465255
0.000148341
0.000291342
2.91168e-05
0.00298741
4.19778e-08
5.86542e-05
0.00295097
8.78255e-05
0.00288403
0.000116156
0.0027862
0.000143277
0.00265815
0.000168866
0.00250112
0.000192625
0.00231671
0.000214271
0.00210692
0.000233556
0.0018741
0.000250258
0.0016208
0.000264194
0.00134976
0.000275188
0.00106389
0.000283159
0.000766204
0.000287907
0.000460474
0.000147305
0.000288847
2.88501e-05
0.00295851
4.63929e-08
5.8118e-05
0.00292171
8.70206e-05
0.00285512
0.000115091
0.00275812
0.000141966
0.00263127
0.000167324
0.00247577
0.000190868
0.00229317
0.000212317
0.00208547
0.000231426
0.00185499
0.000247975
0.00160425
0.000261784
0.00133596
0.000272678
0.001053
0.000280558
0.000758316
0.000285265
0.000455756
0.000146269
0.000286319
2.8585e-05
0.00292987
4.90424e-08
5.75843e-05
0.00289271
8.62209e-05
0.00282647
0.000114035
0.0027303
0.000140667
0.00260463
0.000165796
0.00245063
0.000189128
0.00226983
0.000210381
0.00206421
0.000229316
0.00183605
0.000245713
0.00158784
0.000259396
0.00132226
0.000270191
0.00104218
0.000277987
0.000750506
0.000282649
0.000451066
0.000145053
0.000283779
2.83213e-05
0.0029015
5.05041e-08
5.70538e-05
0.00286397
8.54274e-05
0.00279809
0.000112988
0.00270274
0.00013938
0.00257824
0.000164283
0.00242572
0.000187403
0.00224671
0.000208464
0.00204315
0.000227225
0.00181729
0.000243473
0.00157159
0.00025703
0.0013087
0.000267727
0.00103149
0.000275444
0.00074278
0.000280061
0.000446432
0.000143881
0.000281247
2.80592e-05
0.00287339
5.18763e-08
5.6527e-05
0.00283551
8.46409e-05
0.00276997
0.000111952
0.00267542
0.000138106
0.00255208
0.000162784
0.00240104
0.000185694
0.00222379
0.000206563
0.00202227
0.000225154
0.00179869
0.000241252
0.00155548
0.000254685
0.00129526
0.000265287
0.00102087
0.000272927
0.000735128
0.000277503
0.000441835
0.000142579
0.000278731
2.77987e-05
0.00284553
5.3859e-08
5.60046e-05
0.0028073
8.38619e-05
0.00274211
0.000110925
0.00264836
0.000136844
0.00252616
0.000161299
0.00237658
0.000184001
0.00220109
0.000204679
0.00200159
0.0002231
0.00178027
0.000239052
0.00153952
0.000252362
0.00128195
0.000262868
0.00101036
0.000270436
0.000727549
0.000274972
0.000437282
0.000141333
0.000276233
2.754e-05
0.00281794
5.71514e-08
5.54869e-05
0.00277935
8.30909e-05
0.0027145
0.00010991
0.00262153
0.000135594
0.00250047
0.000159828
0.00235234
0.000182323
0.00217859
0.000202813
0.00198109
0.000221065
0.00176201
0.000236871
0.00152371
0.000250059
0.00126875
0.00026047
0.000999936
0.000267968
0.000720043
0.000272467
0.000432768
0.00013998
0.000273756
2.72834e-05
0.00279059
6.22982e-08
5.49745e-05
0.00275166
8.23279e-05
0.00268714
0.000108904
0.00259496
0.000134357
0.00247502
0.000158371
0.00232833
0.00018066
0.0021563
0.000200963
0.00196079
0.000219048
0.00174392
0.00023471
0.00150804
0.000247777
0.00125568
0.000258094
0.000989622
0.000265524
0.000712603
0.000269987
0.000428289
0.000138677
0.000271306
2.7029e-05
0.00276349
6.92378e-08
5.44673e-05
0.00272422
8.15729e-05
0.00266004
0.000107909
0.00256862
0.000133132
0.00244979
0.000156927
0.00230453
0.000179013
0.00213421
0.00019913
0.00194067
0.00021705
0.001726
0.000232569
0.00149252
0.000245516
0.00124273
0.000255739
0.000979385
0.000263102
0.000705235
0.00026753
0.000423851
0.000137273
0.000268877
2.6777e-05
0.00273663
7.74599e-08
5.39655e-05
0.00269703
8.08256e-05
0.00263317
0.000106923
0.00254252
0.000131918
0.00242479
0.000155496
0.00228095
0.000177381
0.00211233
0.000197313
0.00192073
0.00021507
0.00170824
0.000230448
0.00147714
0.000243277
0.0012299
0.000253406
0.000969259
0.000260702
0.00069793
0.000265094
0.000419444
0.000135923
0.000266463
2.65274e-05
0.00271002
8.60053e-08
5.3469e-05
0.00267008
8.00859e-05
0.00260655
0.000105947
0.00251665
0.000130714
0.00240003
0.000154078
0.00225758
0.000175763
0.00209064
0.000195514
0.00190098
0.000213109
0.00169064
0.000228346
0.0014619
0.000241058
0.00121718
0.000251095
0.000959209
0.000258325
0.000690697
0.000262681
0.00041508
0.000134493
0.00026406
2.62805e-05
0.00268364
9.37488e-08
5.29776e-05
0.00264338
7.93535e-05
0.00258017
0.00010498
0.00249102
0.000129522
0.00237548
0.000152673
0.00223442
0.00017416
0.00206915
0.000193731
0.00188141
0.000211165
0.00167321
0.000226264
0.00144679
0.000238859
0.00120459
0.000248806
0.000949267
0.000255971
0.000683523
0.000260289
0.000410748
0.000133132
0.000261671
2.60361e-05
0.00265751
9.96502e-08
5.24912e-05
0.00261693
7.86282e-05
0.00255404
0.000104022
0.00246563
0.00012834
0.00235116
0.00015128
0.00221148
0.00017257
0.00204786
0.000191963
0.00186201
0.000209239
0.00165593
0.000224201
0.00143183
0.000236681
0.0011921
0.000246537
0.000939402
0.000253638
0.000676421
0.000257919
0.000406461
0.000131704
0.000259301
2.57943e-05
0.00263161
1.03067e-07
5.20096e-05
0.00259071
7.79096e-05
0.00252813
0.000103072
0.00244046
0.000127168
0.00232706
0.000149899
0.00218875
0.000170995
0.00202676
0.000190211
0.00184279
0.00020733
0.00163881
0.000222156
0.001417
0.000234523
0.00117973
0.000244289
0.000929641
0.000251326
0.000669376
0.000255571
0.000402205
0.000130342
0.000256955
2.5555e-05
0.00260595
1.03965e-07
5.15324e-05
0.00256473
7.71976e-05
0.00250247
0.000102131
0.00241553
0.000126007
0.00230318
0.00014853
0.00216622
0.000169434
0.00200585
0.000188475
0.00182375
0.000205438
0.00162184
0.00022013
0.00140231
0.000232384
0.00116747
0.000242061
0.000919955
0.000249036
0.000662401
0.000253244
0.000397991
0.00012891
0.000254633
2.53182e-05
0.00258052
1.02973e-07
5.10595e-05
0.00253899
7.64917e-05
0.00247703
0.000101198
0.00239082
0.000124857
0.00227952
0.000147173
0.0021439
0.000167886
0.00198514
0.000186754
0.00180488
0.000203564
0.00160503
0.000218122
0.00138774
0.000230265
0.00115533
0.000239855
0.000910372
0.000246766
0.000655483
0.000250939
0.000393808
0.000127541
0.000252332
2.50837e-05
0.00255534
1.01203e-07
5.05907e-05
0.00251348
7.57919e-05
0.00245183
0.000100274
0.00236634
0.000123716
0.00225608
0.000145829
0.00212179
0.000166353
0.00196461
0.00018505
0.00178618
0.000201706
0.00158837
0.000216133
0.00137332
0.000228166
0.00114329
0.000237668
0.000900863
0.000244518
0.000648634
0.000248653
0.000389668
0.000126109
0.000250045
2.48515e-05
0.00253039
1.00013e-07
5.0126e-05
0.0024882
7.50981e-05
0.00242686
9.93572e-05
0.00234208
0.000122586
0.00223285
0.000144498
0.00209988
0.000164835
0.00194428
0.000183361
0.00176765
0.000199867
0.00157187
0.000214162
0.00135902
0.000226086
0.00113137
0.000235503
0.000891453
0.00024229
0.000641841
0.000246388
0.000385561
0.000124751
0.00024777
2.46216e-05
0.00250566
1.00556e-07
4.96655e-05
0.00246316
7.44102e-05
0.00240211
9.84486e-05
0.00231804
0.000121467
0.00220983
0.000143178
0.00207816
0.00016333
0.00192412
0.000181688
0.00174929
0.000198044
0.00155551
0.00021221
0.00134485
0.000224026
0.00111955
0.000233357
0.000882115
0.000240084
0.000635114
0.000244142
0.000381499
0.00012335
0.000245505
2.43939e-05
0.00248116
1.03479e-07
4.92091e-05
0.00243834
7.37282e-05
0.00237759
9.75481e-05
0.00229422
0.000120357
0.00218702
0.000141871
0.00205665
0.00016184
0.00190416
0.000180031
0.0017311
0.000196239
0.0015393
0.000210276
0.00133081
0.000221985
0.00110785
0.000231232
0.000872876
0.000237898
0.000628442
0.000241917
0.000377471
0.000122036
0.000243253
2.41684e-05
0.00245688
1.08686e-07
4.8757e-05
0.00241375
7.30524e-05
0.0023533
9.66555e-05
0.00227061
0.000119257
0.00216442
0.000140576
0.00203533
0.000160363
0.00188437
0.000178389
0.00171307
0.00019445
0.00152324
0.00020836
0.0013169
0.000219962
0.00109624
0.000229125
0.000863707
0.000235733
0.000621834
0.000239712
0.000373488
0.000120693
0.000241019
2.39451e-05
0.00243282
1.15354e-07
4.83091e-05
0.00238938
7.23828e-05
0.00232922
9.57709e-05
0.00224722
0.000118167
0.00214203
0.000139292
0.0020142
0.0001589
0.00186476
0.000176763
0.00169521
0.000192677
0.00150732
0.000206461
0.00130311
0.000217958
0.00108475
0.000227038
0.000854634
0.000233587
0.000615279
0.000237527
0.000369537
0.000119435
0.000238806
2.37239e-05
0.00240898
1.22158e-07
4.78656e-05
0.00236524
7.17194e-05
0.00230537
9.48944e-05
0.00222405
0.000117087
0.00211983
0.00013802
0.00199327
0.000157449
0.00184533
0.00017515
0.00167751
0.00019092
0.00149155
0.000204579
0.00128945
0.000215971
0.00107335
0.000224969
0.00084563
0.00023146
0.000608787
0.000235364
0.000365629
0.000118147
0.000236618
2.35049e-05
0.00238534
1.27659e-07
4.74263e-05
0.00234132
7.10622e-05
0.00228173
9.40259e-05
0.00220108
0.000116016
0.00209784
0.000136759
0.00197253
0.000156012
0.00182608
0.000173553
0.00165997
0.000189179
0.00147592
0.000202714
0.00127592
0.000214002
0.00106206
0.000222918
0.00083672
0.000229352
0.000602348
0.000233221
0.000361749
0.00011693
0.000234458
2.3288e-05
0.00236192
1.30716e-07
4.69911e-05
0.00231761
7.04112e-05
0.00225831
9.31655e-05
0.00217832
0.000114955
0.00207605
0.00013551
0.00195197
0.000154588
0.00180699
0.000171969
0.00164258
0.000187454
0.00146044
0.000200865
0.0012625
0.000212051
0.00105087
0.000220885
0.00082788
0.000227262
0.00059597
0.000231098
0.000357909
0.000115673
0.000232325
2.30731e-05
0.00233872
1.30836e-07
4.656e-05
0.00229412
6.97664e-05
0.0022351
9.23131e-05
0.00215578
0.000113904
0.00205446
0.000134272
0.0019316
0.000153177
0.00178809
0.0001704
0.00162536
0.000185744
0.00144509
0.000199033
0.00124921
0.000210116
0.00103979
0.00021887
0.00081913
0.00022519
0.000589644
0.000228995
0.000354092
0.000114469
0.000230218
2.28602e-05
0.00231573
1.28295e-07
4.61329e-05
0.00227085
6.91275e-05
0.0022121
9.14685e-05
0.00213343
0.000112863
0.00203306
0.000133045
0.00191141
0.000151778
0.00176935
0.000168845
0.00160829
0.000184049
0.00142989
0.000197217
0.00123604
0.000208199
0.0010288
0.000216873
0.000810452
0.000223137
0.000583381
0.000226912
0.000350314
0.000113217
0.000228136
2.26493e-05
0.00229295
1.24068e-07
4.57097e-05
0.00224779
6.84945e-05
0.00218931
9.06318e-05
0.00211129
0.000111831
0.00201186
0.00013183
0.00189141
0.000150393
0.00175079
0.000167304
0.00159138
0.00018237
0.00141482
0.000195417
0.00122299
0.000206299
0.00101792
0.000214894
0.000801861
0.000221101
0.000577167
0.000224847
0.000346557
0.000112008
0.000226075
2.24403e-05
0.00227039
1.19539e-07
4.52903e-05
0.00222494
6.78674e-05
0.00216674
8.98029e-05
0.00208936
0.000110809
0.00199085
0.000130626
0.0018716
0.00014902
0.00173239
0.000165777
0.00157462
0.000180705
0.00139989
0.000193633
0.00121006
0.000204416
0.00100713
0.000212933
0.000793341
0.000219084
0.000571017
0.000222801
0.000342837
0.00011075
0.000224034
2.22332e-05
0.00224804
1.16126e-07
4.48747e-05
0.00220229
6.7246e-05
0.00214436
8.89815e-05
0.00206762
0.000109796
0.00197003
0.000129433
0.00185196
0.000147659
0.00171416
0.000164264
0.00155801
0.000179056
0.00138509
0.000191866
0.00119725
0.00020255
0.000996451
0.000210989
0.000784906
0.000217086
0.000564915
0.000220773
0.000339139
0.000109533
0.00022201
2.2028e-05
0.0022259
1.14912e-07
4.44628e-05
0.00217986
6.66302e-05
0.00212219
8.81677e-05
0.00204608
0.000108793
0.00194941
0.000128251
0.0018325
0.000146311
0.0016961
0.000162765
0.00154156
0.000177422
0.00137044
0.000190115
0.00118456
0.000200701
0.000985862
0.000209064
0.000776542
0.000215106
0.000558875
0.000218764
0.000335479
0.000108272
0.000220003
2.18247e-05
0.00220396
1.16398e-07
4.40547e-05
0.00215763
6.60199e-05
0.00210023
8.73613e-05
0.00202474
0.000107799
0.00192897
0.000127079
0.00181322
0.000144975
0.0016782
0.000161279
0.00152525
0.000175802
0.00135591
0.000188379
0.00117198
0.000198869
0.000975374
0.000207156
0.00076826
0.000213144
0.000552883
0.000216772
0.000331842
0.000107053
0.000218011
2.16231e-05
0.00218222
1.20405e-07
4.36504e-05
0.0021356
6.54153e-05
0.00207846
8.65623e-05
0.00200359
0.000106814
0.00190872
0.000125919
0.00179411
0.000143652
0.00166047
0.000159807
0.0015091
0.000174197
0.00134152
0.000186659
0.00115951
0.000197054
0.000964978
0.000205266
0.000760047
0.000211201
0.000546951
0.000214798
0.000328242
0.000105798
0.000216034
2.14234e-05
0.00216067
1.26182e-07
4.32497e-05
0.00211377
6.48161e-05
0.0020569
8.57705e-05
0.00198263
0.000105838
0.00188865
0.000124769
0.00177518
0.00014234
0.0016429
0.000158348
0.00149309
0.000172607
0.00132726
0.000184955
0.00114716
0.000195255
0.000954681
0.000203394
0.000751916
0.000209275
0.000541066
0.000212843
0.000324667
0.000104588
0.000214074
2.12255e-05
0.00213931
1.32603e-07
4.28527e-05
0.00209215
6.42224e-05
0.00203553
8.49859e-05
0.00196187
0.00010487
0.00186877
0.000123629
0.00175642
0.00014104
0.00162549
0.000156902
0.00147723
0.000171031
0.00131313
0.000183267
0.00113493
0.000193473
0.000944473
0.000201538
0.000743851
0.000207368
0.000535239
0.000210905
0.000321127
0.000103346
0.000212129
2.10294e-05
0.00211814
1.38474e-07
4.24593e-05
0.00207072
6.36341e-05
0.00201435
8.42084e-05
0.0019413
0.000103912
0.00184907
0.000122499
0.00173783
0.000139752
0.00160824
0.000155469
0.00146151
0.000169469
0.00129913
0.000181593
0.0011228
0.000191708
0.000934362
0.000199701
0.000735865
0.000205479
0.000529457
0.000208986
0.000317614
0.000102151
0.000210201
2.08352e-05
0.00209716
1.42771e-07
4.20696e-05
0.00204948
6.30511e-05
0.00199337
8.3438e-05
0.00192091
0.000102962
0.00182954
0.00012138
0.00171942
0.000138475
0.00159114
0.000154049
0.00144594
0.000167921
0.00128526
0.000179935
0.00111079
0.000189958
0.000924338
0.00019788
0.000727943
0.000203608
0.000523732
0.000207084
0.000314135
0.000100928
0.000208291
2.06428e-05
0.00207637
1.44861e-07
4.16834e-05
0.00202844
6.24735e-05
0.00197258
8.26746e-05
0.00190071
0.00010202
0.0018102
0.00012027
0.00170117
0.00013721
0.0015742
0.000152641
0.00143051
0.000166387
0.00127152
0.000178292
0.00109889
0.000188225
0.00091441
0.000196076
0.0007201
0.000201754
0.000518052
0.0002052
0.000310682
9.97501e-05
0.000206398
2.04523e-05
0.00205578
1.44563e-07
4.13008e-05
0.00200759
6.19012e-05
0.00195198
8.1918e-05
0.00188069
0.000101087
0.00179103
0.000119171
0.00168308
0.000135955
0.00155742
0.000151246
0.00141522
0.000164867
0.0012579
0.000176664
0.00108709
0.000186508
0.000904566
0.000194289
0.000712319
0.000199918
0.000512425
0.000203335
0.000307262
9.85464e-05
0.000204523
2.02636e-05
0.00203537
1.42159e-07
4.09216e-05
0.00198694
6.1334e-05
0.00193157
8.11682e-05
0.00186086
0.000100163
0.00177204
0.000118081
0.00166517
0.000134713
0.00154079
0.000149864
0.00140007
0.000163361
0.0012444
0.000175052
0.0010754
0.000184807
0.000894815
0.000192519
0.000704614
0.000198099
0.000506844
0.000201487
0.000303868
9.73846e-05
0.000202667
2.00767e-05
0.00201516
1.38253e-07
4.0546e-05
0.00196647
6.07719e-05
0.00191134
8.04252e-05
0.00184121
9.92462e-05
0.00175322
0.000117001
0.00164741
0.000133481
0.00152431
0.000148494
0.00138506
0.000161869
0.00123103
0.000173454
0.00106381
0.000183122
0.000885147
0.000190766
0.00069697
0.000196298
0.000501314
0.000199657
0.000300504
9.61994e-05
0.000200829
1.98916e-05
0.00199513
1.33655e-07
4.01737e-05
0.00194618
6.0215e-05
0.0018913
7.96889e-05
0.00182173
9.83381e-05
0.00173457
0.000115931
0.00162982
0.000132261
0.00150798
0.000147137
0.00137018
0.000160391
0.00121777
0.000171872
0.00105233
0.000181453
0.000875569
0.00018903
0.0006894
0.000194513
0.000495829
0.000197844
0.000297168
9.50523e-05
0.000199009
1.97083e-05
0.0019753
1.29182e-07
3.98048e-05
0.00192609
5.9663e-05
0.00187144
7.89591e-05
0.00180244
9.74381e-05
0.00171609
0.000114871
0.00161239
0.000131051
0.0014918
0.000145793
0.00135544
0.000158927
0.00120464
0.000170304
0.00104095
0.0001798
0.000866073
0.00018731
0.000681891
0.000192746
0.000490394
0.00019605
0.00029386
9.38833e-05
0.000197206
1.95267e-05
0.00195564
1.25548e-07
3.94392e-05
0.00190617
5.91161e-05
0.00185177
7.8236e-05
0.00178332
9.65463e-05
0.00169778
0.00011382
0.00159511
0.000129853
0.00147577
0.000144461
0.00134084
0.000157476
0.00119163
0.000168752
0.00102968
0.000178163
0.000856665
0.000185607
0.000674453
0.000190996
0.000485003
0.000194272
0.000290578
9.27493e-05
0.000195422
1.93468e-05
0.00193617
1.23241e-07
3.9077e-05
0.00188644
5.85741e-05
0.00183227
7.75194e-05
0.00176437
9.56626e-05
0.00167964
0.000112779
0.001578
0.000128666
0.00145988
0.000143142
0.00132636
0.00015604
0.00117873
0.000167214
0.0010185
0.000176542
0.000847336
0.000183921
0.000667075
0.000189263
0.000479662
0.000192512
0.000287325
9.15964e-05
0.000193655
1.91685e-05
0.00191688
1.2251e-07
3.87181e-05
0.00186689
5.8037e-05
0.00181295
7.68094e-05
0.0017456
9.47871e-05
0.00166166
0.000111747
0.00156104
0.000127491
0.00144414
0.000141835
0.00131202
0.000154617
0.00116595
0.000165692
0.00100743
0.000174937
0.000838094
0.000182251
0.000659767
0.000187547
0.000474364
0.000190768
0.000284098
9.04753e-05
0.000191904
1.89918e-05
0.00189777
1.23346e-07
3.83624e-05
0.00184752
5.75048e-05
0.00179381
7.61058e-05
0.001727
9.39196e-05
0.00164385
0.000110726
0.00154423
0.000126326
0.00142854
0.000140541
0.0012978
0.000153208
0.00115328
0.000164184
0.000996452
0.000173347
0.00082893
0.000180597
0.000652519
0.000185848
0.000469114
0.000189042
0.000280898
8.93379e-05
0.000190171
1.88167e-05
0.00187883
1.2556e-07
3.801e-05
0.00182833
5.69775e-05
0.00177484
7.54088e-05
0.00170857
9.30603e-05
0.00162619
0.000109714
0.00152758
0.000125173
0.00141308
0.00013926
0.00128372
0.000151813
0.00114073
0.000162691
0.000985574
0.000171773
0.000819851
0.000178959
0.000645338
0.000184164
0.000463908
0.000187332
0.000277726
8.82304e-05
0.000188453
1.86431e-05
0.00186006
1.28819e-07
3.76609e-05
0.00180931
5.64551e-05
0.00175604
7.47183e-05
0.0016903
9.22091e-05
0.0016087
0.000108711
0.00151108
0.00012403
0.00139776
0.000137991
0.00126976
0.000150432
0.00112829
0.000161213
0.000974792
0.000170215
0.000810849
0.000177338
0.000638217
0.000182498
0.000458749
0.000185639
0.000274579
8.71103e-05
0.000186752
1.84711e-05
0.00184145
1.3275e-07
3.7315e-05
0.00179047
5.59376e-05
0.00173742
7.40343e-05
0.00167221
9.13659e-05
0.00159137
0.000107718
0.00149472
0.000122899
0.00138258
0.000136734
0.00125592
0.000149064
0.00111596
0.000159749
0.000964107
0.000168672
0.000801929
0.000175732
0.000631162
0.000180847
0.000453633
0.000183961
0.00027146
8.6018e-05
0.000185066
1.83006e-05
0.00182301
1.36971e-07
3.69724e-05
0.0017718
5.54249e-05
0.00171897
7.33568e-05
0.00165428
9.05309e-05
0.0015742
0.000106735
0.00147852
0.000121779
0.00136754
0.00013549
0.00124221
0.00014771
0.00110374
0.0001583
0.000953516
0.000167143
0.000793086
0.000174142
0.000624165
0.000179212
0.000448563
0.0001823
0.000268367
8.49162e-05
0.000183396
1.81317e-05
0.00180474
1.41171e-07
3.6633e-05
0.00175329
5.49172e-05
0.00170068
7.26858e-05
0.00163651
8.9704e-05
0.00155718
0.000105762
0.00146246
0.00012067
0.00135263
0.000134258
0.00122862
0.000146369
0.00109163
0.000156865
0.000943019
0.00016563
0.000784323
0.000172567
0.000617233
0.000177593
0.000443537
0.000180654
0.000265302
8.38409e-05
0.000181741
1.79643e-05
0.00178663
1.451e-07
3.62968e-05
0.00173496
5.44143e-05
0.00168257
7.20212e-05
0.0016189
8.88852e-05
0.00154032
0.000104798
0.00144655
0.000119572
0.00133785
0.000133038
0.00121516
0.000145041
0.00107963
0.000155444
0.000932616
0.000164132
0.000775636
0.000171007
0.00061036
0.000175989
0.000438556
0.000179023
0.000262262
8.27597e-05
0.000180101
1.77984e-05
0.00176869
1.48615e-07
3.59638e-05
0.0017168
5.39162e-05
0.00166461
7.13632e-05
0.00160145
8.80743e-05
0.0015236
0.000103843
0.00143078
0.000118485
0.00132321
0.00013183
0.00120181
0.000143726
0.00106773
0.000154037
0.000922305
0.000162647
0.000767027
0.000169462
0.00060355
0.0001744
0.000433618
0.000177408
0.000259251
8.17032e-05
0.000178475
1.76341e-05
0.0017509
1.51636e-07
3.56341e-05
0.0016988
5.34231e-05
0.00164682
7.07116e-05
0.00158416
8.72715e-05
0.00150704
0.000102898
0.00141515
0.000117408
0.0013087
0.000130635
0.00118859
0.000142424
0.00105594
0.000152643
0.000912085
0.000161178
0.000758493
0.000167932
0.000596797
0.000172826
0.000428724
0.000175807
0.000256264
8.06437e-05
0.000176864
1.74714e-05
0.00173328
1.54164e-07
3.53075e-05
0.00168096
5.29347e-05
0.0016292
7.00663e-05
0.00156703
8.64765e-05
0.00149063
0.000101963
0.00139966
0.000116343
0.00129432
0.00012945
0.00117548
0.000141135
0.00104426
0.000151263
0.000901958
0.000159722
0.000750037
0.000166416
0.000590108
0.000171267
0.000423874
0.000174221
0.000253307
7.96075e-05
0.000175267
1.73102e-05
0.00171581
1.5623e-07
3.49841e-05
0.00166329
5.24511e-05
0.00161173
6.94275e-05
0.00155006
8.56894e-05
0.00147437
0.000101036
0.00138432
0.000115287
0.00128007
0.000128278
0.00116249
0.000139858
0.00103268
0.000149896
0.000891919
0.00015828
0.000741655
0.000164915
0.000583475
0.000169722
0.000419066
0.000172649
0.000250374
7.85716e-05
0.000173685
1.71505e-05
0.0016985
1.57907e-07
3.46639e-05
0.00164577
5.19723e-05
0.00159442
6.87949e-05
0.00153323
8.49101e-05
0.00145826
0.000100119
0.00136911
0.000114242
0.00126595
0.000127117
0.00114962
0.000138594
0.0010212
0.000148542
0.000881971
0.000156851
0.000733348
0.000163427
0.000576904
0.000168191
0.000414303
0.000171092
0.000247471
7.75568e-05
0.000172116
1.69923e-05
0.00168135
1.59262e-07
3.43467e-05
0.00162842
5.14982e-05
0.00157727
6.81686e-05
0.00151656
8.41384e-05
0.00144229
9.92105e-05
0.00135404
0.000113207
0.00125195
0.000125967
0.00113686
0.000137341
0.00100983
0.000147201
0.000872111
0.000155436
0.000725114
0.000161953
0.000570389
0.000166674
0.000409581
0.000169548
0.00024459
7.65448e-05
0.000170561
1.68357e-05
0.00166436
1.60377e-07
3.40327e-05
0.00161122
5.10287e-05
0.00156027
6.75485e-05
0.00150004
8.33743e-05
0.00142646
9.83109e-05
0.0013391
0.000112182
0.00123808
0.000124827
0.00112421
0.0001361
0.000998553
0.000145872
0.00086234
0.000154033
0.000716955
0.000160492
0.000563935
0.000165171
0.000404904
0.000168018
0.000241741
7.55521e-05
0.000169019
1.66806e-05
0.00164751
1.61305e-07
3.37218e-05
0.00159418
5.05639e-05
0.00154343
6.69344e-05
0.00148367
8.26176e-05
0.00141078
9.742e-05
0.0013243
0.000111167
0.00122433
0.000123699
0.00111168
0.000134871
0.000987382
0.000144555
0.000852655
0.000152644
0.000708869
0.000159045
0.000557537
0.000163681
0.000400266
0.000166502
0.000238913
7.45649e-05
0.000167491
1.6527e-05
0.00163083
1.62109e-07
3.34138e-05
0.00157729
5.01036e-05
0.00152674
6.63263e-05
0.00146745
8.18683e-05
0.00139524
9.65377e-05
0.00130963
0.000110161
0.00121071
0.000122581
0.00109926
0.000133654
0.00097631
0.000143251
0.000843058
0.000151267
0.000700855
0.00015761
0.000551198
0.000162204
0.000395673
0.000164999
0.000236117
7.35947e-05
0.000165976
1.63748e-05
0.00161429
1.62818e-07
3.31089e-05
0.00156056
4.96478e-05
0.0015102
6.5724e-05
0.00145138
8.11261e-05
0.00137984
9.56638e-05
0.00129509
0.000109165
0.00119721
0.000121474
0.00108696
0.000132447
0.000965338
0.000141958
0.000833546
0.000149902
0.000692913
0.000156188
0.000544916
0.000160741
0.00039112
0.000163509
0.000233342
7.26318e-05
0.000164475
1.62241e-05
0.0015979
1.6347e-07
3.28069e-05
0.00154398
4.91963e-05
0.00149381
6.51276e-05
0.00143544
8.0391e-05
0.00136457
9.47981e-05
0.00128069
0.000108178
0.00118383
0.000120377
0.00107476
0.000131251
0.000954463
0.000140677
0.00082412
0.00014855
0.000685043
0.000154779
0.00053869
0.00015929
0.000386611
0.000162032
0.000230598
7.16837e-05
0.000162986
1.60749e-05
0.00158166
1.64072e-07
3.25078e-05
0.00152754
4.87492e-05
0.00147757
6.45368e-05
0.00141966
7.96628e-05
0.00134945
9.39404e-05
0.00126641
0.000107201
0.00117057
0.00011929
0.00106267
0.000130067
0.000943687
0.000139408
0.000814779
0.000147209
0.000677244
0.000153382
0.000532521
0.000157852
0.00038214
0.000160568
0.000227875
7.07454e-05
0.000161511
1.5927e-05
0.00156557
1.64649e-07
3.22115e-05
0.00151126
4.83063e-05
0.00146148
6.39516e-05
0.00140401
7.89415e-05
0.00133446
9.30907e-05
0.00125226
0.000106232
0.00115743
0.000118212
0.00105069
0.000128892
0.000933007
0.00013815
0.000805522
0.000145881
0.000669514
0.000151998
0.000526408
0.000156427
0.000377713
0.000159117
0.000225184
6.98193e-05
0.000160048
1.57806e-05
0.00154963
1.65196e-07
3.1918e-05
0.00149512
4.78676e-05
0.00144553
6.33719e-05
0.00138851
7.82268e-05
0.0013196
9.22488e-05
0.00123824
0.000105272
0.00114441
0.000117144
0.00103882
0.000127729
0.000922424
0.000136903
0.000796348
0.000144564
0.000661855
0.000150625
0.00052035
0.000155014
0.000373323
0.000157679
0.000222512
6.89044e-05
0.000158598
1.56355e-05
0.00153383
1.6573e-07
3.16273e-05
0.00147913
4.7433e-05
0.00142972
6.27975e-05
0.00137314
7.75187e-05
0.00130488
9.14145e-05
0.00122434
0.00010432
0.0011315
0.000116086
0.00102706
0.000126575
0.000911936
0.000135666
0.000787257
0.000143258
0.000654265
0.000149265
0.000514348
0.000153613
0.000368978
0.000156252
0.000219871
6.79994e-05
0.000157161
1.54918e-05
0.00151817
1.66243e-07
3.13392e-05
0.00146328
4.70023e-05
0.00141406
6.22284e-05
0.00135792
7.6817e-05
0.00129029
9.05878e-05
0.00121057
0.000103378
0.00111871
0.000115037
0.0010154
0.000125432
0.000901542
0.000134441
0.000778248
0.000141964
0.000646744
0.000147916
0.0005084
0.000152224
0.000364668
0.000154839
0.000217249
6.71076e-05
0.000155737
1.53495e-05
0.00150265
1.66748e-07
3.10538e-05
0.00144758
4.65757e-05
0.00139854
6.16645e-05
0.00134283
7.61216e-05
0.00127584
8.97684e-05
0.00119693
0.000102443
0.00110604
0.000113998
0.00100384
0.000124299
0.000891242
0.000133226
0.00076932
0.000140681
0.00063929
0.000146579
0.000502506
0.000150848
0.000360402
0.000153437
0.000214659
6.6223e-05
0.000154325
1.52084e-05
0.00148728
1.67236e-07
3.0771e-05
0.00143201
4.61529e-05
0.00138315
6.11056e-05
0.00132788
7.54325e-05
0.00126151
8.89563e-05
0.0011834
0.000101517
0.00109348
0.000112967
0.000992393
0.000123175
0.000881035
0.000132022
0.000760473
0.00013941
0.000631905
0.000145254
0.000496666
0.000149483
0.000356172
0.000152048
0.000212087
6.53528e-05
0.000152925
1.50686e-05
0.00147204
1.6772e-07
3.04908e-05
0.00141659
4.57339e-05
0.00136791
6.05518e-05
0.00131306
7.47494e-05
0.00124731
8.81513e-05
0.00117
0.000100598
0.00108103
0.000111946
0.000981046
0.000122062
0.00087092
0.000130829
0.000751707
0.000138149
0.000624586
0.00014394
0.000490878
0.00014813
0.000351984
0.000150671
0.000209546
6.44876e-05
0.000151538
1.49301e-05
0.00145694
1.68192e-07
3.02131e-05
0.00140131
4.53186e-05
0.00135281
6.00028e-05
0.00129838
7.40724e-05
0.00123324
8.73534e-05
0.00115672
9.96883e-05
0.0010687
0.000110933
0.000969803
0.000120958
0.000860897
0.000129645
0.000743019
0.0001369
0.000617334
0.000142638
0.000485144
0.000146789
0.000347831
0.000149306
0.000207022
6.36384e-05
0.000150163
1.47928e-05
0.00144198
1.68664e-07
2.99379e-05
0.00138616
4.4907e-05
0.00133784
5.94587e-05
0.00128383
7.34013e-05
0.0012193
8.65625e-05
0.00114356
9.8786e-05
0.00105648
0.00010993
0.00095866
0.000119863
0.000850964
0.000128472
0.00073441
0.000135661
0.000610147
0.000141347
0.000479462
0.00014546
0.00034372
0.000147953
0.000204529
6.27916e-05
0.000148801
1.46567e-05
0.00142716
1.69126e-07
2.96651e-05
0.00137116
4.44991e-05
0.001323
5.89194e-05
0.00126941
7.27361e-05
0.00120549
8.57784e-05
0.00113052
9.78916e-05
0.00104436
0.000108934
0.000947619
0.000118778
0.000841121
0.00012731
0.000725879
0.000134433
0.000603027
0.000140067
0.000473832
0.000144143
0.000339642
0.000146612
0.000202052
6.19619e-05
0.000147451
1.45219e-05
0.00141247
1.69591e-07
2.93946e-05
0.00135628
4.40947e-05
0.0013083
5.83847e-05
0.00125512
7.20767e-05
0.00119179
8.50011e-05
0.00111759
9.70049e-05
0.00103236
0.000107948
0.000936676
0.000117703
0.000831367
0.000126157
0.000717425
0.000133216
0.000595969
0.000138798
0.000468252
0.000142837
0.000335607
0.000145283
0.000199605
6.11324e-05
0.000146113
1.43883e-05
0.00139791
1.7005e-07
2.91266e-05
0.00134154
4.36938e-05
0.00129373
5.78547e-05
0.00124096
7.1423e-05
0.00117823
8.42306e-05
0.00110479
9.6126e-05
0.00102047
0.00010697
0.000925834
0.000116637
0.000821702
0.000125014
0.000709048
0.000132009
0.000588977
0.000137541
0.000462725
0.000141542
0.000331603
0.000143966
0.000197175
6.03215e-05
0.000144787
1.42558e-05
0.00138348
1.70513e-07
2.88609e-05
0.00132694
4.32965e-05
0.0012793
5.73294e-05
0.00122692
7.07749e-05
0.00116478
8.34668e-05
0.0010921
9.52546e-05
0.00100868
0.000106001
0.000915088
0.00011558
0.000812123
0.000123882
0.000700747