1.45 	0 	0 	-0.290468
2.35 	0 	0 	-0.126313
