1.45 	0 	0 	-0.306079
2.35 	0 	0 	-0.132735
