1.275 	2.15223e-18 	-2.76991e-20 	-0.032734 	-0.000774179 	-2.07066e-22
1.825 	2.15223e-18 	-1.39322e-20 	0.0102736 	-0.00427815 	1.65915e-21
2.375 	2.15223e-18 	-2.66896e-23 	0.203134 	-0.00583771 	-6.40261e-22
