1.45 	0 	0 	-0.306508
2.35 	0 	0 	-0.131916
