/*--------------------------------*- C++ -*----------------------------------*\
  =========                 |
  \\      /  F ield         | OpenFOAM: The Open Source CFD Toolbox
   \\    /   O peration     | Website:  https://openfoam.org
    \\  /    A nd           | Version:  6.0
     \\/     M anipulation  |
\*---------------------------------------------------------------------------*/
FoamFile
{
    version     2.0;
    format      ascii;
    class       volScalarField;
    location    "37";
    object      p;
}
// * * * * * * * * * * * * * * * * * * * * * * * * * * * * * * * * * * * * * //

dimensions      [0 2 -2 0 0 0 0];

internalField   nonuniform List<scalar> 
2000
(
-0.348094
-0.354
-0.355689
-0.35502
-0.35316
-0.350483
-0.347267
-0.343805
-0.340385
-0.336688
-0.350812
-0.356299
-0.357647
-0.356677
-0.354529
-0.351577
-0.348098
-0.344376
-0.340701
-0.336884
-0.356268
-0.360896
-0.361553
-0.359973
-0.357244
-0.353737
-0.349723
-0.345464
-0.34126
-0.337199
-0.364503
-0.367791
-0.367386
-0.364879
-0.361269
-0.356916
-0.352078
-0.346975
-0.341924
-0.337474
-0.375576
-0.376981
-0.375115
-0.371357
-0.366562
-0.361066
-0.355097
-0.348795
-0.342495
-0.337452
-0.389551
-0.388452
-0.384701
-0.379364
-0.37309
-0.366163
-0.358745
-0.35084
-0.342764
-0.336804
-0.406463
-0.402162
-0.396083
-0.38886
-0.380848
-0.372248
-0.363118
-0.353227
-0.342728
-0.335271
-0.426255
-0.418013
-0.409171
-0.399784
-0.389821
-0.379365
-0.36833
-0.356088
-0.342144
-0.331701
-0.448715
-0.435829
-0.423848
-0.412095
-0.400049
-0.387605
-0.374365
-0.358804
-0.338719
-0.321407
-0.473408
-0.455348
-0.440016
-0.425941
-0.412155
-0.398459
-0.384095
-0.36643
-0.34139
-0.317413
-0.499649
-0.476144
-0.457404
-0.441234
-0.426506
-0.413594
-0.402839
-0.394881
-0.395019
-0.414551
-0.526612
-0.497638
-0.475397
-0.456866
-0.440529
-0.426846
-0.416293
-0.409929
-0.412884
-0.430155
-0.553576
-0.519374
-0.49372
-0.472718
-0.454354
-0.438991
-0.426998
-0.419092
-0.418383
-0.4262
-0.579891
-0.540878
-0.512061
-0.488617
-0.467981
-0.450337
-0.435845
-0.424759
-0.418556
-0.417218
-0.604808
-0.561485
-0.529797
-0.50392
-0.480707
-0.460141
-0.442183
-0.426707
-0.414136
-0.404508
-0.627339
-0.58026
-0.545982
-0.51762
-0.491476
-0.467403
-0.445276
-0.424785
-0.405763
-0.388975
-0.646198
-0.595993
-0.559387
-0.528432
-0.499001
-0.470949
-0.444241
-0.418569
-0.393516
-0.370863
-0.659828
-0.607228
-0.568548
-0.534875
-0.501851
-0.469524
-0.43811
-0.407455
-0.377109
-0.349934
-0.666464
-0.612329
-0.571846
-0.535356
-0.498553
-0.461872
-0.425921
-0.39078
-0.356078
-0.32569
-0.664242
-0.609554
-0.567584
-0.528262
-0.487674
-0.446822
-0.406788
-0.367903
-0.32991
-0.297543
-0.651305
-0.597162
-0.554093
-0.512065
-0.467922
-0.423369
-0.379981
-0.3383
-0.298155
-0.264958
-0.625918
-0.573513
-0.529836
-0.485428
-0.438239
-0.390753
-0.344995
-0.301635
-0.260527
-0.227566
-0.586609
-0.537198
-0.493536
-0.447311
-0.397888
-0.348526
-0.301603
-0.257813
-0.216961
-0.185229
-0.532279
-0.487158
-0.444281
-0.397064
-0.346514
-0.296589
-0.249884
-0.207014
-0.167663
-0.13809
-0.462327
-0.422796
-0.381624
-0.33449
-0.284172
-0.235192
-0.190216
-0.149689
-0.113107
-0.0865749
-0.376749
-0.344077
-0.305656
-0.25988
-0.211324
-0.164897
-0.123199
-0.0864554
-0.0539287
-0.0313082
-0.276236
-0.251605
-0.217061
-0.174032
-0.128826
-0.086547
-0.0496054
-0.0180132
0.00915041
0.0268835
-0.162224
-0.146668
-0.117122
-0.0782366
-0.037915
-0.00128141
0.029509
0.0545197
0.0745891
0.0859702
-0.0369253
-0.0312396
-0.00769066
0.025834
0.0600249
0.0898466
0.113285
0.12993
0.139864
0.142235
0.0967053
0.0920393
0.108821
0.13615
0.163671
0.186661
0.203148
0.211516
0.210481
0.203752
0.235092
0.219903
0.229308
0.249816
0.270566
0.287679
0.299884
0.305366
0.304319
0.318237
0.37434
0.348705
0.35016
0.36298
0.376
0.385974
0.392027
0.393269
0.392191
0.405115
0.510505
0.474775
0.467968
0.47252
0.477173
0.479252
0.478188
0.473567
0.467875
0.472978
0.639741
0.594504
0.579439
0.575537
0.571638
0.56565
0.557314
0.54648
0.535222
0.53238
0.758385
0.704452
0.681479
0.66937
0.657204
0.643456
0.628145
0.611308
0.594638
0.584691
0.863053
0.801452
0.77127
0.751626
0.731918
0.711141
0.689554
0.667342
0.645827
0.629671
0.950729
0.882698
0.846325
0.82019
0.794027
0.767277
0.740398
0.713687
0.688112
0.666753
1.01886
0.94582
0.90455
0.873274
0.842028
0.810602
0.779606
0.749419
0.720698
0.695283
1.06543
0.988967
0.944308
0.909476
0.874727
0.840092
0.806283
0.773732
0.742867
0.714666
1.08907
1.01087
0.964474
0.927824
0.89129
0.855023
0.819788
0.786043
0.754091
0.724472
1.08907
1.01087
0.964474
0.927824
0.89129
0.855023
0.819788
0.786043
0.754091
0.724472
1.06543
0.988967
0.944308
0.909476
0.874727
0.840092
0.806283
0.773733
0.742867
0.714667
1.01886
0.94582
0.90455
0.873275
0.842029
0.810602
0.779606
0.749419
0.720698
0.695283
0.950729
0.882698
0.846325
0.82019
0.794027
0.767277
0.740398
0.713687
0.688112
0.666754
0.863053
0.801453
0.77127
0.751626
0.731918
0.711141
0.689554
0.667342
0.645827
0.629671
0.758385
0.704452
0.681479
0.669371
0.657205
0.643457
0.628145
0.611308
0.594638
0.584691
0.639741
0.594504
0.579439
0.575537
0.571638
0.56565
0.557314
0.54648
0.535222
0.53238
0.510505
0.474775
0.467968
0.47252
0.477173
0.479252
0.478189
0.473568
0.467875
0.472978
0.37434
0.348706
0.350161
0.36298
0.376
0.385974
0.392027
0.393269
0.392192
0.405115
0.235092
0.219903
0.229309
0.249817
0.270567
0.28768
0.299885
0.305367
0.30432
0.318238
0.0967057
0.0920398
0.108821
0.13615
0.163672
0.186662
0.203149
0.211517
0.210482
0.203753
-0.0369249
-0.031239
-0.00769003
0.0258347
0.0600257
0.0898474
0.113286
0.129931
0.139865
0.142236
-0.162223
-0.146668
-0.117121
-0.0782358
-0.0379142
-0.0012805
0.02951
0.0545206
0.0745901
0.0859711
-0.276235
-0.251604
-0.21706
-0.174031
-0.128825
-0.086546
-0.0496043
-0.0180122
0.00915143
0.0268845
-0.376749
-0.344076
-0.305655
-0.259879
-0.211323
-0.164896
-0.123198
-0.0864543
-0.0539277
-0.0313072
-0.462326
-0.422796
-0.381623
-0.334489
-0.284171
-0.235191
-0.190215
-0.149688
-0.113106
-0.0865739
-0.532278
-0.487158
-0.44428
-0.397063
-0.346513
-0.296587
-0.249883
-0.207013
-0.167662
-0.138089
-0.586608
-0.537197
-0.493535
-0.44731
-0.397887
-0.348525
-0.301602
-0.257811
-0.21696
-0.185228
-0.625917
-0.573512
-0.529835
-0.485427
-0.438238
-0.390752
-0.344994
-0.301634
-0.260526
-0.227565
-0.651304
-0.597161
-0.554091
-0.512064
-0.467921
-0.423368
-0.37998
-0.338299
-0.298154
-0.264957
-0.664241
-0.609553
-0.567582
-0.52826
-0.487672
-0.446821
-0.406787
-0.367902
-0.329908
-0.297542
-0.666463
-0.612327
-0.571844
-0.535354
-0.498552
-0.461871
-0.42592
-0.390778
-0.356077
-0.325689
-0.659826
-0.607227
-0.568547
-0.534874
-0.50185
-0.469523
-0.438109
-0.407454
-0.377108
-0.349932
-0.646197
-0.595991
-0.559385
-0.528431
-0.498999
-0.470948
-0.444239
-0.418568
-0.393515
-0.370862
-0.627337
-0.580259
-0.545981
-0.517618
-0.491475
-0.467401
-0.445275
-0.424784
-0.405762
-0.388974
-0.604807
-0.561484
-0.529796
-0.503919
-0.480706
-0.46014
-0.442181
-0.426706
-0.414135
-0.404507
-0.57989
-0.540877
-0.51206
-0.488616
-0.46798
-0.450336
-0.435844
-0.424758
-0.418555
-0.417217
-0.553575
-0.519372
-0.493719
-0.472717
-0.454352
-0.43899
-0.426997
-0.419091
-0.418382
-0.426199
-0.526611
-0.497637
-0.475396
-0.456865
-0.440528
-0.426845
-0.416292
-0.409928
-0.412883
-0.430154
-0.499648
-0.476143
-0.457403
-0.441233
-0.426505
-0.413593
-0.402838
-0.39488
-0.395018
-0.41455
-0.473407
-0.455347
-0.440015
-0.42594
-0.412154
-0.398458
-0.384094
-0.366429
-0.341389
-0.317412
-0.448714
-0.435828
-0.423847
-0.412094
-0.400048
-0.387604
-0.374364
-0.358803
-0.338718
-0.321407
-0.426254
-0.418012
-0.40917
-0.399783
-0.38982
-0.379364
-0.368329
-0.356087
-0.342144
-0.331701
-0.406462
-0.402162
-0.396083
-0.388859
-0.380847
-0.372248
-0.363117
-0.353226
-0.342727
-0.33527
-0.389551
-0.388452
-0.3847
-0.379363
-0.373089
-0.366163
-0.358745
-0.350839
-0.342763
-0.336803
-0.375575
-0.37698
-0.375115
-0.371356
-0.366561
-0.361066
-0.355096
-0.348795
-0.342495
-0.337452
-0.364502
-0.36779
-0.367385
-0.364879
-0.361269
-0.356916
-0.352078
-0.346975
-0.341924
-0.337474
-0.356268
-0.360896
-0.361553
-0.359973
-0.357244
-0.353736
-0.349723
-0.345463
-0.34126
-0.337199
-0.350812
-0.356299
-0.357647
-0.356676
-0.354528
-0.351577
-0.348098
-0.344376
-0.3407
-0.336884
-0.348094
-0.354
-0.355689
-0.35502
-0.35316
-0.350483
-0.347267
-0.343805
-0.340385
-0.336688
-0.290476
-0.126318
-0.0812792
-0.0303573
-0.0192542
-0.0078168
-0.00436898
-0.000895277
-0.000469437
0.00216822
-0.291706
-0.126866
-0.0815497
-0.0305565
-0.0193225
-0.0078766
-0.00439836
-0.000915322
-0.000478242
0.00215216
-0.294097
-0.127947
-0.0820853
-0.0309556
-0.0194585
-0.00799594
-0.00445737
-0.000956139
-0.000496138
0.00212036
-0.297509
-0.129537
-0.0828745
-0.0315566
-0.019662
-0.00817436
-0.00454581
-0.00101763
-0.000522983
0.00207315
-0.301694
-0.131593
-0.0838911
-0.0323577
-0.0199308
-0.00841047
-0.0046632
-0.00109959
-0.000558495
0.00201098
-0.306299
-0.134038
-0.0850858
-0.0333452
-0.0202591
-0.00870069
-0.00480829
-0.00120149
-0.00060231
0.00193451
-0.311192
-0.136942
-0.0864638
-0.0345143
-0.0206476
-0.00904225
-0.00498055
-0.00132237
-0.000654625
0.00184531
-0.316896
-0.140958
-0.0882879
-0.0359658
-0.0211396
-0.00944863
-0.00518603
-0.00146255
-0.000716973
0.00174614
-0.321674
-0.146463
-0.0907362
-0.0378649
-0.0217858
-0.0099469
-0.00543391
-0.00162742
-0.000787768
0.00163446
-0.31387
-0.148838
-0.0918459
-0.0395675
-0.0222884
-0.0104392
-0.0056789
-0.00181827
-0.000847449
0.00148758
-0.247338
-0.140745
-0.0882194
-0.042826
-0.0227875
-0.0117708
-0.00639592
-0.00255767
-0.00101314
0.000834353
-0.189242
-0.13174
-0.0822113
-0.0442842
-0.0245196
-0.0141614
-0.00824441
-0.0040412
-0.00177484
-7.37331e-06
-0.147824
-0.113885
-0.0727792
-0.0428507
-0.0259436
-0.0163656
-0.0101786
-0.00563252
-0.00270903
-0.00068671
-0.108228
-0.0929854
-0.0633578
-0.0408788
-0.0269916
-0.0181594
-0.0118522
-0.00706707
-0.00359923
-0.00115704
-0.0789883
-0.0757137
-0.0565571
-0.0396216
-0.0278143
-0.0195035
-0.0131635
-0.00822049
-0.00434599
-0.00145509
-0.0588949
-0.0628668
-0.051597
-0.0386208
-0.0282243
-0.0203497
-0.0140896
-0.00907435
-0.00492383
-0.00164844
-0.0458683
-0.0536057
-0.0477354
-0.0376499
-0.0283113
-0.0208304
-0.0147128
-0.00968223
-0.00535215
-0.00178501
-0.0376231
-0.0471463
-0.0447734
-0.0367964
-0.0282658
-0.0210996
-0.0151207
-0.010099
-0.00565473
-0.0018838
-0.0328009
-0.0430453
-0.042766
-0.0361932
-0.0282091
-0.0212458
-0.0153654
-0.0103582
-0.00584763
-0.0019484
-0.0305702
-0.0410437
-0.041755
-0.0358962
-0.0281851
-0.0213105
-0.0154784
-0.0104801
-0.00594197
-0.00197865
-0.218636
-0.246533
-0.272312
-0.296256
-0.318751
-0.3403
-0.361525
-0.383069
-0.405435
-0.429278
-0.0679893
-0.0781318
-0.0872963
-0.0957261
-0.103728
-0.111684
-0.120049
-0.129366
-0.140212
-0.154378
-0.0452175
-0.0543992
-0.0631953
-0.071579
-0.0795129
-0.0869521
-0.0938532
-0.100189
-0.105957
-0.111278
-0.0187939
-0.0245138
-0.0300274
-0.0353536
-0.0405143
-0.0455328
-0.0504322
-0.0552347
-0.0599401
-0.064428
-0.0130844
-0.0174403
-0.0216715
-0.0257747
-0.029746
-0.0335815
-0.0372775
-0.0408312
-0.044223
-0.0474213
-0.00802977
-0.011247
-0.0144048
-0.0175024
-0.0205389
-0.023514
-0.0264272
-0.029277
-0.0320518
-0.0347549
-0.00690589
-0.00944271
-0.0119432
-0.0144034
-0.0168197
-0.019189
-0.0215087
-0.0237764
-0.025986
-0.0281509
-0.00610464
-0.00816246
-0.0102038
-0.0122245
-0.0142208
-0.0161894
-0.0181271
-0.020031
-0.0218977
-0.0237344
-0.00601685
-0.00779144
-0.00955808
-0.0113123
-0.0130498
-0.0147669
-0.0164598
-0.0181255
-0.0197619
-0.02137
-0.00596074
-0.00758659
-0.00920985
-0.0108267
-0.0124337
-0.0140275
-0.0156049
-0.0171631
-0.0187007
-0.0202157
0.167963
0.126976
0.0816282
0.038559
-0.00317938
-0.0440584
-0.0834617
-0.120807
-0.155825
-0.188432
0.117495
0.0915798
0.0647881
0.0419494
0.0218293
0.00315564
-0.0141546
-0.0298906
-0.0440256
-0.0566749
0.0733752
0.0576773
0.0427244
0.0298124
0.0179611
0.00649458
-0.00465826
-0.0154095
-0.0257358
-0.035664
0.0531199
0.044047
0.0354181
0.0277078
0.0204415
0.013349
0.00643254
-0.000249286
-0.00667515
-0.0128522
0.0375836
0.0316323
0.0258922
0.0206017
0.0155115
0.0104905
0.00554557
0.000708012
-0.00400965
-0.00860698
0.0273225
0.0234336
0.0195884
0.0159507
0.0124083
0.00889302
0.00540636
0.00196505
-0.00142258
-0.00475451
0.0196202
0.0168919
0.0141367
0.0114602
0.00881423
0.00616595
0.00351713
0.000878953
-0.00174073
-0.00433709
0.0144401
0.0124451
0.0103999
0.00836686
0.00632946
0.00427406
0.00220304
0.000123911
-0.00195696
-0.00403464
0.0111097
0.00951484
0.00787097
0.00620732
0.00451911
0.00280322
0.00106352
-0.000693836
-0.00246309
-0.00423908
0.0095137
0.00809315
0.00662926
0.00513629
0.00361361
0.00206228
0.000486625
-0.00110818
-0.0027173
-0.00433626
0.335379
0.334679
0.33313
0.330255
0.325271
0.31694
0.303491
0.282529
0.251422
0.206805
0.245482
0.244365
0.24173
0.237145
0.230275
0.220689
0.207818
0.191003
0.169495
0.14274
0.174651
0.173522
0.170855
0.166331
0.159841
0.151277
0.140451
0.127147
0.110959
0.091972
0.123042
0.122156
0.120054
0.116491
0.111452
0.10496
0.0970109
0.0876127
0.0766879
0.0645716
0.0867086
0.0860641
0.0845252
0.0819121
0.0782322
0.0735378
0.0678631
0.0612463
0.0536676
0.0453359
0.0615299
0.0610665
0.059958
0.0580758
0.0554333
0.0520817
0.0480626
0.0434199
0.0381714
0.0324632
0.0443789
0.0440404
0.0432302
0.041855
0.0399262
0.0374843
0.0345628
0.0311947
0.0273991
0.0232604
0.0330936
0.0328368
0.0322223
0.0311792
0.029717
0.027867
0.025656
0.0231091
0.0202468
0.017121
0.026258
0.0260495
0.0255508
0.0247044
0.0235178
0.0220158
0.0202199
0.0181489
0.0158206
0.0132663
0.0230377
0.0228512
0.022406
0.0216509
0.0205922
0.0192518
0.0176484
0.0157983
0.0137184
0.0114313
0.485354
0.487107
0.49344
0.504586
0.520437
0.541297
0.567631
0.599964
0.638831
0.684479
0.483112
0.48484
0.491093
0.502083
0.517686
0.538168
0.563938
0.595432
0.633052
0.676886
0.478682
0.480364
0.486464
0.497151
0.512268
0.53201
0.556668
0.58651
0.62166
0.66191
0.472162
0.473789
0.479678
0.489934
0.50435
0.523016
0.546054
0.573471
0.604979
0.639956
0.463691
0.465268
0.470909
0.480628
0.49416
0.511456
0.532416
0.556705
0.583472
0.611611
0.453439
0.454987
0.460361
0.469462
0.481954
0.497626
0.516114
0.536659
0.557711
0.577612
0.4416
0.443188
0.448315
0.456754
0.468094
0.48194
0.497618
0.513875
0.528373
0.538824
0.428381
0.430196
0.435211
0.44306
0.453276
0.465244
0.477914
0.489394
0.496458
0.496042
0.413851
0.416143
0.421237
0.428623
0.437818
0.447991
0.457642
0.464052
0.462841
0.448762
0.397649
0.400085
0.404752
0.411008
0.418388
0.425939
0.431887
0.43301
0.424544
0.396841
0.39765
0.400086
0.404753
0.41101
0.418389
0.42594
0.431888
0.433011
0.424545
0.396842
0.413852
0.416144
0.421238
0.428624
0.437819
0.447992
0.457643
0.464053
0.462842
0.448763
0.428382
0.430197
0.435212
0.443062
0.453277
0.465245
0.477915
0.489395
0.496459
0.496043
0.4416
0.443189
0.448316
0.456755
0.468095
0.481941
0.497619
0.513876
0.528374
0.538825
0.453439
0.454988
0.460362
0.469463
0.481954
0.497627
0.516115
0.53666
0.557712
0.577612
0.463692
0.465269
0.47091
0.480629
0.494161
0.511457
0.532416
0.556706
0.583473
0.611612
0.472163
0.473789
0.479679
0.489935
0.504351
0.523017
0.546054
0.573472
0.604979
0.639956
0.478682
0.480364
0.486464
0.497151
0.512268
0.53201
0.556669
0.58651
0.62166
0.66191
0.483113
0.48484
0.491093
0.502083
0.517686
0.538168
0.563938
0.595432
0.633052
0.676886
0.485354
0.487107
0.49344
0.504586
0.520437
0.541297
0.567631
0.599964
0.638831
0.684479
0.0230388
0.0228523
0.0224071
0.021652
0.0205933
0.0192529
0.0176495
0.0157995
0.0137195
0.0114325
0.0262591
0.0260506
0.0255519
0.0247055
0.0235188
0.0220169
0.0202211
0.0181501
0.0158218
0.0132675
0.0330947
0.0328379
0.0322234
0.0311803
0.0297181
0.0278681
0.0256571
0.0231103
0.020248
0.0171221
0.04438
0.0440414
0.0432313
0.041856
0.0399273
0.0374854
0.0345639
0.0311958
0.0274003
0.0232615
0.061531
0.0610676
0.059959
0.0580769
0.0554344
0.0520828
0.0480637
0.043421
0.0381725
0.0324643
0.0867097
0.0860652
0.0845263
0.0819132
0.0782333
0.0735389
0.0678642
0.0612473
0.0536686
0.0453369
0.123043
0.122158
0.120055
0.116493
0.111453
0.104962
0.097012
0.0876137
0.0766889
0.0645726
0.174652
0.173523
0.170857
0.166332
0.159842
0.151278
0.140452
0.127148
0.11096
0.091973
0.245483
0.244366
0.241731
0.237146
0.230276
0.22069
0.207819
0.191004
0.169496
0.142741
0.33538
0.33468
0.333131
0.330256
0.325272
0.316941
0.303492
0.28253
0.251423
0.206806
0.00951488
0.00809431
0.0066304
0.0051374
0.00361469
0.00206333
0.000487631
-0.00110722
-0.0027164
-0.00433541
0.0111109
0.00951601
0.00787212
0.00620845
0.00452021
0.00280428
0.00106454
-0.000692866
-0.00246218
-0.00423823
0.0144413
0.0124463
0.010401
0.00836797
0.00633054
0.00427511
0.00220404
0.000124867
-0.00195606
-0.0040338
0.0196214
0.016893
0.0141378
0.0114612
0.00881527
0.00616695
0.0035181
0.000879874
-0.00173986
-0.00433627
0.0273236
0.0234347
0.0195895
0.0159518
0.0124093
0.00889401
0.00540731
0.00196596
-0.0014217
-0.00475368
0.0375847
0.0316334
0.0258932
0.0206027
0.0155124
0.0104914
0.00554646
0.000708868
-0.00400883
-0.0086062
0.0531209
0.044048
0.035419
0.0277087
0.0204424
0.0133499
0.0064334
-0.000248457
-0.00667435
-0.0128514
0.0733761
0.0576782
0.0427252
0.0298132
0.017962
0.00649544
-0.00465742
-0.0154086
-0.025735
-0.0356633
0.117496
0.0915807
0.064789
0.0419503
0.0218302
0.00315652
-0.0141538
-0.0298897
-0.0440247
-0.0566741
0.167964
0.126977
0.081629
0.0385599
-0.00317849
-0.0440575
-0.0834608
-0.120806
-0.155824
-0.188431
-0.00595995
-0.00758587
-0.00920919
-0.0108261
-0.0124332
-0.014027
-0.0156045
-0.0171628
-0.0187004
-0.0202154
-0.00601603
-0.00779067
-0.00955738
-0.0113117
-0.0130493
-0.0147664
-0.0164594
-0.0181252
-0.0197615
-0.0213698
-0.00610385
-0.00816172
-0.0102031
-0.0122238
-0.0142202
-0.0161889
-0.0181267
-0.0200306
-0.0218974
-0.0237341
-0.00690511
-0.00944198
-0.0119425
-0.0144028
-0.0168191
-0.0191884
-0.0215082
-0.023776
-0.0259857
-0.0281506
-0.00802899
-0.0112463
-0.0144042
-0.0175017
-0.0205383
-0.0235135
-0.0264267
-0.0292766
-0.0320514
-0.0347546
-0.0130837
-0.0174396
-0.0216708
-0.0257741
-0.0297454
-0.0335809
-0.037277
-0.0408308
-0.0442226
-0.0474209
-0.0187932
-0.0245131
-0.0300267
-0.035353
-0.0405137
-0.0455322
-0.0504317
-0.0552342
-0.0599397
-0.0644276
-0.0452168
-0.0543985
-0.0631946
-0.0715784
-0.0795123
-0.0869516
-0.0938527
-0.100189
-0.105957
-0.111278
-0.0679885
-0.078131
-0.0872955
-0.0957254
-0.103728
-0.111683
-0.120049
-0.129365
-0.140211
-0.154378
-0.218635
-0.246532
-0.272312
-0.296255
-0.31875
-0.3403
-0.361524
-0.383069
-0.405435
-0.429277
-0.03057
-0.0410433
-0.0417546
-0.0358956
-0.0281848
-0.021311
-0.0154797
-0.0104817
-0.00594349
-0.00197944
-0.0328006
-0.043045
-0.0427656
-0.0361926
-0.0282087
-0.0212463
-0.0153667
-0.01036
-0.00584928
-0.00194922
-0.0376228
-0.0471459
-0.0447731
-0.0367957
-0.0282652
-0.0211001
-0.0151222
-0.010101
-0.00565663
-0.00188468
-0.045868
-0.0536054
-0.047735
-0.0376489
-0.0283106
-0.0208309
-0.0147146
-0.00968471
-0.00535444
-0.00178595
-0.0588947
-0.0628665
-0.0515965
-0.0386193
-0.0282232
-0.0203502
-0.0140917
-0.00907755
-0.00492669
-0.00164941
-0.0789881
-0.0757136
-0.0565566
-0.0396195
-0.0278126
-0.0195041
-0.013166
-0.0082248
-0.00434965
-0.00145598
-0.108228
-0.0929855
-0.0633573
-0.0408756
-0.0269891
-0.01816
-0.0118554
-0.00707305
-0.00360394
-0.00115763
-0.147824
-0.113886
-0.0727785
-0.0428458
-0.0259399
-0.0163663
-0.0101826
-0.00564087
-0.002715
-0.000686726
-0.189242
-0.131742
-0.0822107
-0.0442771
-0.0245141
-0.0141616
-0.00824922
-0.00405229
-0.00178213
-6.62043e-06
-0.247339
-0.140748
-0.0882195
-0.0428174
-0.0227804
-0.0117697
-0.00640073
-0.00257075
-0.00102122
0.000835866
-0.313871
-0.148842
-0.0918464
-0.0395595
-0.0222821
-0.0104379
-0.00568286
-0.00183081
-0.000854571
0.00148954
-0.321675
-0.146466
-0.0907366
-0.0378572
-0.0217799
-0.00994576
-0.00543764
-0.00163926
-0.000794321
0.0016364
-0.316896
-0.140961
-0.0882881
-0.0359587
-0.0211344
-0.00944773
-0.00518951
-0.00147316
-0.000722732
0.0017479
-0.311193
-0.136946
-0.0864639
-0.0345078
-0.020643
-0.00904153
-0.00498371
-0.00133168
-0.0006596
0.00184686
-0.3063
-0.134041
-0.0850858
-0.0333395
-0.0202551
-0.00870012
-0.00481107
-0.00120951
-0.000606529
0.00193586
-0.301695
-0.131595
-0.0838911
-0.0323529
-0.0199275
-0.00841003
-0.00466555
-0.00110626
-0.000561955
0.00201211
-0.297509
-0.129539
-0.0828744
-0.0315527
-0.0196593
-0.00817403
-0.0045477
-0.00102288
-0.000525678
0.00207404
-0.294098
-0.127948
-0.0820852
-0.0309528
-0.0194566
-0.00799571
-0.00445875
-0.00095993
-0.000498059
0.002121
-0.291706
-0.126867
-0.0815497
-0.0305548
-0.0193213
-0.00787647
-0.00439922
-0.000917614
-0.000479385
0.00215255
-0.290476
-0.126319
-0.0812792
-0.0303567
-0.0192538
-0.00781676
-0.00436927
-0.000896044
-0.000469812
0.00216835
)
;

boundaryField
{
    inlet
    {
        type            zeroGradient;
    }
    outlet
    {
        type            fixedValue;
        value           uniform 0;
    }
    cylinder
    {
        type            zeroGradient;
    }
    top
    {
        type            symmetryPlane;
    }
    bottom
    {
        type            symmetryPlane;
    }
    defaultFaces
    {
        type            empty;
    }
}


// ************************************************************************* //
