/*--------------------------------*- C++ -*----------------------------------*\
  =========                 |
  \\      /  F ield         | OpenFOAM: The Open Source CFD Toolbox
   \\    /   O peration     | Website:  https://openfoam.org
    \\  /    A nd           | Version:  6.0
     \\/     M anipulation  |
\*---------------------------------------------------------------------------*/
FoamFile
{
    version     2.0;
    format      ascii;
    class       volVectorField;
    location    "37";
    object      U;
}
// * * * * * * * * * * * * * * * * * * * * * * * * * * * * * * * * * * * * * //

dimensions      [0 1 -1 0 0 0 0];

internalField   nonuniform List<vector> 
2000
(
(-0.0019913 0.00173825 5.72982e-20)
(-0.00762182 0.00330223 6.80526e-20)
(-0.0153306 0.00366131 -6.48772e-20)
(-0.022333 0.00333683 -1.32383e-19)
(-0.027681 0.00263904 -9.24769e-20)
(-0.0312219 0.00177107 1.23199e-19)
(-0.033053 0.000878298 7.17597e-20)
(-0.0334436 6.74148e-05 -2.90291e-20)
(-0.0328256 -0.000582459 -7.24673e-20)
(-0.031494 -0.00100744 5.28383e-20)
(-0.00248977 0.00512132 -1.42027e-19)
(-0.0083709 0.00968532 1.96064e-19)
(-0.0157256 0.0106971 1.95512e-20)
(-0.0220255 0.00969668 -1.13568e-19)
(-0.0264598 0.00759717 5.43434e-19)
(-0.028952 0.0049954 -2.39172e-19)
(-0.0296476 0.00231968 -2.58753e-19)
(-0.028842 -0.000111692 3.12089e-19)
(-0.0269837 -0.002057 -3.07793e-19)
(-0.0244451 -0.00332379 1.55277e-19)
(-0.00343583 0.00822499 2.35881e-20)
(-0.00972828 0.0154095 8.38932e-21)
(-0.0163018 0.0168858 5.87599e-19)
(-0.0211439 0.0151396 2.06124e-19)
(-0.0237177 0.0116322 4.08812e-20)
(-0.024098 0.0073154 3.38069e-19)
(-0.0225232 0.00287494 -6.42118e-19)
(-0.0193374 -0.00116634 1.39263e-20)
(-0.0150184 -0.00439167 -3.79704e-19)
(-0.0101004 -0.00647746 4.18289e-19)
(-0.00472413 0.0108682 -4.43715e-20)
(-0.0114035 0.0200604 2.55276e-19)
(-0.0166179 0.0217187 -7.43758e-19)
(-0.0191361 0.0191486 -9.61379e-20)
(-0.0188317 0.0142664 -5.47432e-19)
(-0.0160028 0.00830998 5.66955e-19)
(-0.0110214 0.002174 -6.01362e-19)
(-0.00429451 -0.00343246 4.22328e-19)
(0.00366565 -0.00789964 1.77548e-19)
(0.012067 -0.0107684 -2.00626e-19)
(-0.00618716 0.012875 -4.93855e-19)
(-0.01294 0.0232574 4.45629e-21)
(-0.0159821 0.0247662 9.162e-19)
(-0.0151339 0.0213421 2.74674e-19)
(-0.0108137 0.015224 -8.73365e-19)
(-0.00361434 0.00783366 5.43077e-19)
(0.00592043 0.000193925 6.1557e-19)
(0.0173169 -0.00684176 -5.48828e-19)
(0.0300396 -0.0124561 3.91311e-19)
(0.0429287 -0.0160514 9.6091e-20)
(-0.00758385 0.0140745 6.75068e-20)
(-0.0136957 0.024665 1.25204e-20)
(-0.0134288 0.0257004 -1.17136e-18)
(-0.00791979 0.0215108 -6.55311e-19)
(0.0017372 0.0144909 7.81732e-19)
(0.014581 0.00611363 -9.15442e-19)
(0.0298528 -0.00259227 1.049e-18)
(0.0470131 -0.0107176 -9.06104e-20)
(0.065545 -0.017253 -2.95118e-19)
(0.083806 -0.0214755 -8.57748e-19)
(-0.00858787 0.0143042 -1.4689e-19)
(-0.0128316 0.0240056 -2.68282e-19)
(-0.0077126 0.0243084 -3.296e-19)
(0.0040808 0.0196261 7.03128e-19)
(0.020662 0.0123255 1.30431e-18)
(0.0406211 0.00378264 -2.69581e-19)
(0.0629187 -0.00513496 -6.56117e-19)
(0.0869349 -0.0136358 2.00117e-19)
(0.112256 -0.0206191 -1.26026e-18)
(0.136682 -0.0252886 1.38428e-18)
(-0.00878373 0.0134242 8.98386e-19)
(-0.00932762 0.0210858 -4.90381e-19)
(0.00264725 0.0205017 9.57378e-19)
(0.0227377 0.0158164 -1.56416e-18)
(0.0481766 0.00920398 -7.47385e-19)
(0.0770185 0.00182392 -1.03523e-18)
(0.107835 -0.00579714 3.00762e-19)
(0.13985 -0.0132524 -8.3739e-19)
(0.172885 -0.0195779 1.82355e-18)
(0.204283 -0.0240859 5.10471e-19)
(-0.00768214 0.0113475 6.6135e-20)
(-0.00204398 0.0158387 7.98791e-19)
(0.019257 0.0143217 1.58738e-18)
(0.0500673 0.0102988 4.85074e-19)
(0.086706 0.00565735 1.43574e-18)
(0.126599 0.00135741 7.86961e-20)
(0.16774 -0.00241059 -7.12306e-22)
(0.208928 -0.00569664 5.78837e-19)
(0.250242 -0.00784392 4.68184e-19)
(0.289126 -0.00926886 -1.51951e-18)
(-0.00477025 0.00808565 -5.32163e-19)
(0.0101479 0.00838396 -8.91298e-19)
(0.0436457 0.00593679 -1.29554e-18)
(0.0879995 0.00320746 3.06125e-20)
(0.138754 0.00175458 -6.6046e-19)
(0.192811 0.00253987 1.04096e-18)
(0.247594 0.00588563 -2.8659e-18)
(0.30117 0.0120107 1.28666e-18)
(0.352892 0.0215096 4.8363e-19)
(0.400041 0.0302412 1.51739e-18)
(0.000389018 0.00380831 2.66206e-19)
(0.0281193 -0.000875179 -1.01906e-18)
(0.076812 -0.00427416 9.09927e-19)
(0.137567 -0.00546336 -3.53023e-19)
(0.205559 -0.00344503 3.83992e-19)
(0.277827 0.00270448 8.35981e-19)
(0.352536 0.0137217 -1.1224e-18)
(0.429283 0.0305482 1.45831e-19)
(0.509046 0.0524475 -5.37842e-19)
(0.594181 0.0694473 1.09124e-18)
(0.00806067 -0.00110823 3.81406e-19)
(0.0522618 -0.011094 -9.23909e-19)
(0.118759 -0.0153309 1.25883e-18)
(0.197753 -0.0150208 -7.83963e-19)
(0.284054 -0.0102821 -2.87592e-19)
(0.37461 -0.000975371 1.70269e-19)
(0.467614 0.012811 8.80325e-20)
(0.562497 0.0307651 1.19411e-18)
(0.658912 0.0501713 3.43758e-19)
(0.754568 0.0623339 1.46959e-18)
(0.0183526 -0.00610227 -3.40435e-19)
(0.0826146 -0.0209195 1.19456e-18)
(0.16901 -0.0252652 -9.96754e-19)
(0.26706 -0.0228332 -1.16899e-18)
(0.371094 -0.0151034 1.63555e-18)
(0.477622 -0.00286912 -1.24359e-18)
(0.584247 0.0129391 3.28488e-19)
(0.689414 0.0312091 -1.94734e-18)
(0.791342 0.0492587 1.45869e-18)
(0.88605 0.0617436 7.28818e-20)
(0.031271 -0.0105461 -4.43666e-19)
(0.118979 -0.0287947 -4.28477e-19)
(0.226873 -0.0317858 -9.12414e-19)
(0.344068 -0.0258933 1.10596e-18)
(0.464453 -0.0140419 -5.58614e-20)
(0.584068 0.00207306 7.15008e-19)
(0.699976 0.0208504 1.30438e-18)
(0.809938 0.0407923 -4.0084e-19)
(0.911586 0.0598042 -1.41779e-18)
(1.00091 0.074873 2.81485e-18)
(0.0467461 -0.013832 -2.29326e-19)
(0.160913 -0.0332177 -2.73541e-19)
(0.291343 -0.0327814 4.92266e-19)
(0.427119 -0.0216664 -9.14994e-19)
(0.56189 -0.00426395 1.56321e-19)
(0.691448 0.0168776 1.39112e-19)
(0.812671 0.0396095 6.10077e-20)
(0.923208 0.0622263 -9.85859e-21)
(1.02087 0.0832249 -1.49445e-19)
(1.10227 0.100987 -2.3797e-18)
(0.0646194 -0.0153979 9.30902e-19)
(0.207685 -0.032864 -6.49668e-19)
(0.360986 -0.0265384 8.30831e-21)
(0.514059 -0.00834 -9.89451e-19)
(0.66066 0.0159048 -3.54001e-19)
(0.796709 0.0428732 3.30994e-19)
(0.919368 0.0699912 2.57049e-19)
(1.02674 0.0954682 -9.15981e-19)
(1.11735 0.118339 7.48689e-19)
(1.18885 0.137789 -9.81641e-19)
(0.0846121 -0.0147328 4.0178e-19)
(0.258231 -0.0266438 -3.57078e-19)
(0.433904 -0.0118364 1.48316e-18)
(0.602229 0.0150996 1.51221e-19)
(0.757556 0.0470176 3.47532e-19)
(0.896419 0.0799674 1.54898e-18)
(1.01679 0.111128 -2.36838e-19)
(1.11772 0.138795 2.15801e-19)
(1.19889 0.162561 8.93615e-20)
(1.25919 0.182093 -1.09982e-19)
(0.106294 -0.0113863 2.80701e-19)
(0.311144 -0.0137433 6.74874e-19)
(0.507784 0.0120114 -7.22958e-19)
(0.688614 0.0488885 -2.44751e-19)
(0.849165 0.0886647 -3.02344e-19)
(0.98715 0.127016 4.68466e-19)
(1.10186 0.161146 -2.43676e-19)
(1.19375 0.189672 6.55584e-19)
(1.26385 0.212843 2.20614e-19)
(1.3125 0.230663 -3.59669e-19)
(0.129072 -0.00499468 -3.0249e-19)
(0.364704 0.0063282 2.68867e-19)
(0.58002 0.0451366 -5.73713e-19)
(0.770044 0.0925422 2.47473e-19)
(0.932165 0.139655 -2.56786e-19)
(1.06584 0.182156 -3.20482e-19)
(1.17214 0.217626 -2.57362e-19)
(1.25319 0.245298 2.87621e-19)
(1.3115 0.266201 -5.42284e-19)
(1.34886 0.280634 3.2772e-19)
(0.152193 0.00468201 -1.07823e-19)
(0.416949 0.0336822 -2.10916e-19)
(0.647858 0.0871015 1.00438e-19)
(0.843437 0.144924 6.19204e-21)
(1.0036 0.198185 8.3338e-20)
(1.13008 0.243067 1.14334e-19)
(1.22601 0.277936 1.05964e-19)
(1.29535 0.302932 -1.40513e-19)
(1.34202 0.319977 1.19625e-19)
(1.36911 0.329673 -1.87209e-19)
(0.174776 0.0177191 -6.24146e-20)
(0.465776 0.0680016 -2.34137e-20)
(0.708582 0.1369 9.31714e-20)
(0.906012 0.204326 -4.28924e-20)
(1.0611 0.262006 1.14323e-19)
(1.17821 0.307191 -1.47612e-19)
(1.26274 0.339449 3.42121e-20)
(1.32037 0.360075 3.67091e-20)
(1.35627 0.371949 -1.53874e-20)
(1.37465 0.375983 5.82166e-20)
(0.195858 0.0339918 -6.73339e-20)
(0.509073 0.10851 -3.04707e-19)
(0.759693 0.192986 -2.11053e-20)
(0.955472 0.268575 6.2726e-21)
(1.103 0.328579 -3.96322e-19)
(1.20944 0.371906 5.2393e-20)
(1.2824 0.399692 -4.46058e-20)
(1.3291 0.414555 -1.07594e-19)
(1.35567 0.420327 2.24323e-19)
(1.36715 0.418229 -4.09012e-19)
(0.214445 0.0531507 -3.25205e-20)
(0.544853 0.15397 6.17122e-19)
(0.799067 0.253336 9.94349e-20)
(0.990138 0.335148 -5.43301e-19)
(1.12837 0.395217 -4.40573e-20)
(1.22372 0.434652 -5.20652e-19)
(1.28575 0.456423 3.81654e-19)
(1.32289 0.464537 -1.38476e-19)
(1.34192 0.463701 2.45652e-19)
(1.34842 0.455418 -1.79499e-19)
(0.229588 0.0746124 -2.05072e-19)
(0.571395 0.202718 1.95865e-19)
(0.825096 0.315541 -1.41372e-19)
(1.00902 0.401307 1.06558e-18)
(1.13709 0.459222 5.25908e-19)
(1.22173 0.493027 -1.21936e-19)
(1.27409 0.50767 4.10804e-19)
(1.30346 0.508497 -2.70314e-19)
(1.31689 0.500954 -7.53129e-20)
(1.32028 0.486796 4.94139e-19)
(0.240437 0.0975687 -3.54956e-19)
(0.587358 0.252732 4.51712e-19)
(0.836776 0.376932 -8.88741e-19)
(1.01185 0.464234 1.24815e-19)
(1.12967 0.51799 2.78926e-19)
(1.20469 0.544843 -4.27727e-19)
(1.24914 0.551724 -4.98059e-19)
(1.27272 0.545171 2.18636e-19)
(1.28252 0.531182 -2.63278e-19)
(1.28453 0.511753 3.16139e-19)
(0.246312 0.121013 -8.96844e-20)
(0.591874 0.301726 -4.59632e-19)
(0.833757 0.434708 2.54284e-19)
(0.999033 0.521159 4.26454e-19)
(1.10726 0.569097 -2.5645e-19)
(1.17428 0.588156 -1.91076e-19)
(1.21287 0.587118 -1.04392e-19)
(1.23273 0.573483 -5.16071e-20)
(1.24078 0.553597 1.07731e-20)
(1.24291 0.529718 1.07707e-19)
(0.246759 0.143785 6.58366e-20)
(0.584619 0.347279 -3.85712e-19)
(0.816342 0.486099 6.43334e-19)
(0.971584 0.569494 -3.81162e-19)
(1.07145 0.610386 1.06543e-19)
(1.13248 0.62129 -1.51136e-19)
(1.16741 0.612602 1.62709e-19)
(1.18559 0.592495 3.12316e-20)
(1.19356 0.56743 -7.7827e-20)
(1.19711 0.54002 1.51178e-19)
(0.241594 0.164636 -1.73082e-19)
(0.565834 0.386975 3.38155e-19)
(0.78545 0.528509 -1.52002e-20)
(0.931028 0.60695 -7.32678e-20)
(1.02419 0.640034 -2.01331e-19)
(1.08145 0.642882 2.4827e-20)
(1.11501 0.627183 6.13791e-20)
(1.1335 0.601457 -1.51401e-19)
(1.14303 0.571982 1.76813e-19)
(1.1492 0.541878 1.50249e-19)
(0.230936 0.182311 3.85285e-20)
(0.536327 0.418562 -8.09595e-20)
(0.742533 0.559669 2.4181e-20)
(0.879241 0.631621 1.26251e-20)
(0.967555 0.656554 7.77925e-20)
(1.02334 0.651785 -1.43962e-19)
(1.05788 0.629966 -3.01235e-19)
(1.07891 0.599657 -1.22898e-19)
(1.09214 0.566622 -1.57091e-19)
(1.10255 0.5347 1.33078e-19)
(0.215231 0.195654 1.10688e-19)
(0.497431 0.440131 -1.71623e-19)
(0.689469 0.577805 1.65657e-19)
(0.818264 0.64211 -3.14715e-19)
(0.903423 0.658818 7.63499e-20)
(0.959697 0.646834 5.16071e-19)
(0.997279 0.619363 -1.58257e-19)
(1.02317 0.584702 1.88109e-19)
(1.04271 0.548004 2.75405e-19)
(1.05903 0.515027 1.00174e-18)
(0.195249 0.203726 6.80331e-19)
(0.450968 0.450296 -4.62912e-19)
(0.628515 0.581864 1.12661e-18)
(0.750269 0.637906 -1.92943e-19)
(0.83339 0.646759 9.66613e-19)
(0.891058 0.628052 6.06444e-19)
(0.932311 0.594737 -1.42473e-18)
(0.963572 0.55388 2.16317e-18)
(0.989457 0.507898 -4.57146e-19)
(1.00632 0.461006 8.99557e-19)
(0.17205 0.205874 -3.75294e-19)
(0.399205 0.448255 -2.67576e-19)
(0.562392 0.57153 2.58793e-19)
(0.677929 0.619482 -6.40926e-19)
(0.759662 0.622009 -2.0019e-18)
(0.8187 0.598991 -8.05104e-19)
(0.862693 0.563188 -7.25647e-19)
(0.897114 0.52174 3.51188e-19)
(0.925117 0.478158 2.9269e-18)
(0.942606 0.437391 -6.08828e-19)
(0.146894 0.201721 1.97517e-19)
(0.344728 0.433649 -7.99364e-19)
(0.494242 0.546775 1.75816e-19)
(0.604667 0.587133 -1.28035e-18)
(0.686059 0.585016 2.80319e-18)
(0.747293 0.559929 -3.24898e-19)
(0.794584 0.52408 1.5275e-18)
(0.832424 0.484256 -2.18812e-18)
(0.863342 0.443961 6.86473e-19)
(0.884648 0.407476 1.06198e-19)
(0.121118 0.191156 1.45606e-19)
(0.290163 0.40655 8.81649e-19)
(0.427119 0.507894 -2.58975e-18)
(0.533588 0.541229 1.26018e-18)
(0.615633 0.535982 -4.15431e-21)
(0.679888 0.510615 -4.25252e-19)
(0.731205 0.476429 5.3519e-19)
(0.773236 0.439623 -5.31888e-19)
(0.808165 0.403351 -1.82834e-18)
(0.834248 0.370865 -5.00966e-19)
(0.0960487 0.174334 4.76448e-19)
(0.238033 0.367474 5.34585e-19)
(0.363855 0.455615 2.20805e-18)
(0.467419 0.482513 -1.22835e-18)
(0.550831 0.4755 2.53195e-18)
(0.618566 0.451352 -5.45384e-19)
(0.674214 0.420138 -5.76485e-19)
(0.7207 0.387299 6.81251e-19)
(0.759932 0.355514 4.44172e-19)
(0.79087 0.327124 1.61046e-18)
(0.0729449 0.15167 -4.83533e-19)
(0.190664 0.317377 1.57836e-19)
(0.306988 0.391112 4.26865e-20)
(0.408535 0.412151 1.25227e-18)
(0.493703 0.404588 -3.12586e-18)
(0.56499 0.382953 5.3102e-19)
(0.624864 0.35582 1.17255e-18)
(0.675618 0.327751 -1.41755e-18)
(0.718933 0.30091 4.99392e-19)
(0.754395 0.276897 -2.3177e-18)
(0.0529469 0.123826 1.03044e-19)
(0.150114 0.257626 5.55891e-19)
(0.258722 0.315974 2.16204e-19)
(0.358946 0.331692 2.93007e-19)
(0.445941 0.324635 5.61441e-19)
(0.520505 0.306609 1.67158e-18)
(0.584155 0.284488 -2.04664e-18)
(0.638655 0.261882 -1.15272e-18)
(0.685522 0.240441 1.91026e-19)
(0.724903 0.221195 1.50287e-18)
(0.0370318 0.0916908 -6.23122e-19)
(0.118111 0.189953 -7.41264e-20)
(0.220875 0.23216 -6.20946e-19)
(0.320288 0.243022 8.84324e-20)
(0.408909 0.237333 -5.31562e-19)
(0.486184 0.2238 -6.06873e-19)
(0.552891 0.207442 -9.04394e-19)
(0.610384 0.190868 2.43708e-18)
(0.660066 0.175232 4.20455e-19)
(0.702562 0.161149 -6.40911e-19)
(0.0259729 0.0563423 3.35831e-19)
(0.096003 0.116392 4.43891e-19)
(0.194847 0.141927 1.74884e-19)
(0.293812 0.148292 -9.43853e-19)
(0.38364 0.144613 -4.39405e-19)
(0.462845 0.136226 -9.46189e-20)
(0.531693 0.126185 1.84887e-19)
(0.591265 0.116066 1.48456e-19)
(0.642893 0.106551 -1.14796e-18)
(0.687548 0.0979583 6.58724e-19)
(0.0203063 0.0190051 -1.74887e-19)
(0.0847141 0.0392054 -1.98962e-19)
(0.181593 0.0477517 1.58576e-19)
(0.280362 0.0498474 1.40788e-19)
(0.370831 0.0485764 1.44287e-19)
(0.451036 0.0457357 2.20663e-19)
(0.520987 0.0423504 -1.1602e-20)
(0.581622 0.038948 -2.89449e-19)
(0.634242 0.0357539 2.74944e-19)
(0.680004 0.0328649 -4.13664e-19)
(0.0203063 -0.0190053 -1.76037e-19)
(0.0847141 -0.0392059 -1.89607e-19)
(0.181593 -0.0477524 1.74736e-19)
(0.280362 -0.0498481 3.42116e-19)
(0.370831 -0.0485772 2.27955e-19)
(0.451036 -0.0457365 -3.00361e-19)
(0.520987 -0.0423512 -1.63212e-19)
(0.581622 -0.0389487 7.11766e-20)
(0.634242 -0.0357546 1.60022e-19)
(0.680004 -0.0328655 -9.52907e-20)
(0.0259729 -0.0563426 4.20102e-19)
(0.096003 -0.116393 -5.33903e-19)
(0.194847 -0.141927 -4.44068e-20)
(0.293813 -0.148292 2.95818e-19)
(0.38364 -0.144614 -1.33745e-18)
(0.462845 -0.136227 5.71475e-19)
(0.531694 -0.126186 5.89923e-19)
(0.591265 -0.116066 -6.9643e-19)
(0.642893 -0.106552 6.65254e-19)
(0.687548 -0.097959 -2.91987e-19)
(0.0370318 -0.091691 -7.26326e-20)
(0.118111 -0.189953 -9.26609e-21)
(0.220875 -0.232161 -1.4421e-18)
(0.320288 -0.243023 -4.58759e-19)
(0.408909 -0.237333 -4.83666e-20)
(0.486184 -0.2238 -7.547e-19)
(0.552891 -0.207443 1.4062e-18)
(0.610384 -0.190868 -4.9419e-20)
(0.660066 -0.175233 8.02968e-19)
(0.702562 -0.161149 -7.06033e-19)
(0.052947 -0.123826 1.22667e-19)
(0.150114 -0.257626 -5.67913e-19)
(0.258722 -0.315974 1.74748e-18)
(0.358946 -0.331693 2.47286e-19)
(0.445941 -0.324636 1.2157e-18)
(0.520505 -0.306609 -1.18851e-18)
(0.584155 -0.284488 1.2477e-18)
(0.638655 -0.261882 -8.99555e-19)
(0.685522 -0.240442 -3.95041e-19)
(0.724903 -0.221195 3.3559e-19)
(0.0729449 -0.15167 1.09535e-18)
(0.190664 -0.317377 2.80513e-21)
(0.306989 -0.391112 -1.84166e-18)
(0.408535 -0.412151 -5.34322e-19)
(0.493703 -0.404589 1.77417e-18)
(0.56499 -0.382954 -1.03977e-18)
(0.624865 -0.355821 -1.20371e-18)
(0.675618 -0.327751 1.08304e-18)
(0.718934 -0.300911 -7.37326e-19)
(0.754395 -0.276898 -1.58963e-19)
(0.0960488 -0.174334 -1.63508e-19)
(0.238033 -0.367474 -7.75432e-21)
(0.363855 -0.455616 1.99863e-18)
(0.46742 -0.482514 1.14599e-18)
(0.550832 -0.475501 -1.3514e-18)
(0.618566 -0.451352 1.63626e-18)
(0.674214 -0.420139 -1.77552e-18)
(0.7207 -0.387299 1.7669e-19)
(0.759932 -0.355515 5.28839e-19)
(0.79087 -0.327125 1.22367e-18)
(0.121118 -0.191156 1.87422e-19)
(0.290163 -0.406551 3.01815e-19)
(0.42712 -0.507895 3.283e-19)
(0.533588 -0.541229 -1.0555e-18)
(0.615633 -0.535983 -1.88013e-18)
(0.679888 -0.510616 3.95931e-19)
(0.731205 -0.47643 1.14576e-18)
(0.773236 -0.439624 -3.27968e-19)
(0.808165 -0.403352 1.97452e-18)
(0.834248 -0.370865 -1.92462e-18)
(0.146894 -0.201721 -1.06096e-18)
(0.344728 -0.43365 4.07673e-19)
(0.494242 -0.546775 -1.10082e-18)
(0.604667 -0.587134 1.77963e-18)
(0.686059 -0.585017 8.89887e-19)
(0.747293 -0.559929 1.25642e-18)
(0.794585 -0.52408 -2.90756e-19)
(0.832424 -0.484257 1.14562e-18)
(0.863343 -0.443962 -2.42549e-18)
(0.884649 -0.407477 -6.32344e-19)
(0.17205 -0.205875 6.24675e-20)
(0.399205 -0.448255 -7.12751e-19)
(0.562392 -0.57153 -1.14122e-18)
(0.677929 -0.619482 -4.83546e-19)
(0.759663 -0.622009 -1.36641e-18)
(0.818701 -0.598991 -1.38982e-19)
(0.862693 -0.563189 1.18829e-19)
(0.897114 -0.521741 -5.33943e-19)
(0.925118 -0.478159 -5.96727e-19)
(0.942606 -0.437392 1.57371e-18)
(0.195249 -0.203726 3.35363e-19)
(0.450968 -0.450296 4.68318e-19)
(0.628515 -0.581865 8.39004e-19)
(0.75027 -0.637906 3.72175e-20)
(0.833391 -0.646759 5.59811e-19)
(0.891059 -0.628052 -7.66561e-19)
(0.932312 -0.594737 2.34041e-18)
(0.963572 -0.55388 -1.03333e-18)
(0.989458 -0.507899 -5.07498e-19)
(1.00632 -0.461006 -1.53032e-18)
(0.215231 -0.195654 -1.32086e-19)
(0.497431 -0.440131 2.33295e-19)
(0.689469 -0.577806 -2.3908e-19)
(0.818265 -0.642111 1.28906e-19)
(0.903423 -0.658818 -1.52334e-19)
(0.959697 -0.646834 -3.90702e-19)
(0.997279 -0.619363 5.13946e-19)
(1.02317 -0.584702 -1.68134e-19)
(1.04271 -0.548005 2.60805e-19)
(1.05903 -0.515027 -5.69116e-19)
(0.230936 -0.182311 -7.35502e-21)
(0.536327 -0.418563 -1.06555e-19)
(0.742533 -0.55967 2.13057e-20)
(0.879241 -0.631622 1.44487e-19)
(0.967555 -0.656555 -6.53633e-20)
(1.02334 -0.651785 1.75587e-20)
(1.05788 -0.629967 -1.71797e-20)
(1.07891 -0.599657 -3.83223e-19)
(1.09214 -0.566623 -1.77917e-19)
(1.10255 -0.5347 -5.59798e-19)
(0.241594 -0.164636 -9.61602e-20)
(0.565834 -0.386975 3.39352e-19)
(0.78545 -0.528509 -2.10858e-19)
(0.931028 -0.606951 -7.60824e-20)
(1.02419 -0.640034 3.40929e-20)
(1.08145 -0.642882 7.13791e-20)
(1.11501 -0.627183 -6.98568e-21)
(1.1335 -0.601457 2.92233e-19)
(1.14303 -0.571983 -2.52552e-19)
(1.1492 -0.541878 -3.57052e-21)
(0.24676 -0.143785 -2.36744e-19)
(0.584619 -0.347279 -1.4828e-19)
(0.816342 -0.486099 -3.68189e-19)
(0.971584 -0.569495 4.18835e-19)
(1.07145 -0.610386 -3.07086e-20)
(1.13248 -0.621291 1.36181e-19)
(1.16741 -0.612602 1.53741e-19)
(1.18559 -0.592495 -5.59182e-20)
(1.19356 -0.56743 5.03318e-20)
(1.19711 -0.54002 -1.5952e-19)
(0.246313 -0.121013 -1.61036e-19)
(0.591875 -0.301726 -2.06856e-19)
(0.833757 -0.434708 3.11705e-19)
(0.999033 -0.521159 -4.68349e-19)
(1.10726 -0.569097 8.22725e-20)
(1.17428 -0.588156 4.15886e-20)
(1.21287 -0.587119 9.19942e-20)
(1.23273 -0.573484 -6.04723e-20)
(1.24078 -0.553597 -7.24373e-20)
(1.24291 -0.529718 -2.36195e-19)
(0.240437 -0.0975688 6.71377e-19)
(0.587358 -0.252732 -5.25427e-19)
(0.836776 -0.376932 2.45469e-20)
(1.01185 -0.464234 -6.73295e-19)
(1.12967 -0.51799 -1.95465e-19)
(1.20469 -0.544843 1.56378e-19)
(1.24914 -0.551725 1.14574e-19)
(1.27272 -0.545171 -3.8217e-19)
(1.28252 -0.531182 1.67777e-19)
(1.28453 -0.511753 -3.02565e-19)
(0.229588 -0.0746124 3.33181e-19)
(0.571396 -0.202718 -3.2975e-19)
(0.825096 -0.315542 1.1833e-18)
(1.00902 -0.401307 9.43626e-20)
(1.13709 -0.459223 2.68358e-19)
(1.22173 -0.493027 9.57322e-19)
(1.27409 -0.50767 -1.98986e-19)
(1.30346 -0.508497 4.83432e-20)
(1.31689 -0.500955 -2.84252e-20)
(1.32028 -0.486797 -4.95408e-20)
(0.214446 -0.0531507 2.56828e-19)
(0.544854 -0.15397 5.83588e-19)
(0.799067 -0.253336 -5.94846e-19)
(0.990138 -0.335148 -1.80688e-19)
(1.12837 -0.395217 -1.91301e-19)
(1.22372 -0.434652 3.76596e-19)
(1.28575 -0.456424 -1.77712e-19)
(1.32289 -0.464537 4.19014e-19)
(1.34192 -0.463701 1.00835e-19)
(1.34842 -0.455418 -1.77336e-19)
(0.195858 -0.0339918 -2.77427e-19)
(0.509073 -0.10851 2.57447e-19)
(0.759694 -0.192986 -5.28546e-19)
(0.955472 -0.268575 2.2129e-19)
(1.103 -0.328579 -2.21789e-19)
(1.20944 -0.371906 -2.63732e-19)
(1.2824 -0.399692 -2.04634e-19)
(1.3291 -0.414555 2.25776e-19)
(1.35567 -0.420328 -3.92437e-19)
(1.36715 -0.418229 2.48436e-19)
(0.174776 -0.0177191 -1.03934e-19)
(0.465776 -0.0680016 -2.03955e-19)
(0.708583 -0.1369 9.59446e-20)
(0.906012 -0.204326 7.08333e-21)
(1.0611 -0.262006 7.63616e-20)
(1.17821 -0.307192 1.0941e-19)
(1.26274 -0.339449 9.31635e-20)
(1.32037 -0.360075 -1.26049e-19)
(1.35627 -0.371949 1.02755e-19)
(1.37465 -0.375984 -1.62317e-19)
(0.152193 -0.00468201 -6.54914e-20)
(0.416949 -0.0336823 -2.63975e-20)
(0.647858 -0.0871016 9.83594e-20)
(0.843437 -0.144924 -4.43738e-20)
(1.0036 -0.198185 1.24184e-19)
(1.13008 -0.243067 -1.5697e-19)
(1.22602 -0.277936 4.03257e-20)
(1.29535 -0.302932 3.46076e-20)
(1.34202 -0.319978 -1.23644e-20)
(1.36911 -0.329673 5.67444e-20)
(0.129072 0.00499467 -7.85673e-20)
(0.364704 -0.00632822 -3.33092e-19)
(0.58002 -0.0451367 -2.68273e-20)
(0.770044 -0.0925423 1.0708e-20)
(0.932165 -0.139655 -4.62041e-19)
(1.06584 -0.182156 4.87911e-20)
(1.17214 -0.217626 -5.16932e-20)
(1.25319 -0.245298 -1.40604e-19)
(1.3115 -0.266201 3.11117e-19)
(1.34886 -0.280634 -5.66019e-19)
(0.106294 0.0113863 -4.45422e-20)
(0.311144 0.0137433 7.1443e-19)
(0.507785 -0.0120114 9.52895e-20)
(0.688614 -0.0488886 -6.45375e-19)
(0.849165 -0.0886648 -7.72784e-20)
(0.98715 -0.127017 -7.27786e-19)
(1.10186 -0.161146 5.65904e-19)
(1.19375 -0.189672 -2.29688e-19)
(1.26385 -0.212843 4.35357e-19)
(1.3125 -0.230663 -3.84076e-19)
(0.0846121 0.0147328 -2.51918e-19)
(0.258231 0.0266438 2.93326e-19)
(0.433904 0.0118364 -2.0489e-19)
(0.60223 -0.0150996 1.41626e-18)
(0.757556 -0.0470176 7.49678e-19)
(0.896419 -0.0799674 -1.96309e-19)
(1.01679 -0.111129 7.63333e-19)
(1.11773 -0.138795 -4.99098e-19)
(1.19889 -0.162561 -1.60508e-19)
(1.25919 -0.182093 1.15967e-18)
(0.0646194 0.0153979 -4.65709e-19)
(0.207685 0.032864 6.95334e-19)
(0.360987 0.0265383 -1.31865e-18)
(0.514059 0.00833994 2.28256e-19)
(0.66066 -0.0159048 5.69114e-19)
(0.796709 -0.0428733 -7.1518e-19)
(0.919368 -0.0699913 -1.26668e-18)
(1.02674 -0.0954683 6.79046e-19)
(1.11736 -0.118339 -8.83119e-19)
(1.18885 -0.137789 1.41327e-18)
(0.046746 0.0138319 -1.15126e-19)
(0.160913 0.0332176 -6.99875e-19)
(0.291343 0.0327814 3.45487e-19)
(0.427119 0.0216664 8.64248e-19)
(0.56189 0.00426386 -4.64232e-19)
(0.691448 -0.0168777 -4.58131e-19)
(0.812671 -0.0396096 -7.76745e-19)
(0.923209 -0.0622264 -3.55924e-19)
(1.02087 -0.083225 -8.54787e-20)
(1.10227 -0.100987 1.41239e-18)
(0.0312709 0.0105461 1.93303e-19)
(0.118979 0.0287946 -9.50752e-19)
(0.226873 0.0317857 1.62622e-18)
(0.344068 0.0258932 -9.05539e-19)
(0.464453 0.0140418 5.86703e-19)
(0.584068 -0.00207318 -7.30036e-19)
(0.699976 -0.0208506 8.13086e-19)
(0.809938 -0.0407924 7.10117e-19)
(0.911586 -0.0598044 1.55152e-18)
(1.00091 -0.0748731 -2.56502e-18)
(0.0183526 0.00610224 -6.0064e-19)
(0.0826145 0.0209194 1.2061e-18)
(0.16901 0.0252651 1.60969e-20)
(0.26706 0.022833 -4.34426e-19)
(0.371094 0.0151033 -2.30698e-19)
(0.477622 0.00286895 1.8439e-19)
(0.584248 -0.0129393 -1.30907e-18)
(0.689414 -0.0312093 1.0114e-18)
(0.791343 -0.0492589 -1.30349e-18)
(0.88605 -0.0617437 -5.94988e-19)
(0.00806063 0.00110819 1.03359e-18)
(0.0522617 0.0110939 -3.22431e-19)
(0.118759 0.0153308 -6.0484e-19)
(0.197753 0.0150206 1.64272e-18)
(0.284054 0.0102819 -1.61368e-18)
(0.374611 0.000975137 9.01582e-19)
(0.467614 -0.0128112 9.60229e-19)
(0.562497 -0.0307654 2.62761e-19)
(0.658913 -0.0501715 2.73286e-19)
(0.754569 -0.0623342 -3.87672e-19)
(0.000388972 -0.00380836 -9.88496e-19)
(0.0281192 0.00087503 9.39556e-19)
(0.0768119 0.00427394 -8.31474e-19)
(0.137567 0.00546308 1.04321e-18)
(0.205559 0.00344472 -3.11672e-19)
(0.277827 -0.00270481 -1.08245e-18)
(0.352536 -0.013722 3.10415e-19)
(0.429284 -0.0305485 -5.12157e-19)
(0.509047 -0.0524478 -6.06606e-19)
(0.594181 -0.0694476 -1.89244e-18)
(-0.0047703 -0.00808572 -1.23482e-18)
(0.0101478 -0.00838416 9.81709e-19)
(0.0436455 -0.0059371 -1.92347e-18)
(0.0879994 -0.00320783 3.43951e-19)
(0.138754 -0.001755 -1.33256e-18)
(0.192811 -0.00254032 -7.9921e-19)
(0.247595 -0.0058861 1.91261e-18)
(0.30117 -0.0120111 -2.61482e-18)
(0.352893 -0.0215102 5.03298e-19)
(0.400041 -0.0302418 -8.28808e-19)
(-0.0076822 -0.0113476 6.08257e-19)
(-0.0020441 -0.0158389 2.57364e-19)
(0.0192568 -0.0143221 -7.65517e-20)
(0.0500673 -0.0102993 7.30941e-19)
(0.086706 -0.00565791 2.14636e-18)
(0.1266 -0.00135801 7.40806e-19)
(0.16774 0.00240995 7.65459e-19)
(0.208929 0.00569596 -2.64676e-19)
(0.250243 0.00784318 -2.46891e-18)
(0.289126 0.00926803 6.26138e-19)
(-0.0087838 -0.0134244 -1.71719e-19)
(-0.00932776 -0.0210861 5.46547e-19)
(0.00264712 -0.0205022 -1.43177e-19)
(0.0227376 -0.0158171 1.01094e-18)
(0.0481766 -0.00920469 -2.33738e-18)
(0.0770186 -0.0018247 1.98399e-19)
(0.107835 0.00579632 -1.11242e-18)
(0.13985 0.0132516 1.63691e-18)
(0.172885 0.019577 -4.78455e-19)
(0.204283 0.0240848 -6.83689e-20)
(-0.00858794 -0.0143044 -1.169e-19)
(-0.0128317 -0.024006 -6.57286e-19)
(-0.00771273 -0.024309 1.65303e-18)
(0.00408071 -0.0196268 -8.71567e-19)
(0.020662 -0.0123264 6.12557e-20)
(0.0406212 -0.00378359 2.79701e-19)
(0.0629189 0.00513395 -2.55617e-19)
(0.0869352 0.0136347 3.32208e-19)
(0.112257 0.020618 1.15115e-18)
(0.136682 0.0252873 3.01234e-19)
(-0.00758392 -0.0140747 -2.622e-19)
(-0.0136958 -0.0246655 -2.9164e-19)
(-0.0134289 -0.0257011 -1.2945e-18)
(-0.00791988 -0.0215117 6.89275e-19)
(0.0017372 -0.0144919 -1.4217e-18)
(0.0145811 -0.00611474 3.22981e-19)
(0.029853 0.00259109 3.6317e-19)
(0.0470134 0.0107164 -3.83798e-19)
(0.0655454 0.0172517 -2.48311e-19)
(0.0838065 0.0214741 -1.11597e-18)
(-0.00618723 -0.0128752 2.04828e-19)
(-0.0129402 -0.0232581 -4.81799e-20)
(-0.0159823 -0.0247671 9.78337e-22)
(-0.0151339 -0.0213432 -6.22087e-19)
(-0.0108137 -0.0152252 1.57479e-18)
(-0.00361424 -0.00783493 -2.45628e-19)
(0.00592062 -0.000195271 -6.12976e-19)
(0.0173172 0.00684034 7.50256e-19)
(0.03004 0.0124546 -2.63654e-19)
(0.0429291 0.0160498 1.45731e-18)
(-0.00472419 -0.0108685 -3.84451e-20)
(-0.0114036 -0.0200611 -2.25401e-19)
(-0.016618 -0.0217197 -8.89595e-20)
(-0.0191362 -0.0191497 -1.1365e-19)
(-0.0188317 -0.0142677 -2.44343e-19)
(-0.0160027 -0.00831139 -7.67328e-19)
(-0.0110213 -0.00217549 9.59833e-19)
(-0.00429426 0.0034309 5.6069e-19)
(0.00366597 0.00789799 -1.00442e-19)
(0.0120674 0.0107667 -8.93877e-19)
(-0.00343588 -0.00822529 2.18317e-19)
(-0.00972838 -0.0154103 3.81508e-20)
(-0.0163018 -0.0168869 2.58237e-19)
(-0.0211439 -0.0151409 -2.95566e-20)
(-0.0237177 -0.0116336 2.35144e-19)
(-0.024098 -0.00731692 2.65298e-19)
(-0.0225231 -0.00287654 3.97734e-19)
(-0.0193372 0.00116467 -1.12671e-18)
(-0.0150182 0.00438991 -2.07956e-19)
(-0.0101001 0.00647559 3.727e-19)
(-0.0024898 -0.00512165 -1.10238e-19)
(-0.00837096 -0.00968613 -1.56682e-19)
(-0.0157256 -0.0106982 -7.53741e-20)
(-0.0220256 -0.00969803 3.68664e-19)
(-0.0264598 -0.00759867 1.7895e-19)
(-0.028952 -0.004997 3.66988e-20)
(-0.0296475 -0.00232136 -7.95659e-20)
(-0.0288419 0.000109942 -6.17212e-20)
(-0.0269835 0.00205516 5.2979e-19)
(-0.0244449 0.00332183 -3.60827e-19)
(-0.00199131 -0.00173858 5.61983e-20)
(-0.00762184 -0.00330306 6.99265e-20)
(-0.0153306 -0.00366248 -5.96256e-20)
(-0.022333 -0.00333822 -5.45368e-20)
(-0.027681 -0.00264058 -5.65465e-20)
(-0.0312219 -0.00177271 -9.02288e-20)
(-0.033053 -0.000880013 2.89808e-21)
(-0.0334435 -6.92059e-05 1.25192e-19)
(-0.0328255 0.000580574 -1.25701e-19)
(-0.0314939 0.00100544 2.28704e-19)
(-0.00812748 -0.00258918 1.65369e-20)
(0.0622052 -0.00662341 9.88996e-21)
(0.277479 -0.00670209 1.33947e-21)
(0.377093 -0.00438817 -9.0311e-22)
(0.479646 -0.00369323 -6.35784e-23)
(0.553712 -0.00265189 1.48417e-22)
(0.606106 -0.00219948 1.67351e-22)
(0.660555 -0.00157936 -3.4443e-23)
(0.683743 -0.00144126 -2.44289e-24)
(0.734114 -0.00100128 2.43439e-22)
(0.00867325 -0.0080677 2.62241e-20)
(0.0774562 -0.0197126 1.25196e-21)
(0.288972 -0.0199703 -1.74945e-20)
(0.385851 -0.0130656 1.40593e-20)
(0.486356 -0.0109808 8.8873e-22)
(0.558946 -0.0078797 -5.96992e-22)
(0.610376 -0.00652994 6.92545e-22)
(0.663912 -0.00471657 7.11296e-23)
(0.686675 -0.00434852 1.43933e-22)
(0.736336 -0.00301291 -2.23116e-22)
(0.0419801 -0.0144264 2.68613e-20)
(0.107486 -0.0323209 -3.61085e-20)
(0.311529 -0.0327797 1.78818e-20)
(0.403052 -0.0214422 -1.16479e-20)
(0.499541 -0.018041 8.30085e-22)
(0.569247 -0.0129558 -6.47074e-22)
(0.618792 -0.0107453 -2.58293e-22)
(0.67054 -0.0077741 1.39095e-24)
(0.69247 -0.00719001 -1.10082e-22)
(0.740738 -0.00498493 -3.25698e-22)
(0.0911912 -0.0221433 -4.16328e-20)
(0.151371 -0.0441492 -5.01157e-20)
(0.344321 -0.0448451 -2.3131e-20)
(0.42809 -0.0293344 1.21398e-20)
(0.51875 -0.024734 -1.45648e-20)
(0.584291 -0.0177869 3.85813e-21)
(0.631111 -0.014774 -2.10067e-22)
(0.680268 -0.0107021 1.23137e-22)
(0.700997 -0.00992412 -1.31908e-22)
(0.747239 -0.00689195 1.20882e-22)
(0.155375 -0.0314914 1.15145e-19)
(0.207788 -0.0549098 7.22477e-20)
(0.386158 -0.0559029 2.59932e-20)
(0.460097 -0.0365799 -2.35929e-20)
(0.543337 -0.0309359 1.19556e-20)
(0.603613 -0.02229 3.17103e-21)
(0.646981 -0.0185518 2.22106e-21)
(0.692851 -0.0134556 2.42945e-22)
(0.712064 -0.0125125 2.93838e-22)
(0.755719 -0.00871017 -6.41177e-22)
(0.23325 -0.0423977 -5.08341e-20)
(0.27506 -0.0642877 3.90035e-20)
(0.435561 -0.0656998 4.81924e-21)
(0.497993 -0.0430355 2.63156e-20)
(0.572499 -0.0365399 -5.95598e-21)
(0.626632 -0.0263947 -3.69829e-21)
(0.665963 -0.0220234 -2.29446e-21)
(0.707978 -0.0159956 -1.52249e-22)
(0.725426 -0.0149214 -1.58577e-22)
(0.766026 -0.0104179 6.87602e-22)
(0.323186 -0.0545824 -3.86836e-20)
(0.351216 -0.0720185 -1.00798e-19)
(0.49083 -0.0740327 -1.70624e-20)
(0.540541 -0.0485853 -1.46533e-20)
(0.605321 -0.0414632 6.98621e-21)
(0.652682 -0.0300455 -1.94667e-21)
(0.687551 -0.0251446 2.46587e-21)
(0.725286 -0.0182905 4.54341e-22)
(0.740798 -0.0171225 -4.75929e-23)
(0.777974 -0.0119956 2.64711e-22)