/*--------------------------------*- C++ -*----------------------------------*\
  =========                 |
  \\      /  F ield         | OpenFOAM: The Open Source CFD Toolbox
   \\    /   O peration     | Website:  https://openfoam.org
    \\  /    A nd           | Version:  6.0
     \\/     M anipulation  |
\*---------------------------------------------------------------------------*/
FoamFile
{
    version     2.0;
    format      ascii;
    class       surfaceScalarField;
    location    "19";
    object      phi;
}
// * * * * * * * * * * * * * * * * * * * * * * * * * * * * * * * * * * * * * //

dimensions      [0 3 -1 0 0 0 0];

internalField   nonuniform List<scalar> 
15760
(
-2.24999e-06
2.2507e-06
-7.08e-10
-7.77966e-06
5.53147e-06
-1.80844e-09
-1.56376e-05
7.86064e-06
-2.66586e-09
-2.50546e-05
9.42033e-06
-3.32863e-09
-3.54091e-05
1.03583e-05
-3.83089e-09
-4.6202e-05
1.07971e-05
-4.19914e-09
-5.70366e-05
1.08391e-05
-4.45477e-09
-6.7602e-05
1.057e-05
-4.61526e-09
-7.76601e-05
1.00629e-05
-4.69471e-09
-8.70361e-05
9.38072e-06
-4.70473e-09
-9.56101e-05
8.57864e-06
-4.65532e-09
-0.000103311
7.70523e-06
-4.55502e-09
-0.00011011
6.80364e-06
-4.41083e-09
-0.000116018
5.91217e-06
-4.22902e-09
-0.000121079
5.06458e-06
-4.01548e-09
-0.000125365
4.29025e-06
-3.77506e-09
-0.000128976
3.61402e-06
-3.51234e-09
-0.000132029
3.05625e-06
-3.23168e-09
-0.000134659
2.6339e-06
-2.93796e-09
2.36136e-06
-2.6313e-09
-0.000137018
-2.23168e-06
4.48238e-06
-7.70567e-06
1.10055e-05
-1.54712e-05
1.56262e-05
-2.47603e-05
1.87094e-05
-3.49526e-05
2.05506e-05
-4.55505e-05
2.13949e-05
-5.61574e-05
2.1446e-05
-6.64624e-05
2.08749e-05
-7.62263e-05
1.98268e-05
-8.52728e-05
1.84272e-05
-9.34799e-05
1.67857e-05
-0.000100774
1.49991e-05
-0.000107124
1.31538e-05
-0.000112538
1.13264e-05
-0.000117058
9.58486e-06
-0.000120757
7.9886e-06
-0.000123731
6.58802e-06
-0.000126099
5.42465e-06
-0.000127999
4.53335e-06
3.94361e-06
-0.000129581
-2.1948e-06
6.67717e-06
-7.55669e-06
1.63674e-05
-1.51362e-05
2.32057e-05
-2.41683e-05
2.77414e-05
-3.40356e-05
3.0418e-05
-4.42428e-05
3.16021e-05
-5.43947e-05
3.15979e-05
-6.41799e-05
3.06601e-05
-7.33577e-05
2.90047e-05
-8.17487e-05
2.68182e-05
-8.92266e-05
2.42636e-05
-9.5713e-05
2.14855e-05
-0.000101172
1.86129e-05
-0.000105607
1.57613e-05
-0.000109056
1.30337e-05
-0.000111588
1.05204e-05
-0.000113299
8.29921e-06
-0.000114309
6.43445e-06
-0.000114756
4.98076e-06
3.98428e-06
-0.000114797
-2.13878e-06
8.81595e-06
-7.33048e-06
2.15591e-05
-1.46281e-05
3.05034e-05
-2.32715e-05
3.63848e-05
-3.26486e-05
3.97951e-05
-4.22681e-05
4.12216e-05
-5.17375e-05
4.10673e-05
-6.07455e-05
3.96681e-05
-6.90494e-05
3.73086e-05
-7.64652e-05
3.42341e-05
-8.28609e-05
3.06593e-05
-8.81506e-05
2.67751e-05
-9.22907e-05
2.2753e-05
-9.5277e-05
1.87475e-05
-9.71409e-05
1.48976e-05
-9.79471e-05
1.13266e-05
-9.77895e-05
8.14159e-06
-9.67878e-05
5.43274e-06
-9.50844e-05
3.27744e-06
1.741e-06
-9.28411e-05
-2.06262e-06
1.08786e-05
-7.02322e-06
2.65197e-05
-1.39391e-05
3.74193e-05
-2.20577e-05
4.45034e-05
-3.07752e-05
4.85126e-05
-3.96072e-05
5.00536e-05
-4.81656e-05
4.96256e-05
-5.61404e-05
4.76429e-05
-6.32872e-05
4.44554e-05
-6.9417e-05
4.03638e-05
-7.43897e-05
3.5632e-05
-7.811e-05
3.04953e-05
-8.05235e-05
2.51665e-05
-8.16152e-05
1.98393e-05
-8.14073e-05
1.46897e-05
-7.99573e-05
9.87653e-06
-7.73551e-05
5.53945e-06
-7.37206e-05
1.79819e-06
-6.92005e-05
-1.24263e-06
-3.49465e-06
-6.39648e-05
-1.96472e-06
1.28433e-05
-6.62901e-06
3.11839e-05
-1.30571e-05
4.38474e-05
-2.05079e-05
5.19543e-05
-2.83898e-05
5.63944e-05
-3.62288e-05
5.78926e-05
-4.36444e-05
5.70412e-05
-5.03302e-05
5.43288e-05
-5.6041e-05
5.01662e-05
-6.05826e-05
4.49054e-05
-6.38062e-05
3.88556e-05
-6.56042e-05
3.22934e-05
-6.59087e-05
2.5471e-05
-6.46903e-05
1.86208e-05
-6.1958e-05
1.19574e-05
-5.77589e-05
5.67743e-06
-5.21767e-05
-4.27381e-08
-4.533e-05
-5.04851e-06
-3.73707e-05
-9.20195e-06
-1.23859e-05
-2.84795e-05
-1.84273e-06
1.4686e-05
-6.13937e-06
3.54806e-05
-1.19649e-05
4.96729e-05
-1.85947e-05
5.85841e-05
-2.54544e-05
6.32541e-05
-3.20857e-05
6.45239e-05
-3.81197e-05
6.30752e-05
-4.32572e-05
5.94663e-05
-4.72545e-05
5.41634e-05
-4.99134e-05
4.75644e-05
-5.10758e-05
4.0018e-05
-5.06205e-05
3.1838e-05
-4.84624e-05
2.33129e-05
-4.45539e-05
1.47123e-05
-3.88862e-05
6.28977e-06
-3.14915e-05
-1.71727e-06
-2.24436e-05
-9.09068e-06
-1.18577e-05
-1.56343e-05
1.09024e-07
-2.11687e-05
-2.55394e-05
1.32625e-05
-1.69336e-06
1.63794e-05
-5.54275e-06
3.933e-05
-1.06392e-05
5.47693e-05
-1.62808e-05
6.42257e-05
-2.19169e-05
6.88902e-05
-2.71109e-05
6.9718e-05
-3.15119e-05
6.74761e-05
-3.48326e-05
6.27871e-05
-3.6835e-05
5.61658e-05
-3.73197e-05
4.80491e-05
-3.61202e-05
3.88185e-05
-3.31007e-05
2.88185e-05
-2.81564e-05
1.83687e-05
-2.12169e-05
7.77284e-06
-1.22502e-05
-2.67698e-06
-1.26743e-06
-1.27e-05
1.16729e-05
-2.2031e-05
2.64622e-05
-3.04237e-05
4.29395e-05
-3.76459e-05
-4.34942e-05
6.08943e-05
-1.51231e-06
1.78917e-05
-4.82428e-06
4.26419e-05
-9.04986e-06
5.89949e-05
-1.35175e-05
6.86933e-05
-1.77081e-05
7.30808e-05
-2.12143e-05
7.32243e-05
-2.37104e-05
6.99722e-05
-2.49284e-05
6.4005e-05
-2.46421e-05
5.58795e-05
-2.26557e-05
4.60627e-05
-1.87977e-05
3.49606e-05
-1.29185e-05
2.29393e-05
-4.89193e-06
1.03421e-05
5.37971e-06
-2.4988e-06
1.79582e-05
-1.52555e-05
3.28611e-05
-2.76029e-05
5.00526e-05
-3.92225e-05
6.94372e-05
-4.98082e-05
9.08521e-05
-5.90609e-05
-6.67106e-05
0.000114068
-1.29427e-06
1.9186e-05
-3.9659e-06
4.53136e-05
-7.16048e-06
6.21895e-05
-1.02455e-05
7.17784e-05
-1.2742e-05
7.55773e-05
-1.4281e-05
7.47633e-05
-1.45707e-05
7.02618e-05
-1.33714e-05
6.28058e-05
-1.04777e-05
5.29857e-05
-5.70533e-06
4.12904e-05
1.11601e-06
2.81392e-05
1.0146e-05
1.39093e-05
2.15317e-05
-1.04359e-06
3.54012e-05
-1.63683e-05
5.18532e-05
-3.17075e-05
7.09433e-05
-4.6693e-05
9.26698e-05
-6.0949e-05
0.000116959
-7.40975e-05
0.000143652
-8.57541e-05
-9.55584e-05
0.0001725
-1.03311e-06
2.02191e-05
-2.94702e-06
4.72275e-05
-4.92935e-06
6.41718e-05
-6.3962e-06
7.32452e-05
-6.91782e-06
7.60989e-05
-6.17289e-06
7.40183e-05
-3.91385e-06
6.80028e-05
5.96932e-08
5.88322e-05
5.92097e-06
4.71244e-05
1.38309e-05
3.33804e-05
2.39481e-05
1.8022e-05
3.64339e-05
1.42349e-06
5.14519e-05
-1.60615e-05
6.9161e-05
-3.40775e-05
8.9703e-05
-5.22495e-05
0.000113183
-7.01731e-05
0.000139648
-8.74137e-05
0.00016906
-0.00010351
0.000201276
-0.000117969
-0.000130307
0.000236024
-7.22258e-07
2.09413e-05
-1.74581e-06
4.8251e-05
-2.31215e-06
6.47381e-05
-1.89557e-06
7.28286e-05
-1.24406e-07
7.43277e-05
3.2658e-06
7.06281e-05
8.46794e-06
6.28006e-05
1.5631e-05
5.16692e-05
2.48817e-05
3.78737e-05
3.63422e-05
2.19199e-05
5.01433e-05
4.22094e-06
6.64332e-05
-1.48664e-05
8.53806e-05
-3.50089e-05
0.00010717
-5.58671e-05
0.000131989
-7.70687e-05
0.000160005
-9.81885e-05
0.00019133
-0.000118739
0.000225988
-0.000138168
0.000263863
-0.000155845
-0.000171114
0.00030467
-3.55324e-07
2.12967e-05
-3.41334e-07
4.8237e-05
7.33853e-07
6.3663e-05
3.3289e-06
7.02336e-05
7.74989e-06
6.99067e-05
1.41968e-05
6.41812e-05
2.27985e-05
5.41989e-05
3.36404e-05
4.08273e-05
4.67874e-05
2.47267e-05
6.23037e-05
6.40364e-06
8.027e-05
-1.37454e-05
0.000100798
-3.53946e-05
0.000124041
-5.82513e-05
0.000150192
-8.20185e-05
0.00017948
-0.000106357
0.000212141
-0.000130849
0.000248377
-0.000154976
0.000288303
-0.000178094
0.000331865
-0.000199407
-0.000218019
0.00037877
7.3047e-08
2.12236e-05
1.28362e-06
4.70265e-05
4.24412e-06
6.07025e-05
9.33893e-06
6.51388e-05
1.68038e-05
6.24419e-05
2.67695e-05
5.42155e-05
3.92949e-05
4.16736e-05
5.43921e-05
2.573e-05
7.20498e-05
7.06902e-06
9.22535e-05
-1.38e-05
0.000115007
-3.64989e-05
0.000140353
-6.07407e-05
0.000168392
-8.62908e-05
0.000199298
-0.000112924
0.000233314
-0.000140373
0.000270743
-0.000168278
0.000311898
-0.000196131
0.000357027
-0.000223223
0.000406191
-0.000248571
-0.000270944
0.000459116
5.66159e-07
2.06575e-05
3.13919e-06
4.44534e-05
8.23984e-06
5.56018e-05
1.61736e-05
5.7205e-05
2.71048e-05
5.15107e-05
4.10956e-05
4.02247e-05
5.81336e-05
2.46356e-05
7.81544e-05
5.70916e-06
0.000101061
-1.58374e-05
0.000126742
-3.94817e-05
0.000155098
-6.48546e-05
0.000186062
-9.17049e-05
0.000219634
-0.000119862
0.000255907
-0.000149196
0.000295092
-0.000179559
0.000337526
-0.000210711
0.000383635
-0.00024224
0.000433856
-0.000273444
0.000488447
-0.000303162
-0.000329711
0.000547213
1.12421e-06
1.95332e-05
5.2249e-06
4.03527e-05
1.27206e-05
4.81061e-05
2.38364e-05
4.60892e-05
3.86686e-05
3.66784e-05
5.72169e-05
2.16765e-05
7.94054e-05
2.44715e-06
0.000105099
-1.99841e-05
0.000134115
-4.48542e-05
0.000166243
-7.16093e-05
0.000201256
-9.98679e-05
0.000238944
-0.000129392
0.000279143
-0.000160062
0.000321789
-0.000191842
0.000366966
-0.000224735
0.000414954
-0.0002587
0.000466251
-0.000293537
0.000521521
-0.000328714
0.000581353
-0.000362994
-0.000394061
0.000645704
1.74341e-06
1.77898e-05
7.52671e-06
3.45694e-05
1.76578e-05
3.79751e-05
3.22827e-05
3.14643e-05
5.14375e-05
1.75235e-05
7.5072e-05
-1.95793e-06
0.000103063
-2.55436e-05
0.000135222
-5.21438e-05
0.000171304
-8.09361e-05
0.000211008
-0.000111313
0.00025399
-0.000142849
0.000299876
-0.000175279
0.000348299
-0.000208485
0.000398946
-0.000242489
0.000451636
-0.000277425
0.000506426
-0.000313489
0.000563718
-0.00035083
0.000624338
-0.000389333
0.000689349
-0.000428005
-0.000463775
0.000759062
2.41548e-06
1.53744e-05
1.00154e-05
2.69695e-05
2.29907e-05
2.49998e-05
4.14117e-05
1.30433e-05
6.52645e-05
-6.32936e-06
9.44657e-05
-3.11591e-05
0.000128869
-5.99467e-05
0.000168266
-9.15406e-05
0.000212383
-0.000125054
0.00026088
-0.000159809
0.000313336
-0.000195306
0.000369258
-0.000231201
0.000428081
-0.000267308
0.000489202
-0.00030361
0.000552047
-0.00034027
0.000616195
-0.000377638
0.000681593
-0.000416227
0.000748844
-0.000456585
0.000819405
-0.000498566
-0.000539754
0.000895384
3.12786e-06
1.22465e-05
1.26469e-05
1.74505e-05
2.86267e-05
9.01999e-06
5.1065e-05
-9.39494e-06
7.99075e-05
-3.51718e-05
0.000115055
-6.63062e-05
0.000156363
-0.000101255
0.000203642
-0.00013882
0.000256648
-0.00017806
0.000315073
-0.000218234
0.000378523
-0.000258756
0.000446503
-0.000299181
0.000518387
-0.000339192
0.000593395
-0.000378618
0.000670593
-0.000417467
0.000748945
-0.00045599
0.000827497
-0.000494779
0.000905818
-0.000534906
0.000985055
-0.000577802
-0.000627061
0.00107236
3.86468e-06
8.38183e-06
1.53658e-05
5.94941e-06
3.44476e-05
-1.00619e-05
6.10358e-05
-3.59831e-05
9.50402e-05
-6.91763e-05
0.000136356
-0.000107622
0.000184861
-0.00014976
0.000240417
-0.000194376
0.000302863
-0.000240506
0.000372009
-0.00028738
0.000447628
-0.000334375
0.000529438
-0.00038099
0.000617074
-0.000426828
0.000710052
-0.000471596
0.000807712
-0.000515127
0.000909173
-0.000557451
0.0010133
-0.000598902
0.00111854
-0.000640149
0.00122368
-0.000682948
-0.00072971
0.00132633
4.60852e-06
3.77331e-06
1.81107e-05
-7.55277e-06
4.03215e-05
-3.22727e-05
7.10895e-05
-6.67511e-05
0.000110285
-0.000108371
0.000157793
-0.00015513
0.000213516
-0.000205483
0.000277372
-0.000258232
0.0003493
-0.000312434
0.000429271
-0.000367352
0.000517306
-0.00042241
0.0006135
-0.000477184
0.000718077
-0.000531405
0.000831479
-0.000584998
0.000954523
-0.000638171
0.00108868
-0.000691611
0.00123659
-0.000746809
0.0014032
-0.000806755
0.00159836
-0.000878115
-0.000977699
0.00184635
5.34272e-06
-1.56941e-06
2.08219e-05
-2.3032e-05
4.61178e-05
-5.75686e-05
8.09914e-05
-0.000101625
0.000125258
-0.000152638
0.000178775
-0.000208647
0.000241441
-0.00026815
0.000313198
-0.000329988
0.000394037
-0.000393273
0.000484016
-0.000457332
0.000583288
-0.000521681
0.00069213
-0.000586026
0.000811
-0.000650276
0.000940608
-0.000714605
0.00108199
-0.000779554
0.00123658
-0.000846201
0.00140618
-0.000916407
0.00159269
-0.000993264
0.0017965
-0.00108193
-0.00119013
0.00200893
6.05339e-06
-7.6228e-06
2.34489e-05
-4.04275e-05
5.1725e-05
-8.58448e-05
9.05396e-05
-0.000140439
0.00013963
-0.000201728
0.000198795
-0.000267813
0.000267888
-0.000337243
0.000346814
-0.000408914
0.000435533
-0.000481992
0.000534073
-0.000555872
0.000642539
-0.000630147
0.000761127
-0.000704614
0.000890135
-0.000779284
0.00102996
-0.000854427
0.00118103
-0.000930631
0.00134373
-0.00100889
0.00151803
-0.00109071
0.00170299
-0.00117822
0.00189534
-0.00127429
-0.00138184
0.00208706
6.73115e-06
-1.4354e-05
2.59552e-05
-5.96515e-05
5.70613e-05
-0.000116951
9.9586e-05
-0.000182964
0.000153163
-0.000255305
0.000217496
-0.000332146
0.000292348
-0.000412094
0.000377526
-0.000494092
0.000472883
-0.000577349
0.000578313
-0.000661301
0.000693743
-0.000745577
0.000819128
-0.000829999
0.000954419
-0.000914576
0.00109952
-0.000999524
0.00125417
-0.00108528
0.0014178
-0.00117253
0.00158927
-0.00126218
0.00176646
-0.00135541
0.00194572
-0.00145355
-0.00155765
0.00212153
7.37139e-06
-2.17253e-05
2.83203e-05
-8.06004e-05
6.20782e-05
-0.000150709
0.000108042
-0.000228928
0.000165717
-0.000312979
0.000234681
-0.00040111
0.000314563
-0.000491977
0.000405031
-0.000584559
0.000505772
-0.00067809
0.000616484
-0.000772014
0.000736861
-0.000865954
0.000866561
-0.000959699
0.00100517
-0.00105319
0.00115215
-0.0011465
0.00130672
-0.00123985
0.00146777
-0.00133358
0.00163369
-0.0014281
0.00180216
-0.00152388
0.00197005
-0.00162144
-0.001721
0.0021334
7.97368e-06
-2.9699e-05
3.0538e-05
-0.000103165
6.67575e-05
-0.000186928
0.000115874
-0.000278044
0.000177241
-0.000374346
0.000250286
-0.000474155
0.000334479
-0.00057617
0.000429314
-0.000679395
0.000534289
-0.000783065
0.000648887
-0.000886611
0.000772554
-0.000989622
0.000904675
-0.00109182
0.00104453
-0.00119304
0.00119125
-0.00129322
0.00134377
-0.00139237
0.00150071
-0.00149052
0.00166036
-0.00158775
0.0018206
-0.00168412
0.00197884
-0.00177967
-0.00187427
0.00213211
8.54049e-06
-3.82395e-05
3.26119e-05
-0.000127236
7.11019e-05
-0.000225418
0.000123083
-0.000330025
0.000187742
-0.000439006
0.000264337
-0.00055075
0.000352164
-0.000663997
0.00045053
-0.000777761
0.000558735
-0.000891271
0.000676053
-0.00100393
0.000801706
-0.00111528
0.00093485
-0.00122496
0.00107454
-0.00133273
0.00121971
-0.00143839
0.00136911
-0.00154177
0.00152133
-0.00164274
0.00167471
-0.00174113
0.00182737
-0.00183678
0.00197719
-0.00192949
-0.00201892
0.00212184
9.07557e-06
-4.73151e-05
3.45504e-05
-0.000152711
7.51254e-05
-0.000265993
0.000129692
-0.000384592
0.000197258
-0.000506572
0.000276903
-0.000630394
0.000367738
-0.000754832
0.000468886
-0.000878908
0.000579454
-0.00100184
0.000698523
-0.001123
0.000825129
-0.00124188
0.000958247
-0.00135808
0.00109678
-0.00147126
0.00123953
-0.00158114
0.00138521
-0.00168746
0.00153242
-0.00178994
0.00167962
-0.00188834
0.00182518
-0.00198234
0.00196734
-0.00207165
-0.00215581
0.00210423
9.5825e-06
-5.68976e-05
3.63626e-05
-0.000179491
7.8843e-05
-0.000308474
0.000135724
-0.000441473
0.000205829
-0.000576676
0.000288049
-0.000712615
0.000381315
-0.000848098
0.000484566
-0.000982158
0.000596732
-0.00111401
0.000716726
-0.00124299
0.000843426
-0.00136858
0.000975677
-0.00149033
0.00111228
-0.00160786
0.00125198
-0.00172084
0.00139348
-0.00182896
0.00153545
-0.00193191
0.00167649
-0.00202938
0.00181519
-0.00212103
0.00195007
-0.00220654
-0.00228536
0.00207962
1.00636e-05
-6.69612e-05
3.80537e-05
-0.000207481
8.22638e-05
-0.000352684
0.000141195
-0.000500405
0.000213479
-0.000648959
0.00029782
-0.000796957
0.000392968
-0.000943247
0.00049769
-0.00108688
0.000610755
-0.00122707
0.000730929
-0.00136316
0.000856968
-0.00149462
0.000987618
-0.00162098
0.00112162
-0.00174186
0.0012577
-0.00185692
0.0013946
-0.00196586
0.00153105
-0.00206836
0.00166581
-0.00216414
0.00179766
-0.00225288
0.00192538
-0.00233425
-0.00240772
0.00204773
1.05192e-05
-7.74804e-05
3.96238e-05
-0.000236586
8.53861e-05
-0.000398446
0.000146102
-0.00056112
0.000220206
-0.000723063
0.000306219
-0.00088297
0.000402715
-0.00103974
0.000508299
-0.00119246
0.000621596
-0.00134037
0.000741248
-0.00148282
0.000865915
-0.00161929
0.000994276
-0.00174934
0.00112504
-0.00187263
0.00125694
-0.00198883
0.00138878
-0.00209769
0.00151937
-0.00219896
0.00164762
-0.00229239
0.00177248
-0.00237774
0.00189294
-0.00245471
-0.00252283
0.00200805
1.09477e-05
-8.84282e-05
4.10661e-05
-0.000266704
8.81961e-05
-0.000445576
0.000150421
-0.000623346
0.00022598
-0.000798622
0.00031321
-0.0009702
0.000410518
-0.00113705
0.000516359
-0.0012983
0.000629231
-0.00145324
0.000747674
-0.00160126
0.000870273
-0.00174189
0.000995668
-0.00187474
0.00112256
-0.00199952
0.00124972
-0.00211599
0.001376
-0.00222397
0.00150033
-0.00232329
0.00162174
-0.00241381
0.00173936
-0.00249536
0.00185237
-0.00256773
-0.00263051
0.00196005
1.13454e-05
-9.97735e-05
4.23682e-05
-0.000297727
9.06684e-05
-0.000493876
0.000154114
-0.000686791
0.000230746
-0.000875254
0.000318724
-0.00105818
0.000416296
-0.00123462
0.000521781
-0.00140379
0.000633567
-0.00156503
0.000750111
-0.00171781
0.00086995
-0.00186173
0.000991702
-0.00199649
0.00111408
-0.0021219
0.00123591
-0.00223782
0.00135612
-0.00234417
0.00147374
-0.00244092
0.00158795
-0.00252801
0.00169802
-0.00260542
0.00180332
-0.00267303
-0.00273053
0.00190334
1.17068e-05
-0.00011148
4.35122e-05
-0.000329532
9.27684e-05
-0.000543132
0.000157125
-0.000751148
0.000234428
-0.000952557
0.000322665
-0.00114642
0.000419936
-0.00133189
0.00052444
-0.00150829
0.00063447
-0.00167506
0.000748424
-0.00183176
0.000864806
-0.00197811
0.000982238
-0.00211392
0.00109947
-0.00223913
0.00121538
-0.00235373
0.00132899
-0.00245778
0.00143946
-0.00255138
0.00154607
-0.00263463
0.00164827
-0.00270762
0.00174559
-0.00277035
-0.00282263
0.00183769
1.20254e-05
-0.000123506
4.4477e-05
-0.000361984
9.44547e-05
-0.00059311
0.00015939
-0.000816084
0.000236939
-0.00103011
0.000324926
-0.0012344
0.000421314
-0.00142828
0.000524196
-0.00161118
0.000631794
-0.00178265
0.000742462
-0.00194243
0.000854696
-0.00209034
0.00096714
-0.00222637
0.00107859
-0.00235058
0.00118802
-0.00246315
0.00129452
-0.00256429
0.00139739
-0.00265425
0.00149604
-0.00273329
0.00159006
-0.00280163
0.00167913
-0.00285942
-0.00290659
0.00176309
1.22941e-05
-0.0001358
4.52393e-05
-0.000394929
9.5683e-05
-0.000643554
0.000160842
-0.000881243
0.000238188
-0.00110745
0.000325393
-0.00132161
0.0004203
-0.00152319
0.000520913
-0.00171179
0.000625399
-0.00188714
0.000732093
-0.00204912
0.000839502
-0.00219775
0.00094631
-0.00233318
0.00105139
-0.00245566
0.00115377
-0.00256554
0.0012527
-0.00266322
0.00134757
-0.00274911
0.00143792
-0.00282364
0.00152347
-0.00288718
0.00160407
-0.00294002
-0.00298221
0.00167969
1.25055e-05
-0.000148305
4.57753e-05
-0.000428199
9.64084e-05
-0.000694187
0.000161413
-0.000946247
0.000238087
-0.00118413
0.000323963
-0.00140748
0.000416779
-0.001616
0.000514472
-0.00180948
0.000615175
-0.00198784
0.000717222
-0.00215117
0.000819152
-0.00229968
0.000919709
-0.00243373
0.00101784
-0.00255379
0.0011127
-0.0026604
0.00120362
-0.00275414
0.00129012
-0.00283561
0.00137189
-0.00290541
0.00144876
-0.00296405
0.0015207
-0.00301196
-0.00304935
0.00158784
1.26521e-05
-0.000160957
4.6062e-05
-0.000461609
9.65881e-05
-0.000744713
0.00016104
-0.0010107
0.000236556
-0.00125964
0.000320544
-0.00149147
0.000410658
-0.00170612
0.000504786
-0.00190361
0.00060105
-0.00208411
0.000697804
-0.00224792
0.000793638
-0.00239551
0.000887372
-0.00252747
0.000978051
-0.00264447
0.00106493
-0.00274728
0.00114747
-0.00283668
0.00122532
-0.00291346
0.00129827
-0.00297836
0.00136629
-0.00303207
0.00142947
-0.00307514
-0.0031079
0.00148802
1.27272e-05
-0.000173685
4.60783e-05
-0.00049496
9.61839e-05
-0.000794819
0.000159669
-0.00107418
0.000233529
-0.0013335
0.000315066
-0.00157301
0.000401871
-0.00179292
0.000491805
-0.00199354
0.000582999
-0.0021753
0.00067385
-0.00233877
0.000763016
-0.00248468
0.000849409
-0.00261386
0.00093218
-0.00272724
0.0010107
-0.0028258
0.00108456
-0.00291054
0.00115351
-0.00298241
0.00121749
-0.00304233
0.00127655
-0.00309114
0.0013309
-0.00312949
-0.00315785
0.00138085
1.27244e-05
-0.000186409
4.58056e-05
-0.000528041
9.51635e-05
-0.000844177
0.000157257
-0.00113628
0.000228956
-0.0014052
0.000307483
-0.00165153
0.000390384
-0.00187582
0.000475518
-0.00207868
0.000561048
-0.00226083
0.000645431
-0.00242316
0.000727412
-0.00256666
0.000806007
-0.00269246
0.000880484
-0.00280172
0.000950338
-0.00289566
0.00101527
-0.00297547
0.00107517
-0.00304231
0.00113007
-0.00309723
0.00118014
-0.0031412
0.00122565
-0.00317501
-0.00319921
0.00126701
1.26413e-05
-0.00019905
4.52336e-05
-0.000560633
9.35086e-05
-0.000892451
0.000153781
-0.00119655
0.000222819
-0.00147424
0.000297786
-0.0017265
0.000376212
-0.00195425
0.000455974
-0.00215844
0.000535288
-0.00234014
0.000612692
-0.00250056
0.000687032
-0.002641
0.000757438
-0.00276286
0.000823301
-0.00286758
0.000884243
-0.0029566
0.000940088
-0.00303132
0.00099083
-0.00309305
0.00103661
-0.00314301
0.00107769
-0.00318228
0.00111442
-0.00321174
-0.00323206
0.00114727
1.24687e-05
-0.000211519
4.43415e-05
-0.000592506
9.11888e-05
-0.000939299
0.000149207
-0.00125457
0.000215088
-0.00154012
0.000285963
-0.00179738
0.000359368
-0.00202765
0.000433225
-0.0022323
0.000505822
-0.00241274
0.000575794
-0.00257053
0.000642102
-0.00270731
0.000703997
-0.00282476
0.000760999
-0.00292458
0.000812855
-0.00300846
0.000859505
-0.00307797
0.000901053
-0.0031346
0.000937734
-0.00317969
0.000969887
-0.00321443
0.000997932
-0.00323979
-0.00325649
0.00102237
1.22059e-05
-0.000223725
4.31264e-05
-0.000623427
8.82016e-05
-0.000984374
0.000143539
-0.00130991
0.000205783
-0.00160236
0.000272059
-0.00186365
0.000339936
-0.00209553
0.000407402
-0.00229976
0.000472837
-0.00247818
0.000534988
-0.00263268
0.000592939
-0.00276526
0.000646072
-0.00287789
0.000694034
-0.00297255
0.000736694
-0.00305112
0.000774108
-0.00311538
0.000806478
-0.00316697
0.000834125
-0.00320734
0.000857454
-0.00323776
0.000876941
-0.00325927
-0.00327267
0.000893117
1.18507e-05
-0.000235576
4.15845e-05
-0.000653161
8.45464e-05
-0.00102734
0.000136786
-0.00136215
0.000194933
-0.00166051
0.000256135
-0.00192485
0.000318019
-0.00215742
0.00037866
-0.0023604
0.000436548
-0.00253606
0.000490554
-0.00268669
0.000539893
-0.0028146
0.00058408
-0.00292208
0.000622889
-0.00301135
0.000656308
-0.00308453
0.000684498
-0.00314357
0.000707755
-0.00319023
0.000726473
-0.00322606
0.000741118
-0.00325241
0.000752205
-0.00327036
-0.00328075
0.000760287
1.14022e-05
-0.000246978
3.97162e-05
-0.000681475
8.02304e-05
-0.00106785
0.000128973
-0.00141089
0.000182589
-0.00171413
0.000238277
-0.00198054
0.00029375
-0.00221289
0.000347188
-0.00241384
0.000397206
-0.00258608
0.00044281
-0.00273229
0.00048335
-0.00285514
0.000518473
-0.0029572
0.000548078
-0.00304096
0.000572266
-0.00310872
0.000591295
-0.0031626
0.000605544
-0.00320447
0.000615473
-0.00323599
0.000621597
-0.00325853
0.000624464
-0.00327323
-0.00328092
0.000624638
1.08605e-05
-0.000257838
3.75255e-05
-0.000708139
7.52689e-05
-0.00110559
0.000120134
-0.00145575
0.000168816
-0.00176281
0.000218593
-0.00203032
0.000267286
-0.00226158
0.000313201
-0.00245976
0.000355091
-0.00262797
0.000392101
-0.00276931
0.00042372
-0.00288676
0.000449726
-0.00298321
0.000470135
-0.00306137
0.000485152
-0.00312374
0.000495125
-0.00317257
0.000500505
-0.00320985
0.000501811
-0.00323729
0.000499598
-0.00325632
0.000494436
-0.00326806
-0.00327339
0.000486898
1.02268e-05
-0.000268065
3.50202e-05
-0.000732933
6.96842e-05
-0.00114026
0.000110317
-0.00149639
0.000153695
-0.00180618
0.000197208
-0.00207383
0.000238805
-0.00230318
0.000276937
-0.00249789
0.000310502
-0.00266154
0.000338793
-0.0027976
0.000361434
-0.0029094
0.000378327
-0.0030001
0.0003896
-0.00307264
0.000395552
-0.00312969
0.000396611
-0.00317363
0.000393291
-0.00320654
0.000386159
-0.00323016
0.000375803
-0.00324596
0.000362813
-0.00325507
-0.00325834
0.000347764
9.50311e-06
-0.000277568
3.22116e-05
-0.000755641
6.35052e-05
-0.00117155
9.95765e-05
-0.00153246
0.000137319
-0.00184393
0.000174262
-0.00211078
0.000208502
-0.00233742
0.000238649
-0.00252804
0.000263757
-0.00268665
0.000283264
-0.0028171
0.000296928
-0.00292306
0.00030477
-0.00300794
0.000307016
-0.00307489
0.000304051
-0.00312673
0.000296369
-0.00316595
0.000284539
-0.00319471
0.000269168
-0.00321479
0.000250872
-0.00322767
0.000230257
-0.00323446
-0.00323598
0.000207896
8.69268e-06
-0.000286261
2.91136e-05
-0.000776062
5.67663e-05
-0.0011992
8.79781e-05
-0.00156367
0.000119794
-0.00187574
0.000149906
-0.00214089
0.000176583
-0.00236409
0.000198601
-0.00255005
0.000215178
-0.00270322
0.000225895
-0.00282782
0.000230641
-0.00292781
0.000229543
-0.00300685
0.000222918
-0.00306826
0.000211219
-0.00311503
0.000194998
-0.00314973
0.000174867
-0.00317457
0.000151467
-0.00319139
0.000125437
-0.00320164
9.73969e-05
-0.00320642
-0.0032065
6.79219e-05
7.79938e-06
-0.00029406
2.57431e-05
-0.000794006
4.95065e-05
-0.00122297
7.55925e-05
-0.00158976
0.00010123
-0.00190138
0.000124299
-0.00216396
0.000143257
-0.00238305
0.000157059
-0.00256386
0.000165086
-0.00271125
0.000167064
-0.0028298
0.000163002
-0.00292375
0.000153125
-0.00299697
0.000137824
-0.00305296
0.000117611
-0.00309481
9.30793e-05
-0.0031252
6.48738e-05
-0.00314637
3.36611e-05
-0.00316018
1.03043e-07
-0.00316808
-3.51655e-05
-0.00317115
-0.0031701
-7.15636e-05
6.82785e-06
-0.000300888
2.21189e-05
-0.000809297
4.17689e-05
-0.00124262
6.24959e-05
-0.00161048
8.17437e-05
-0.00192063
9.76046e-05
-0.00217982
0.000108738
-0.00239419
0.000114288
-0.00256941
0.000113799
-0.00271076
0.000107138
-0.00282314
9.44259e-05
-0.00291103
7.59738e-05
-0.00297852
5.22335e-05
-0.00302922
2.37578e-05
-0.00306634
-8.83125e-06
-0.00309261
-4.48683e-05
-0.00311033
-8.36681e-05
-0.00312138
-0.000124549
-0.0031272
-0.000166857
-0.00312884
-0.00312696
-0.000209995
5.78337e-06
-0.000306671
1.82619e-05
-0.000821776
3.35997e-05
-0.00125795
4.87681e-05
-0.00162565
6.14554e-05
-0.00193332
6.99867e-05
-0.00218835
7.32375e-05
-0.00239744
7.05444e-05
-0.00256671
6.16181e-05
-0.00270183
4.64619e-05
-0.00280798
2.52999e-05
-0.00288987
-1.48357e-06
-0.00295173
-3.33902e-05
-0.00299731
-6.98425e-05
-0.00302989
-0.000110207
-0.00305224
-0.000153813
-0.00306673
-0.000199965
-0.00307522
-0.000247964
-0.0030792
-0.000297129
-0.00307968
-0.00307726
-0.000346832
4.67185e-06
-0.000311343
1.4195e-05
-0.000831299
2.50478e-05
-0.00126881
3.44919e-05
-0.0016351
4.04868e-05
-0.00193931
4.16086e-05
-0.00218947
3.69596e-05
-0.00239279
2.6074e-05
-0.00255583
8.82804e-06
-0.00268459
-1.46439e-05
-0.00278451
-4.40219e-05
-0.00286049
-7.88589e-05
-0.0029169
-0.000118625
-0.00295755
-0.000162734
-0.00298578
-0.000210562
-0.00300442
-0.000261448
-0.00301584
-0.000314702
-0.00302197
-0.000369613
-0.00302429
-0.000425461
-0.00302383
-0.00302116
-0.000481567
3.49977e-06
-0.000314843
9.94226e-06
-0.000837741
1.61648e-05
-0.00127503
1.97526e-05
-0.00163868
1.89608e-05
-0.00193852
1.26319e-05
-0.00218314
1.0294e-07
-0.00238026
-1.88912e-05
-0.00253683
-4.43102e-05
-0.00265917
-7.58924e-05
-0.00275293
-0.000113228
-0.00282316
-0.000155816
-0.00287431
-0.000203106
-0.00291026
-0.00025452
-0.00293436
-0.000309461
-0.00294947
-0.000367305
-0.002958
-0.000427388
-0.00296189
-0.000488994
-0.00296268
-0.00055136
-0.00296146
-0.0029588
-0.000613719
2.27423e-06
-0.000317117
5.52987e-06
-0.000840997
7.00466e-06
-0.0012765
4.63821e-06
-0.00163632
-2.99828e-06
-0.00193088
-1.67836e-05
-0.00216936
-3.71407e-05
-0.0023599
-6.41333e-05
-0.00250984
-9.75588e-05
-0.00262574
-0.000137032
-0.00271345
-0.000182056
-0.00277813
-0.000232081
-0.00282428
-0.000286543
-0.0028558
-0.000344883
-0.00287602
-0.000406551
-0.00288781
-0.000470987
-0.00289356
-0.000537583
-0.00289529
-0.00060565
-0.00289461
-0.000674376
-0.00289274
-0.00289031
-0.000742862
1.00303e-06
-0.00031812
9.85718e-07
-0.00084098
-2.37566e-06
-0.00127314
-1.07602e-05
-0.00162793
-2.52637e-05
-0.00191638
-4.64779e-05
-0.00214814
-7.45833e-05
-0.0023318
-0.000109444
-0.00247498
-0.0001507
-0.00258449
-0.000197844
-0.00266631
-0.000250295
-0.00272568
-0.000307453
-0.00276712
-0.000368739
-0.00279451
-0.000433617
-0.00281114
-0.000501596
-0.00281983
-0.000572207
-0.00282295
-0.000644946
-0.00282255
-0.000719201
-0.00282036
-0.000794141
-0.0028178
-0.00281579
-0.000868656
-3.05325e-07
-0.000317815
-3.66024e-06
-0.000837625
-1.19159e-05
-0.00126489
-2.63474e-05
-0.0016135
-4.77045e-05
-0.00189502
-7.62874e-05
-0.00211956
-0.000112036
-0.00229605
-0.000154619
-0.0024324
-0.000203525
-0.00253558
-0.000258131
-0.0026117
-0.000317774
-0.00266604
-0.000381798
-0.0027031
-0.000449601
-0.00272671
-0.000520659
-0.00274009
-0.000594536
-0.00274595
-0.000670868
-0.00274662
-0.000749308
-0.00274411
-0.000829415
-0.00274025
-0.000910425
-0.00273679
-0.00273528
-0.000990939
-1.64152e-06
-0.000316174
-8.37591e-06
-0.00083089
-2.15524e-05
-0.00125171
-4.20233e-05
-0.00159303
-7.01838e-05
-0.00186686
-0.000106042
-0.0020837
-0.0001493
-0.00225279
-0.000199445
-0.00238225
-0.00025582
-0.00247921
-0.000317698
-0.00254983
-0.000384337
-0.0025994
-0.000455025
-0.00263241
-0.000529123
-0.00265261
-0.000606094
-0.00266312
-0.000685526
-0.00266652
-0.000767141
-0.002665
-0.000850776
-0.00266048
-0.000936283
-0.00265475
-0.00102318
-0.00264989
-0.00264845
-0.00111001
-2.99557e-06
-0.000313178
-1.31272e-05
-0.000820759
-3.12177e-05
-0.00123362
-5.76828e-05
-0.00156656
-9.25576e-05
-0.00183199
-0.00013556
-0.0020407
-0.000186165
-0.00220218
-0.000243686
-0.00232473
-0.000307341
-0.00241555
-0.000376312
-0.00248085
-0.000449794
-0.00252592
-0.000527027
-0.00255518
-0.000607331
-0.00257231
-0.000690131
-0.00258032
-0.000774987
-0.00258166
-0.000861632
-0.00257836
-0.000950026
-0.00257208
-0.00104039
-0.00256438
-0.00113293
-0.00255736
-0.00255378
-0.0012276
-4.35691e-06
-0.000308821
-1.78784e-05
-0.000807237
-4.08423e-05
-0.00121066
-7.32171e-05
-0.00153419
-0.000114676
-0.00179053
-0.000164651
-0.00199073
-0.000222401
-0.00214443
-0.000287079
-0.00226005
-0.000357796
-0.00234483
-0.000433666
-0.00240498
-0.000513849
-0.00244574
-0.000597569
-0.00247146
-0.000684139
-0.00248574
-0.000772974
-0.00249148
-0.000863608
-0.00249103
-0.000955737
-0.00248623
-0.00104932
-0.0024785
-0.00114485
-0.00246885