1.45 	0 	0 	-0.297445
2.35 	0 	0 	-0.131795
