/*--------------------------------*- C++ -*----------------------------------*\
  =========                 |
  \\      /  F ield         | OpenFOAM: The Open Source CFD Toolbox
   \\    /   O peration     | Website:  https://openfoam.org
    \\  /    A nd           | Version:  6.0
     \\/     M anipulation  |
\*---------------------------------------------------------------------------*/
FoamFile
{
    version     2.0;
    format      ascii;
    class       surfaceScalarField;
    location    "3.4";
    object      phi;
}
// * * * * * * * * * * * * * * * * * * * * * * * * * * * * * * * * * * * * * //

dimensions      [0 3 -1 0 0 0 0];

internalField   nonuniform List<scalar> 
68636
(
3.02287e-05
0.00310561
2.37951e-09
6.08433e-05
0.00307074
9.10919e-05
0.00300254
0.00012048
0.0029015
0.000148623
0.00276866
0.000175172
0.00260548
0.000199815
0.00241375
0.000222266
0.0021956
0.00024227
0.00195344
0.000259597
0.00168993
0.000274052
0.00140799
0.000285471
0.00111066
0.000293732
0.000801278
0.000298726
0.000482999
0.000158088
0.000299808
2.99505e-05
0.00307565
5.84723e-09
6.02868e-05
0.00304041
9.02603e-05
0.00297257
0.000119381
0.00287238
0.000147267
0.00274078
0.000173574
0.00257918
0.000197992
0.00238934
0.000220238
0.00217337
0.00024006
0.00193363
0.000257229
0.00167278
0.000271553
0.00139368
0.000282867
0.00109937
0.000291066
0.000793101
0.000295953
0.000478143
0.000156976
0.000297118
2.96744e-05
0.00304597
9.37633e-09
5.97348e-05
0.00301035
8.9436e-05
0.00294287
0.000118292
0.00284353
0.000145925
0.00271315
0.000171992
0.00255311
0.000196189
0.00236515
0.000218233
0.00215132
0.000237873
0.00191399
0.000254886
0.00165576
0.00026908
0.00137948
0.00028029
0.00108815
0.000288415
0.000784972
0.000293297
0.000473255
0.00015563
0.000294622
2.94007e-05
0.00301655
1.29411e-08
5.9188e-05
0.00298056
8.86194e-05
0.00291344
0.000117214
0.00281493
0.000144595
0.00268577
0.000170426
0.00252729
0.000194402
0.00234118
0.000216246
0.00212949
0.000235707
0.00189454
0.000252565
0.00163891
0.000266629
0.00136543
0.000277735
0.00107706
0.000285781
0.000776942
0.000290641
0.000468418
0.000154266
0.000292043
2.91296e-05
0.00298741
1.65939e-08
5.86463e-05
0.00295105
8.78103e-05
0.00288427
0.000116145
0.0027866
0.000143278
0.00265864
0.000168873
0.00250169
0.000192631
0.00231742
0.000214276
0.00210784
0.00023356
0.00187525
0.000250264
0.00162221
0.0002642
0.00135149
0.000275203
0.00106605
0.000283169
0.00076897
0.000287987
0.000463592
0.000152799
0.00028943
2.88609e-05
0.00295853
2.04682e-08
5.81093e-05
0.0029218
8.70085e-05
0.00285537
0.000115085
0.00275852
0.000141971
0.00263176
0.000167334
0.00247633
0.000190876
0.00229389
0.000212324
0.0020864
0.000231432
0.00185615
0.000247983
0.00160566
0.000261792
0.00133769
0.000272696
0.00105516
0.000280583
0.000761096
0.000285354
0.00045884
0.00015136
0.000286824
2.85945e-05
0.00292991
2.45149e-08
5.75772e-05
0.00289282
8.62138e-05
0.00282674
0.000114036
0.0027307
0.000140677
0.00260511
0.000165809
0.0024512
0.000189137
0.00227056
0.000210389
0.00206514
0.000229323
0.00183721
0.000245724
0.00158926
0.000259407
0.00132401
0.000270211
0.00104435
0.000278022
0.000753279
0.000282748
0.000454105
0.00014985
0.000284233
2.83305e-05
0.00290155
2.87887e-08
5.70498e-05
0.0028641
8.54262e-05
0.00279836
0.000112995
0.00270313
0.000139395
0.00257872
0.000164298
0.0024263
0.000187413
0.00224745
0.000208472
0.00204409
0.000227234
0.00181846
0.000243485
0.00157302
0.000257043
0.00131045
0.00026775
0.00103365
0.000275487
0.000745553
0.000280168
0.000449441
0.000148382
0.000281662
2.80687e-05
0.00287345
3.32683e-08
5.65271e-05
0.00283564
8.46456e-05
0.00277024
0.000111964
0.00267582
0.000138123
0.00255256
0.000162801
0.00240162
0.000185706
0.00222454
0.000206573
0.00202322
0.000225164
0.00179986
0.000241266
0.00155691
0.000254701
0.00129702
0.000265311
0.00102304
0.000272975
0.000737882
0.000277613
0.000444794
0.000146857
0.000279114
2.78092e-05
0.0028456
3.78805e-08
5.6009e-05
0.00280744
8.38721e-05
0.00274238
0.000110942
0.00264875
0.000136864
0.00252664
0.000161317
0.00237717
0.000184013
0.00220185
0.000204691
0.00200255
0.000223112
0.00178145
0.000239068
0.00154096
0.000252379
0.00128371
0.000262894
0.00101253
0.000270488
0.000730298
0.000275084
0.000440213
0.000145377
0.000276587
2.7552e-05
0.002818
4.2601e-08
5.54956e-05
0.00277949
8.31054e-05
0.00271477
0.00010993
0.00262192
0.000135616
0.00250095
0.000159846
0.00235294
0.000182336
0.00217935
0.000202825
0.00198206
0.000221079
0.00176319
0.000236889
0.00152515
0.00025008
0.00127052
0.000260498
0.00100211
0.000268023
0.000722766
0.000272578
0.000435649
0.000143851
0.000274079
2.7297e-05
0.00279066
4.73581e-08
5.49867e-05
0.00275181
8.23455e-05
0.00268741
0.000108926
0.00259534
0.000134379
0.0024755
0.000158389
0.00232893
0.000180675
0.00215707
0.000200977
0.00196176
0.000219065
0.00174511
0.000234731
0.00150948
0.000247801
0.00125745
0.000258125
0.000991791
0.000265582
0.000715318
0.000270095
0.00043115
0.000142377
0.00027159
2.70443e-05
0.00276356
5.20771e-08
5.44823e-05
0.00272437
8.15925e-05
0.0026603
0.000107931
0.002569
0.000133153
0.00245028
0.000156945
0.00230514
0.000179028
0.00213499
0.000199146
0.00194164
0.000217068
0.00172718
0.000232592
0.00149396
0.000245543
0.0012445
0.000255773
0.000981555
0.000263163
0.000707922
0.000267635
0.000426668
0.000140867
0.000269121
2.67938e-05
0.00273671
5.67157e-08
5.39825e-05
0.00269718
8.08462e-05
0.00263344
0.000106946
0.0025429
0.000131938
0.00242529
0.000155514
0.00228156
0.000177396
0.00211311
0.000197331
0.0019217
0.00021509
0.00170943
0.000230472
0.00147858
0.000243305
0.00123167
0.000253443
0.000971424
0.000260766
0.000700607
0.000265198
0.000422249
0.000139412
0.000266674
2.65456e-05
0.00271011
6.12151e-08
5.34871e-05
0.00267024
8.01066e-05
0.00260682
0.000105969
0.00251704
0.000130734
0.00240052
0.000154095
0.0022582
0.000175779
0.00209142
0.000195532
0.00190195
0.00021313
0.00169183
0.000228372
0.00146333
0.000241088
0.00121895
0.000251134
0.000961374
0.000258391
0.000693343
0.000262783
0.000417846
0.000137922
0.000264249
2.62995e-05
0.00268374
6.55383e-08
5.29962e-05
0.00264354
7.93737e-05
0.00258044
0.000105001
0.00249142
0.000129541
0.00237598
0.00015269
0.00223505
0.000174176
0.00206994
0.00019375
0.00188238
0.000211187
0.00167439
0.000226291
0.00144824
0.000238891
0.00120636
0.000248845
0.000951425
0.000256037
0.000686159
0.00026039
0.000413505
0.000136485
0.000261847
2.60557e-05
0.00265762
6.96601e-08
5.25097e-05
0.00261709
7.86474e-05
0.00255431
0.000104042
0.00246602
0.000128359
0.00235167
0.000151297
0.00221211
0.000172588
0.00204865
0.000191983
0.00186298
0.000209262
0.00165711
0.000224229
0.00143327
0.000236713
0.00119387
0.000246578
0.000941556
0.000253705
0.000679025
0.00025802
0.00040918
0.000135014
0.000259468
2.58142e-05
0.00263173
7.35596e-08
5.20276e-05
0.00259087
7.79276e-05
0.00252841
0.000103091
0.00244086
0.000127187
0.00232757
0.000149917
0.00218939
0.000171014
0.00202755
0.000190233
0.00184376
0.000207355
0.00163999
0.000222185
0.00141844
0.000234556
0.0011815
0.000244331
0.000931788
0.000251394
0.00067197
0.000255671
0.000404914
0.000133593
0.00025711
2.55748e-05
0.00260608
7.72286e-08
5.15498e-05
0.0025649
7.72144e-05
0.00250274
0.000102149
0.00241592
0.000126026
0.00230369
0.000148549
0.00216686
0.000169454
0.00200665
0.000188498
0.00182472
0.000205464
0.00162302
0.00022016
0.00140374
0.000232419
0.00116924
0.000242104
0.000922097
0.000249104
0.000664964
0.000253343
0.000400665
0.00013214
0.000254774
2.53376e-05
0.00258066
8.06719e-08
5.10764e-05
0.00253916
7.65076e-05
0.00247731
0.000101216
0.00239121
0.000124875
0.00228004
0.000147194
0.00214454
0.000167909
0.00198593
0.00018678
0.00180585
0.000203591
0.00160621
0.000218153
0.00138918
0.000230301
0.0011571
0.000239898
0.000912505
0.000246835
0.000658035
0.000251036
0.000396474
0.000130738
0.000252457
2.51027e-05
0.00255547
8.39031e-08
5.06073e-05
0.00251366
7.58071e-05
0.00245211
0.00010029
0.00236673
0.000123735
0.00225659
0.000145851
0.00212243
0.000166377
0.00196541
0.000185076
0.00178715
0.000201735
0.00158955
0.000216165
0.00137475
0.000228202
0.00114506
0.000237713
0.00090299
0.000244586
0.000651154
0.000248751
0.000392299
0.000129307
0.00025016
2.48699e-05
0.00253052
8.69521e-08
5.01424e-05
0.00248838
7.5113e-05
0.00242714
9.93737e-05
0.00234247
0.000122605
0.00223336
0.000144519
0.00210051
0.000164859
0.00194507
0.000183389
0.00176862
0.000199896
0.00157305
0.000214194
0.00136046
0.000226122
0.00113313
0.000235547
0.000893571
0.000242359
0.000644349
0.000246486
0.000388182
0.000127928
0.000247884
2.46393e-05
0.00250579
8.98576e-08
4.96818e-05
0.00246334
7.44253e-05
0.0024024
9.84653e-05
0.00231843
0.000121485
0.00221034
0.0001432
0.0020788
0.000163355
0.00192491
0.000181716
0.00175026
0.000198073
0.00155669
0.000212242
0.00134628
0.000224062
0.00112131
0.000233401
0.000884227
0.000240152
0.000637592
0.000244242
0.000384082
0.000126521
0.000245628
2.44108e-05
0.00248128
9.2668e-08
4.92254e-05
0.00243853
7.37437e-05
0.00237788
9.7565e-05
0.00229461
0.000120376
0.00218753
0.000141893
0.00205728
0.000161865
0.00190494
0.000180059
0.00173207
0.000196267
0.00154048
0.000210307
0.00133225
0.00022202
0.0011096
0.000231275
0.000874977
0.000237965
0.000630908
0.000242019
0.000380038
0.000125165
0.000243392
2.41845e-05
0.002457
9.5434e-08
4.87731e-05
0.00241394
7.30683e-05
0.00235358
9.66729e-05
0.002271
0.000119276
0.00216493
0.000140598
0.00203596
0.000160388
0.00188515
0.000178416
0.00171404
0.000194478
0.00152442
0.00020839
0.00131833
0.000219997
0.00109799
0.000229168
0.000865802
0.000235798
0.000624271
0.000239816
0.00037601
0.000123782
0.000241178
2.39602e-05
0.00243294
9.82064e-08
4.8325e-05
0.00238957
7.23991e-05
0.00232951
9.57889e-05
0.00224762
0.000118186
0.00214253
0.000139314
0.00201483
0.000158924
0.00186554
0.000176789
0.00169617
0.000192705
0.00150851
0.000206491
0.00130455
0.000217992
0.00108649
0.00022708
0.000856719
0.00023365
0.000617707
0.000237633
0.000372037
0.000122448
0.000238984
2.37381e-05
0.0024091
1.01027e-07
4.7881e-05
0.00236543
7.17359e-05
0.00230566
9.49128e-05
0.00222444
0.000117106
0.00212034
0.000138042
0.0019939
0.000157474
0.00184611
0.000175176
0.00167847
0.000190947
0.00149273
0.000204609
0.00129089
0.000216006
0.00107509
0.000225011
0.000847708
0.000231523
0.000611189
0.00023547
0.00036808
0.000121088
0.00023681
2.3518e-05
0.00238548
1.0393e-07
4.7441e-05
0.00234151
7.10787e-05
0.00228202
9.40447e-05
0.00220147
0.000116036
0.00209835
0.000136782
0.00197315
0.000156037
0.00182686
0.000173578
0.00166093
0.000189206
0.00147711
0.000202744
0.00127735
0.000214037
0.0010638
0.000222962
0.000838789
0.000229415
0.000604743
0.000233327
0.000364178
0.000119775
0.000234657
2.32999e-05
0.00236208
1.06932e-07
4.7005e-05
0.0023178
7.04275e-05
0.0022586
9.31845e-05
0.00217871
0.000114976
0.00207655
0.000135533
0.00195259
0.000154613
0.00180777
0.000171995
0.00164354
0.000187481
0.00146162
0.000200896
0.00126393
0.000212087
0.00105261
0.000220931
0.000829941
0.000227326
0.000598341
0.000231203
0.000360291
0.000118437
0.000232522
2.30838e-05
0.00233888
1.10036e-07
4.6573e-05
0.00229431
6.97822e-05
0.00223539
9.2332e-05
0.00215617
0.000113925
0.00205496
0.000134295
0.00193223
0.000153202
0.00178887
0.000170426
0.00162632
0.000185772
0.00144628
0.000199065
0.00125064
0.000210155
0.00104152
0.000218919
0.000821182
0.000225256
0.000592009
0.000229099
0.000356457
0.000117146
0.000230407
2.28697e-05
0.0023159
1.13227e-07
4.61449e-05
0.00227104
6.91427e-05
0.00221239
9.14873e-05
0.00213382
0.000112884
0.00203356
0.000133069
0.00191204
0.000151803
0.00177013
0.000168871
0.00160925
0.000184078
0.00143107
0.00019725
0.00123747
0.00020824
0.00103053
0.000216925
0.000812492
0.000223205
0.000585722
0.000227014
0.000352639
0.000115831
0.00022831
2.26576e-05
0.00229313
1.16482e-07
4.57207e-05
0.00224797
6.85091e-05
0.0021896
9.06502e-05
0.00211168
0.000111852
0.00201236
0.000131853
0.00189204
0.000150418
0.00175157
0.000167331
0.00159234
0.000182399
0.001416
0.000195452
0.00122442
0.000206343
0.00101964
0.000214949
0.000803891
0.000221173
0.000579504
0.000224948
0.000348873
0.000114562
0.000226233
2.24474e-05
0.00227056
1.19764e-07
4.53004e-05
0.00222512
6.78812e-05
0.00216702
8.98207e-05
0.00208974
0.00011083
0.00199135
0.000130649
0.00187222
0.000149045
0.00173317
0.000165804
0.00157558
0.000180736
0.00140107
0.000193671
0.00121148
0.000204463
0.00100884
0.000212992
0.000795357
0.00021916
0.000573329
0.000222901
0.000345122
0.00011327
0.000224175
2.22391e-05
0.0022482
1.23034e-07
4.48839e-05
0.00220248
6.72589e-05
0.00214465
8.89987e-05
0.002068
0.000109817
0.00197054
0.000129456
0.00185258
0.000147684
0.00171495
0.000164292
0.00155897
0.000179088
0.00138627
0.000191906
0.00119867
0.0002026
0.000998152
0.000211052
0.00078691
0.000217165
0.000567221
0.000220873
0.000341423
0.000112023
0.000222135
2.20327e-05
0.00222604
1.26251e-07
4.44711e-05
0.00218004
6.66424e-05
0.00212247
8.81842e-05
0.00204646
0.000108813
0.00194991
0.000128273
0.00183312
0.000146336
0.00169688
0.000162793
0.00154252
0.000177455
0.00137161
0.000190157
0.00118596
0.000200754
0.000987551
0.00020913
0.00077853
0.000215188
0.000561157
0.000218863
0.000337739
0.000110754
0.000220115
2.18282e-05
0.00220408
1.29379e-07
4.40621e-05
0.0021578
6.60314e-05
0.00210051
8.73771e-05
0.00202511
0.000107818
0.00192947
0.000127101
0.00181384
0.000145
0.00167898
0.000161308
0.00152621
0.000175837
0.00135708
0.000188424
0.00117338
0.000198926
0.000977052
0.000207226
0.000770235
0.000213229
0.000555158
0.000216872
0.000334105
0.000109528
0.000218113
2.16255e-05
0.00218232
1.32383e-07
4.36569e-05
0.00213577
6.5426e-05
0.00207874
8.65773e-05
0.00200396
0.000106832
0.00190921
0.00012594
0.00179473
0.000143677
0.00166125
0.000159836
0.00151005
0.000174234
0.00134268
0.000186707
0.0011609
0.000197114
0.000966641
0.000205339
0.000762005
0.000211289
0.000549202
0.000214898
0.000330486
0.000108281
0.000216129
2.14246e-05
0.00216076
1.35242e-07
4.32553e-05
0.00211394
6.4826e-05
0.00205717
8.57848e-05
0.001983
0.000105855
0.00188914
0.00012479
0.0017758
0.000142365
0.00164367
0.000158378
0.00149404
0.000172645
0.00132842
0.000185005
0.00114855
0.000195318
0.000956332
0.000203469
0.000753859
0.000209365
0.000543311
0.000212943
0.000326916
0.000107076
0.000214163
2.12256e-05
0.0021394
1.3794e-07
4.28573e-05
0.00209231
6.42316e-05
0.00203579
8.49995e-05
0.00196224
0.000104887
0.00186925
0.00012365
0.00175703
0.000141066
0.00162626
0.000156933
0.00147817
0.000171071
0.00131428
0.000183319
0.00113629
0.000193539
0.000946108
0.000201616
0.000745777
0.00020746
0.000537461
0.000211006
0.000323362
0.00010585
0.000212215
2.10284e-05
0.00211823
1.40476e-07
4.24629e-05
0.00207088
6.36425e-05
0.00201461
8.42213e-05
0.00194166
0.000103928
0.00184955
0.00012252
0.00173844
0.000139778
0.001609
0.000155502
0.00146245
0.000169511
0.00130027
0.000181649
0.00112416
0.000191776
0.000935984
0.000199781
0.000737777
0.000205572
0.000531675
0.000209086
0.000319855
0.000104667
0.000210284
2.0833e-05
0.00209725
1.42857e-07
4.20722e-05
0.00204964
6.30587e-05
0.00199362
8.34502e-05
0.00192126
0.000102978
0.00183002
0.000121401
0.00172002
0.000138502
0.0015919
0.000154083
0.00144686
0.000167966
0.00128638
0.000179993
0.00111213
0.000190029
0.000925944
0.000197962
0.00072984
0.000203701
0.00052593
0.000207184
0.000316364
0.000103462
0.000208372
2.06393e-05
0.00207647
1.45106e-07
4.16849e-05
0.00202859
6.24803e-05
0.00197283
8.26862e-05
0.00190106
0.000102036
0.00181067
0.000120292
0.00170176
0.000137237
0.00157495
0.000152677
0.00143143
0.000166434
0.00127263
0.000178353
0.00110021
0.000188299
0.000916002
0.00019616
0.000721983
0.000201847
0.000520247
0.000205299
0.00031292
0.000102299
0.000206476
2.04474e-05
0.00205588
1.4725e-07
4.13012e-05
0.00200774
6.19072e-05
0.00195222
8.19291e-05
0.00188104
0.000101103
0.00179149
0.000119193
0.00168367
0.000135985
0.00155816
0.000151285
0.00141612
0.000164917
0.00125899
0.000176728
0.0010884
0.000186584
0.000906143
0.000194374
0.000714189
0.00020001
0.000514604
0.000203431
0.00030949
0.000101116
0.000204598
2.02573e-05
0.00203547
1.4933e-07
4.0921e-05
0.00198707
6.13392e-05
0.00193181
8.11789e-05
0.0018612
0.000100179
0.00177249
0.000118104
0.00166575
0.000134743
0.00154152
0.000149904
0.00140097
0.000163414
0.00124549
0.000175118
0.0010767
0.000184884
0.000896379
0.000192604
0.000706473
0.00019819
0.000509023
0.000201581
0.000306107
9.99736e-05
0.000202738
2.00689e-05
0.00201525
1.51385e-07
4.05443e-05
0.0019666
6.07765e-05
0.00191157
8.04355e-05
0.00184154
9.92625e-05
0.00175367
0.000117025
0.00164799
0.000133513
0.00152503
0.000148537
0.00138594
0.000161924
0.0012321
0.000173522
0.0010651
0.000183201
0.000886697
0.000190851
0.000698818
0.000196387
0.000503481
0.000199747
0.000302739
9.88112e-05
0.000200894
1.98822e-05
0.00199521
1.53457e-07
4.01709e-05
0.00194631
6.02189e-05
0.00189153
7.96989e-05
0.00182206
9.83547e-05
0.00173501
0.000115956
0.00163039
0.000132295
0.00150869
0.000147182
0.00137105
0.000160448
0.00121883
0.000171941
0.00105361
0.000181532
0.000877109
0.000189114
0.00069124
0.0001946
0.000498
0.000197931
0.000299416
9.76881e-05
0.000199068
1.96972e-05
0.00197536
1.55578e-07
3.9801e-05
0.00192621
5.96663e-05
0.00187166
7.89691e-05
0.00180276
9.74552e-05
0.00171652
0.000114896
0.00161294
0.000131087
0.0014925
0.000145839
0.0013563
0.000158985
0.00120569
0.000170375
0.00104222
0.000179879
0.000867601
0.000187393
0.000683723
0.00019283
0.000492556
0.00019613
0.000296106
9.65457e-05
0.000197257
1.95139e-05
0.00195569
1.57777e-07
3.94345e-05
0.00190629
5.91188e-05
0.00185198
7.82459e-05
0.00178363
9.65639e-05
0.00169821
0.000113847
0.00159566
0.00012989
0.00147646
0.000144509
0.00134168
0.000157536
0.00119266
0.000168822
0.00103093
0.000178241
0.000858185
0.000185687
0.000676281
0.000191076
0.000487173
0.000194347
0.000292842
9.5442e-05
0.000195464
1.93322e-05
0.0019362
1.60063e-07
3.90713e-05
0.00188655
5.85763e-05
0.00183247
7.75293e-05
0.00176468
9.56807e-05
0.00168006
0.000112806
0.00157853
0.000128705
0.00146056
0.000143191
0.00132719
0.0001561
0.00117975
0.000167284
0.00101974
0.000176618
0.000848847
0.000183997
0.000668898
0.000189337
0.000481827
0.000192579
0.000289592
9.43197e-05
0.000193687
1.91523e-05
0.00191688
1.62441e-07
3.87114e-05
0.00186699
5.80388e-05
0.00181314
7.68193e-05
0.0017459
9.48057e-05
0.00166207
0.000111776
0.00156157
0.00012753
0.00144481
0.000141885
0.00131284
0.000154677
0.00116696
0.000165761
0.00100866
0.00017501
0.0008396
0.000182323
0.000661589
0.000187615
0.000476539
0.000190828
0.000286386
9.32351e-05
0.000191926
1.8974e-05
0.00189774
1.64898e-07
3.83549e-05
0.00184761
5.75062e-05
0.00179399
7.61157e-05
0.00172729
9.39386e-05
0.00164425
0.000110755
0.00154475
0.000126366
0.0014292
0.000140591
0.00129861
0.000153267
0.00115428
0.000164251
0.000997677
0.000173417
0.00083043
0.000180664
0.000654338
0.000185909
0.000471288
0.000189093
0.000283193
9.21323e-05
0.000190182
1.87973e-05
0.00187878
1.67415e-07
3.80016e-05
0.0018284
5.69785e-05
0.00177502
7.54186e-05
0.00170885
9.30794e-05
0.00162659
0.000109743
0.00152809
0.000125212
0.00141373
0.000139309
0.00128452
0.00015187
0.00114172
0.000162754
0.000986795
0.000171838
0.000821349
0.00017902
0.000647161
0.000184218
0.000466095
0.000187374
0.000280043
9.10665e-05
0.000188453
1.86223e-05
0.00185999
1.69964e-07
3.76515e-05
0.00180937
5.64555e-05
0.00175621
7.47279e-05
0.00169057
9.22281e-05
0.00160909
0.00010874
0.00151157
0.000124069
0.0013984
0.000138038
0.00127055
0.000150486
0.00112927
0.000161272
0.000976006
0.000170274
0.000812344
0.000177391
0.000640039
0.000182543
0.000460938
0.000185671
0.000276907
8.99828e-05
0.00018674
1.84488e-05
0.00184136
1.72517e-07
3.73047e-05
0.00179052
5.59374e-05
0.00173758
7.40435e-05
0.00167247
9.13846e-05
0.00159174
0.000107747
0.00149521
0.000122937
0.00138321
0.000136779
0.00125671
0.000149115
0.00111694
0.000159803
0.00096532
0.000168724
0.000803426
0.000175777
0.00063299
0.000180883
0.000455837
0.000183983
0.000273813
8.89352e-05
0.000185043
1.8277e-05
0.00182291
1.75039e-07
3.6961e-05
0.00177183
5.5424e-05
0.00171912
7.33653e-05
0.00165453
9.05489e-05
0.00157456
0.000106762
0.001479
0.000121815
0.00136815
0.000135532
0.00124299
0.000147756
0.00110471
0.000158348
0.000954725
0.000167189
0.000794581
0.000174178
0.000625996
0.000179238
0.000450771
0.000182311
0.000270732
8.78702e-05
0.000183362
1.81068e-05
0.00180463
1.77503e-07
3.66205e-05
0.00175332
5.49154e-05
0.00170082
7.26934e-05
0.00163675
8.97207e-05
0.00155753
0.000105787
0.00146293
0.000120703
0.00135324
0.000134296
0.0012294
0.000146409
0.0010926
0.000156906
0.00094423
0.000165667
0.000785823
0.000172594
0.000619073
0.000177608
0.000445762
0.000180654
0.000267693
8.68405e-05
0.000181696
1.79381e-05
0.00178651
1.79882e-07
3.62831e-05
0.00173497
5.44114e-05
0.00168269
7.20276e-05
0.00161913
8.89002e-05
0.00154066
0.000104821
0.00144701
0.000119601
0.00133846
0.000133071
0.00121593
0.000145075
0.00108059
0.000155477
0.000933826
0.00016416
0.000777137
0.000171024
0.000612204
0.000175994
0.000440786
0.000179012
0.000264667
8.57937e-05
0.000180046
1.7771e-05
0.00176856
1.82158e-07
3.59488e-05
0.0017168
5.3912e-05
0.00166473
7.13679e-05
0.00160168
8.80872e-05
0.00152394
0.000103863
0.00143124
0.00011851
0.00132381
0.000131858
0.00120258
0.000143753
0.0010687
0.000154062
0.00092352
0.000162666
0.000768536
0.000169469
0.000605405
0.000174394
0.000435865
0.000177386
0.000261681
8.47816e-05
0.00017841
1.76054e-05
0.00175077
1.84315e-07
3.56176e-05
0.00169878
5.34171e-05
0.00164693
7.07143e-05
0.00158438
8.72816e-05
0.00150737
0.000102914
0.0014156
0.000117429
0.0013093
0.000130656
0.00118935
0.000142444
0.00105691
0.000152659
0.000913302
0.000161186
0.000760006
0.000167928
0.000598658
0.000172809
0.000430979
0.000175774
0.000258708
8.37528e-05
0.00017679
1.74413e-05
0.00173314
1.86351e-07
3.52895e-05
0.00168094
5.29269e-05
0.00162929
7.00667e-05
0.00156724
8.64834e-05
0.00149096
0.000101974
0.00140011
0.000116357
0.00129492
0.000129464
0.00117625
0.000141146
0.00104523
0.000151269
0.000903181
0.000159719
0.000751559
0.000166401
0.00059198
0.000171239
0.000426145
0.000174178
0.000255776
8.2758e-05
0.000175184
1.72788e-05
0.00171567
1.88265e-07
3.49643e-05
0.00166325
5.24411e-05
0.00161182
6.9425e-05
0.00155025
8.56925e-05
0.00147469
0.000101043
0.00138476
0.000115295
0.00128066
0.000128284
0.00116326
0.00013986
0.00103365
0.000149892
0.000893146
0.000158267
0.000743181
0.000164888
0.000585354
0.000169683
0.000421345
0.000172596
0.000252855
8.17468e-05
0.000173594
1.71178e-05
0.00169837
1.90072e-07
3.46421e-05
0.00164573
5.19598e-05
0.0015945
6.87891e-05
0.00153343
8.49089e-05
0.00145857
0.00010012
0.00136955
0.000114243
0.00126654
0.000127115
0.00115039
0.000138587
0.00102218
0.000148528
0.000883207
0.000156827
0.000734885
0.00016339
0.000578795
0.000168141
0.000416598
0.000171028
0.000249974
8.0769e-05
0.000172018
1.69582e-05
0.00168122
1.91787e-07
3.43229e-05
0.00162836
5.14829e-05
0.00157734
6.81592e-05
0.00151675
8.41325e-05
0.0014426
9.92057e-05
0.00135448
0.000113201
0.00125254
0.000125956
0.00113763
0.000137324
0.00101081
0.000147177
0.000873352
0.000155401
0.000726657
0.000161905
0.000572288
0.000166614
0.000411883
0.000169475
0.000247105
7.97751e-05
0.000170456
1.68002e-05
0.00166422
1.93437e-07
3.40066e-05
0.00161116
5.10103e-05
0.00156034
6.75349e-05
0.00150023
8.33632e-05
0.00142677
9.82998e-05
0.00133954
0.000112168
0.00123868
0.000124808
0.00112499
0.000136074
0.000999548
0.000145837
0.000863591
0.000153988
0.00071851
0.000160433
0.000565846
0.0001651
0.00040722
0.000167937
0.000244274
7.88138e-05
0.000168909
1.66435e-05
0.00164738
1.95047e-07
3.36932e-05
0.0015941
5.05422e-05
0.00154349
6.69165e-05
0.00148385
8.2601e-05
0.00141108
9.74021e-05
0.00132474
0.000111145
0.00122493
0.000123671
0.00111246
0.000134835
0.000988382
0.00014451
0.000853913
0.000152588
0.000710429
0.000158975
0.000559454
0.000163601
0.000402589
0.000166412
0.000241456
7.78368e-05
0.000167377
1.64884e-05
0.0016307
1.96647e-07
3.33827e-05
0.00157721
5.00783e-05
0.00152679
6.63037e-05
0.00146763
8.18458e-05
0.00139554
9.65127e-05
0.00131007
0.000110131
0.00121131
0.000122544
0.00110005
0.000133607
0.00097732
0.000143196
0.000844326
0.0001512
0.000702427
0.000157531
0.000553127
0.000162115
0.000398009
0.000164902
0.000238675
7.68918e-05
0.000165858
1.63346e-05
0.00161417
1.98262e-07
3.30751e-05
0.00156047
4.96186e-05
0.00151025
6.56965e-05
0.00145155
8.10975e-05
0.00138014
9.56314e-05
0.00129554
0.000109127
0.00119782
0.000121427
0.00108775
0.000132391
0.000966354
0.000141893
0.000834822
0.000149826
0.000694491
0.0001561
0.000546849
0.000160644
0.00039346
0.000163405
0.000235906
7.59314e-05
0.000164353
1.61823e-05
0.00159778
1.99915e-07
3.27703e-05
0.00154388
4.91632e-05
0.00149385
6.50949e-05
0.00143562
8.03561e-05
0.00136488
9.47583e-05
0.00128114
0.000108132
0.00118445
0.000120321
0.00107556
0.000131186
0.000955491
0.000140603
0.000825407
0.000148464
0.000686632
0.000154682
0.000540634
0.000159185
0.000388961
0.000161923
0.000233174
7.50023e-05
0.000162863
1.60313e-05
0.00158155
2.01619e-07
3.24682e-05
0.00152745
4.8712e-05
0.00147761
6.44989e-05
0.00141983
7.96215e-05
0.00134976
9.38932e-05
0.00126686
0.000107146
0.00117119
0.000119225
0.00106348
0.000129992
0.000944722
0.000139324
0.000816072
0.000147115
0.000678837
0.000153277
0.000534468
0.000157741
0.000384492
0.000160454
0.000230454
7.40581e-05
0.000161386
1.58818e-05
0.00156547
2.03385e-07
3.2169e-05
0.00151116
4.82649e-05
0.00146152
6.39083e-05
0.00140419
7.88937e-05
0.00133477
9.30361e-05
0.00125272
0.000106169
0.00115806
0.000118139
0.00105151
0.000128809
0.000934053
0.000138057
0.000806826
0.000145779
0.000671118
0.000151886
0.000528364
0.000156309
0.000380073
0.000158998
0.00022777
7.31446e-05
0.000159923
1.57336e-05
0.00154953
2.05211e-07
3.18725e-05
0.00149502
4.78219e-05
0.00144557
6.33232e-05
0.00138868
7.81725e-05
0.00131992
9.21869e-05
0.00123871
0.000105201
0.00114505
0.000117063
0.00103965
0.000127637
0.000923477
0.000136802
0.000797658
0.000144454
0.000663463
0.000150507
0.000522308
0.000154891
0.000375684
0.000157557
0.000225097
7.22162e-05
0.000158473
1.55868e-05
0.00153373
2.07091e-07
3.15787e-05
0.00147903
4.7383e-05
0.00142976
6.27434e-05
0.00137332
7.74581e-05
0.00130521
9.13455e-05
0.00122482
0.000104242
0.00113215
0.000115997
0.0010279
0.000126475
0.000913
0.000135558
0.000788578
0.000143142
0.000655882
0.000149141
0.000516312
0.000153486
0.000371342
0.000156128
0.00022246
7.1318e-05
0.000157037
1.54413e-05
0.00151808
2.09012e-07
3.12876e-05
0.00146318
4.69481e-05
0.0014141
6.2169e-05
0.0013581
7.67502e-05
0.00129063
9.05118e-05
0.00121106
0.000103291
0.00111937
0.000114941
0.00101625
0.000125325
0.000902614
0.000134326
0.000779574
0.000141842
0.000648363
0.000147787
0.000510364
0.000152094
0.000367031
0.000154713
0.000219834
7.04052e-05
0.000155614
1.52972e-05
0.00150257
2.10957e-07
3.09992e-05
0.00144748
4.65173e-05
0.00139858
6.15998e-05
0.00134302
7.60488e-05
0.00127618
8.96858e-05
0.00119742
0.00010235
0.00110671
0.000113894
0.0010047
0.000124185
0.000892324
0.000133106
0.000770655
0.000140554
0.000640917
0.000146446
0.000504475
0.000150714
0.000362766
0.000153311
0.000217244
6.95219e-05
0.000154204
1.51544e-05
0.00148721
2.12906e-07
3.07135e-05
0.00143192
4.60904e-05
0.00138321
6.10359e-05
0.00132807
7.53538e-05
0.00126186
8.88675e-05
0.00118391
0.000101417
0.00109416
0.000112857
0.000993262
0.000123056
0.000882124
0.000131896
0.000761812
0.000139278
0.000633532
0.000145118
0.000498631
0.000149348
0.000358531
0.000151921
0.000214663
6.86241e-05
0.000152807
1.50129e-05
0.00147198
2.1484e-07
3.04304e-05
0.0014165
4.56674e-05
0.00136797
6.04772e-05
0.00131327
7.46653e-05
0.00124767
8.80567e-05
0.00117052
0.000100493
0.00108172
0.00011183
0.000981927
0.000121937
0.000872019
0.000130698
0.000753053
0.000138014
0.000626218
0.000143801
0.000492847
0.000147994
0.000354341
0.000150545
0.000212118
6.77554e-05
0.000151424
1.48727e-05
0.00145689
2.16737e-07
3.01499e-05
0.00140123
4.52483e-05
0.00135287
5.99237e-05
0.00129859
7.39832e-05
0.00123361
8.72534e-05
0.00115725
9.95775e-05
0.00106939
0.000110812
0.00097069
0.000120828
0.000862001
0.000129511
0.000744368
0.000136761
0.000618965
0.000142497
0.000487108
0.000146653
0.00035018
0.000149181
0.000209582
6.68725e-05
0.000150053
1.47338e-05
0.00144194
2.1858e-07
2.98719e-05
0.00138609
4.48331e-05
0.00133791
5.93752e-05
0.00128405
7.33073e-05
0.00121968
8.64575e-05
0.0011441
9.86704e-05
0.00105718
0.000109804
0.000959558
0.00011973
0.000852076
0.000128335
0.000735765
0.000135521
0.000611782
0.000141205
0.000481426
0.000145324
0.000346065
0.000147831
0.000207082
6.60181e-05
0.000148695
1.45962e-05
0.00142712
2.20353e-07
2.95966e-05
0.00137109
4.44218e-05
0.00132308
5.88318e-05
0.00126964
7.26377e-05
0.00120587
8.5669e-05
0.00113106
9.77717e-05
0.00104508
0.000108805
0.000948523
0.000118642
0.000842238
0.00012717
0.000727235
0.000134291
0.000604657
0.000139925
0.000475788
0.000144008
0.000341978
0.000146492
0.00020459
6.51496e-05
0.000147349
1.44599e-05
0.00141244
2.22045e-07
2.93238e-05
0.00135622
4.40142e-05
0.00130839
5.82935e-05
0.00125536
7.19742e-05
0.00119219
8.48877e-05
0.00111815
9.68813e-05
0.00103309
0.000107815
0.00093759
0.000117564
0.000832491
0.000126015
0.000718786
0.000133073
0.000597602
0.000138657
0.000470207
0.000142704
0.000337935
0.000145166
0.000202133
6.43092e-05
0.000146016
1.43248e-05
0.00139789
2.23651e-07
2.90535e-05
0.00134149
4.36103e-05
0.00129384
5.77601e-05
0.00124121
7.13169e-05
0.00117864
8.41137e-05
0.00110535
9.59991e-05
0.0010212
0.000106835
0.000926753
0.000116496
0.000822828
0.000124872
0.000710408
0.000131866
0.000590604
0.000137401
0.000464669
0.000141412
0.000333919
0.000143853
0.000199685
6.34549e-05
0.000144696
1.4191e-05
0.00138347
2.25171e-07
2.87857e-05
0.0013269
4.32102e-05
0.00127941
5.72316e-05
0.00122719
7.06657e-05
0.0011652
8.33468e-05
0.00109267
9.51251e-05
0.00100942
0.000105863
0.000916016
0.000115438
0.000813255