/*--------------------------------*- C++ -*----------------------------------*\
  =========                 |
  \\      /  F ield         | OpenFOAM: The Open Source CFD Toolbox
   \\    /   O peration     | Website:  https://openfoam.org
    \\  /    A nd           | Version:  6.0
     \\/     M anipulation  |
\*---------------------------------------------------------------------------*/
FoamFile
{
    version     2.0;
    format      ascii;
    class       surfaceScalarField;
    location    "3.4";
    object      phi;
}
// * * * * * * * * * * * * * * * * * * * * * * * * * * * * * * * * * * * * * //

dimensions      [0 3 -1 0 0 0 0];

internalField   nonuniform List<scalar> 
47678
(
2.98082e-05
0.00388594
2.4827e-09
5.98457e-05
0.00381843
8.91119e-05
0.00368577
0.000116962
0.00348997
0.000142854
0.00323446
0.000166314
0.00292368
0.000186917
0.00256312
0.000204298
0.00215897
0.000218148
0.00171828
0.000228223
0.00124838
0.000234333
0.000758251
0.000259891
0.000237048
2.96178e-05
0.00385632
5.37569e-09
5.94664e-05
0.00378858
8.85475e-05
0.00365668
0.000116221
0.00346229
0.000141948
0.00320872
0.000165257
0.00290036
0.000185728
0.00254264
0.000202998
0.00214169
0.000216759
0.00170451
0.000226762
0.00123838
0.000232967
0.00075204
0.000257038
0.000235815
2.94288e-05
0.00382688
7.69024e-09
5.90894e-05
0.00375892
8.79868e-05
0.00362778
0.000115485
0.00343479
0.000141048
0.00318315
0.000164209
0.0028772
0.000184548
0.0025223
0.000201707
0.00212453
0.000215382
0.00169083
0.000225313
0.00122845
0.000231501
0.000745853
0.000254246
0.000234301
2.92414e-05
0.00379763
9.62176e-09
5.87148e-05
0.00372945
8.74296e-05
0.00359905
0.000114754
0.00340746
0.000140155
0.00315774
0.000163167
0.00285418
0.000183376
0.00250208
0.000200425
0.00210748
0.000214014
0.00167724
0.000223876
0.00121858
0.000230005
0.000739719
0.000251538
0.000232712
2.90554e-05
0.00376856
1.11728e-08
5.83427e-05
0.00370016
8.68758e-05
0.00357052
0.000114027
0.00338031
0.000139266
0.0031325
0.000162132
0.00283131
0.000182211
0.002482
0.00019915
0.00209054
0.000212653
0.00166374
0.000222452
0.00120878
0.000228518
0.000733655
0.000248931
0.000231133
2.88708e-05
0.00373968
1.22955e-08
5.79729e-05
0.00367106
8.63253e-05
0.00354216
0.000113304
0.00335332
0.000138383
0.00310741
0.000161102
0.00280859
0.000181053
0.00246205
0.000197884
0.00207371
0.000211302
0.00165031
0.000221041
0.00119904
0.00022705
0.000727644
0.000246399
0.000229581
2.86874e-05
0.00371097
1.30097e-08
5.76053e-05
0.00364214
8.57782e-05
0.00351398
0.000112586
0.00332652
0.000137505
0.00308249
0.000160079
0.00278602
0.000179903
0.00244222
0.000196625
0.00205698
0.000209959
0.00163698
0.000219641
0.00118936
0.000225599
0.000721687
0.000243951
0.000228054
2.85052e-05
0.00368245
1.33882e-08
5.724e-05
0.00361341
8.52343e-05
0.00348598
0.000111872
0.00329988
0.000136633
0.00305772
0.000159063
0.00276358
0.000178759
0.00242252
0.000195375
0.00204036
0.000208625
0.00162373
0.000218251
0.00117973
0.000224164
0.000715771
0.000241565
0.00022655
2.83242e-05
0.00365412
1.34778e-08
5.6877e-05
0.00358485
8.46939e-05
0.00345817
0.000111162
0.00327341
0.000135765
0.00303312
0.000158052
0.0027413
0.000177623
0.00240295
0.000194132
0.00202386
0.000207299
0.00161056
0.000216869
0.00117017
0.00022274
0.000709902
0.00023924
0.00022507
2.81444e-05
0.00362596
1.33333e-08
5.65162e-05
0.00355648
8.41567e-05
0.00343052
0.000110457
0.00324711
0.000134903
0.00300867
0.000157048
0.00271915
0.000176494
0.0023835
0.000192898
0.00200745
0.000205981
0.00159747
0.000215496
0.00116065
0.000221328
0.000704067
0.000236958
0.00022361
2.79658e-05
0.00359798
1.30299e-08
5.61577e-05
0.00352829
8.36229e-05
0.00340305
0.000109756
0.00322097
0.000134047
0.00298438
0.00015605
0.00269715
0.000175371
0.00236418
0.000191671
0.00199115
0.000204671
0.00158448
0.000214131
0.00115119
0.000219926
0.000698274
0.000234719
0.000222168
2.77882e-05
0.00357018
1.26197e-08
5.58014e-05
0.00350027
8.30924e-05
0.00337576
0.000109059
0.003195
0.000133195
0.00296024
0.000155058
0.00267528
0.000174256
0.00234498
0.000190452
0.00197495
0.00020337
0.00157155
0.000212774
0.00114178
0.000218533
0.000692513
0.000232511
0.00022074
2.76119e-05
0.00354255
1.21363e-08
5.54473e-05
0.00347244
8.25652e-05
0.00334864
0.000108367
0.00316921
0.000132349
0.00293626
0.000154072
0.00265356
0.000173148
0.00232591
0.000189241
0.00195886
0.000202077
0.00155872
0.000211426
0.00113244
0.000217149
0.00068679
0.000230339
0.000219323
2.74366e-05
0.0035151
1.16092e-08
5.50954e-05
0.00344478
8.20411e-05
0.00332169
0.000107679
0.00314356
0.000131508
0.00291243
0.000153093
0.00263197
0.000172047
0.00230695
0.000188038
0.00194287
0.000200793
0.00154596
0.000210085
0.00112314
0.000215775
0.000681099
0.000228193
0.000217918
2.72625e-05
0.00348783
1.10482e-08
5.47456e-05
0.0034173
8.15203e-05
0.00329492
0.000106995
0.00311809
0.000130672
0.00288875
0.000152119
0.00261052
0.000170953
0.00228812
0.000186842
0.00192698
0.000199516
0.00153329
0.000208753
0.00111391
0.000214408
0.000675445
0.000226079
0.000216523
2.70895e-05
0.00346073
1.04465e-08
5.43981e-05
0.00338999
8.10027e-05
0.00326831
0.000106315
0.00309278
0.000129841
0.00286522
0.000151152
0.00258921
0.000169866
0.0022694
0.000185655
0.00191119
0.000198249
0.00152069
0.000207429
0.00110473
0.00021305
0.000669822
0.000223987
0.000215139
2.69175e-05
0.0034338
9.80715e-09
5.40526e-05
0.00336285
8.04882e-05
0.00324188
0.000105639
0.00306763
0.000129016
0.00284185
0.000150191
0.00256804
0.000168786
0.0022508
0.000184475
0.00189551
0.000196989
0.00150818
0.000206114
0.0010956
0.0002117
0.000664236
0.000221923
0.000213765
2.67467e-05
0.00340704
9.13325e-09
5.37093e-05
0.00333589
7.99767e-05
0.00321561
0.000104967
0.00304264
0.000128195
0.00281861
0.000149236
0.00254699
0.000167713
0.00223232
0.000183302
0.00187991
0.000195737
0.00149574
0.000204807
0.00108653
0.000210359
0.000658681
0.000219877
0.000212401
2.65769e-05
0.00338046
8.45064e-09
5.3368e-05
0.0033091
7.94684e-05
0.00318951
0.0001043
0.00301781
0.00012738
0.00279554
0.000148287
0.00252609
0.000166646
0.00221397
0.000182137
0.00186442
0.000194494
0.00148339
0.000203508
0.00107752
0.000209026
0.000653163
0.000217859
0.000211046
2.64082e-05
0.00335404
7.80638e-09
5.30288e-05
0.00328248
7.89631e-05
0.00316357
0.000103637
0.00299313
0.00012657
0.0027726
0.000147343
0.00250531
0.000165587
0.00219572
0.00018098
0.00184903
0.000193259
0.00147111
0.000202217
0.00106856
0.000207702
0.000647675
0.000215855
0.000209701
2.62404e-05
0.00332779
7.27071e-09
5.26917e-05
0.00325603
7.84609e-05
0.0031378
0.000102977
0.00296862
0.000125764
0.00274982
0.000146406
0.00248467
0.000164534
0.00217759
0.00017983
0.00183374
0.000192031
0.00145891
0.000200934
0.00105966
0.000206386
0.000642225
0.000213879
0.000208365
2.60737e-05
0.00330171
6.92427e-09
5.23565e-05
0.00322974
7.79617e-05
0.00311219
0.000102322
0.00294425
0.000124964
0.00272717
0.000145475
0.00246416
0.000163488
0.00215958
0.000178687
0.00181853
0.000190812
0.00144678
0.00019966
0.00105081
0.000205078
0.000636804
0.000211913
0.000207039
2.59079e-05
0.0032758
6.85193e-09
5.20234e-05
0.00320363
7.74656e-05
0.00308675
0.000101671
0.00292005
0.000124169
0.00270467
0.000144549
0.00244378
0.000162448
0.00214168
0.000177552
0.00180343
0.000189601
0.00143473
0.000198394
0.00104201
0.000203778
0.00063142
0.000209974
0.000205721
2.57431e-05
0.00325005
7.11872e-09
5.16923e-05
0.00317768
7.69724e-05
0.00306147
0.000101023
0.002896
0.000123379
0.00268232
0.00014363
0.00242353
0.000161416
0.00212389
0.000176424
0.00178842
0.000188397
0.00142276
0.000197135
0.00103327
0.000202487
0.000626066
0.000208042
0.000204413
2.55792e-05
0.00322446
7.76637e-09
5.13631e-05
0.00315189
7.64823e-05
0.00303635
0.00010038
0.0028721
0.000122593
0.00266011
0.000142716
0.00240341
0.00016039
0.00210622
0.000175303
0.00177351
0.000187201
0.00141086
0.000195885
0.00102459
0.000201204
0.000620748
0.000206137
0.000203113
2.54162e-05
0.00319903
8.79657e-09
5.1036e-05
0.00312627
7.59952e-05
0.00301139
9.97412e-05
0.00284835
0.000121813
0.00263803
0.000141809
0.00238341
0.00015937
0.00208866
0.00017419
0.00175869
0.000186013
0.00139904
0.000194643
0.00101596
0.000199929
0.000615459
0.000204238
0.000201822
2.52541e-05
0.00317377
1.01794e-08
5.07107e-05
0.00310082
7.55111e-05
0.00298659
9.9106e-05
0.00282476
0.000121038
0.0026161
0.000140907
0.00236354
0.000158357
0.00207121
0.000173084
0.00174396
0.000184833
0.00138729
0.000193409
0.00100738
0.000198662
0.000610207
0.000202365
0.000200539
2.5093e-05
0.00314866
1.18529e-08
5.03874e-05
0.00307552
7.503e-05
0.00296195
9.84749e-05
0.00280131
0.000120268
0.00259431
0.00014001
0.0023438
0.000157351
0.00205387
0.000171985
0.00172932
0.00018366
0.00137561
0.000192183
0.000998856
0.000197403
0.000604984
0.000200497
0.000199265
2.49327e-05
0.00312372
1.37437e-08
5.00661e-05
0.00305039
7.45518e-05
0.00293746
9.78477e-05
0.00277802
0.000119502
0.00257265
0.00013912
0.00232418
0.000156351
0.00203664
0.000170893
0.00171478
0.000182495
0.00136401
0.000190964
0.000990388
0.000196152
0.000599797
0.000198653
0.000197999
2.47732e-05
0.00309893
1.57734e-08
4.97467e-05
0.00302541
7.40766e-05
0.00291313
9.72244e-05
0.00275487
0.000118741
0.00255113
0.000138235
0.00230469
0.000155357
0.00201951
0.000169808
0.00170033
0.000181337
0.00135248
0.000189754
0.000981968
0.000194909
0.000594638
0.000196815
0.000196742
2.46147e-05
0.00307429
1.78794e-08
4.94292e-05
0.0030006
7.36043e-05
0.00288896
9.66051e-05
0.00273187
0.000117986
0.00252976
0.000137356
0.00228532
0.00015437
0.0020025
0.00016873
0.00168597
0.000180187
0.00134102
0.000188551
0.000973605
0.000193674
0.000589516
0.000194998
0.000195493
2.4457e-05
0.00304982
2.0014e-08
4.91136e-05
0.00297594
7.3135e-05
0.00286493
9.59896e-05
0.00270902
0.000117235
0.00250851
0.000136483
0.00226607
0.000153389
0.00198559
0.000167659
0.0016717
0.000179044
0.00132964
0.000187356
0.00096529
0.000192447
0.000584421
0.000193188
0.000194252
2.43002e-05
0.0030255
2.21544e-08
4.88e-05
0.00295144
7.26686e-05
0.00284107
9.53781e-05
0.00268631
0.000116489
0.0024874
0.000135615
0.00224694
0.000152415
0.00196879
0.000166594
0.00165752
0.000177908
0.00131832
0.000186168
0.000957032
0.000191228
0.000579363
0.000191398
0.000193019
2.41443e-05
0.00300132
2.42915e-08
4.84882e-05
0.0029271
7.22051e-05
0.00281735
9.47704e-05
0.00266374
0.000115747
0.00246642
0.000134752
0.00222794
0.000151446
0.0019521
0.000165537
0.00164343
0.00017678
0.00130708
0.000184988
0.000948821
0.000190016
0.000574332
0.000189614
0.000191794
2.39893e-05
0.00297731
2.64304e-08
4.81784e-05
0.00290291
7.17444e-05
0.00279378
9.41665e-05
0.00264132
0.00011501
0.00244558
0.000133895
0.00220905
0.000150484
0.00193551
0.000164486
0.00162943
0.000175659
0.00129591
0.000183816
0.000940665
0.000188813
0.000569337
0.00018785
0.000190577
2.38351e-05
0.00295345
2.85749e-08
4.78704e-05
0.00287887
7.12867e-05
0.00277037
9.35665e-05
0.00261904
0.000114278
0.00242487
0.000133044
0.00219029
0.000149528
0.00191903
0.000163443
0.00161551
0.000174545
0.0012848
0.000182651
0.000932556
0.000187616
0.000564368
0.000186093
0.000189368
2.36819e-05
0.00292973
3.07282e-08
4.75643e-05
0.00285499
7.08318e-05
0.0027471
9.29702e-05
0.00259691
0.000113551
0.00240429
0.000132198
0.00217164
0.000148579
0.00190265
0.000162405
0.00160169
0.000173439
0.00127377
0.000181494
0.000924503
0.000186428
0.000559436
0.000184356
0.000188167
2.35295e-05
0.00290617
3.28813e-08
4.726e-05
0.00283126
7.03797e-05
0.00272398
9.23777e-05
0.00257491
0.000112828
0.00238384
0.000131358
0.00215311
0.000147635
0.00188637
0.000161375
0.00158794
0.000172339
0.00126281
0.000180344
0.000916495
0.000185247
0.000554529
0.000182624
0.000186973
2.3378e-05
0.00288276
3.50184e-08
4.69577e-05
0.00280768
6.99305e-05
0.00270101
9.17889e-05
0.00255305
0.00011211
0.00236352
0.000130523
0.0021347
0.000146697
0.0018702
0.000160351
0.00157429
0.000171247
0.00125191
0.000179201
0.000908542
0.000184074
0.000549658
0.000180913
0.000185787
2.32273e-05
0.00285949
3.7112e-08
4.66572e-05
0.00278425
6.9484e-05
0.00267818
9.12039e-05
0.00253133
0.000111396
0.00234333
0.000129693
0.0021164
0.000145766
0.00185412
0.000159334
0.00156072
0.000170161
0.00124108
0.000178065
0.000900634
0.000182908
0.000544812
0.000179206
0.000184609
2.30776e-05
0.00283638
3.91326e-08
4.63585e-05
0.00276097
6.90404e-05
0.0026555
9.06226e-05
0.00250975
0.000110687
0.00232326
0.000128868
0.00209822
0.00014484
0.00183815
0.000158323
0.00154724
0.000169082
0.00123033
0.000176937
0.000892781
0.000181749
0.000540003
0.000177521
0.000183439
2.29288e-05
0.00281341
4.10474e-08
4.60617e-05
0.00273784
6.85996e-05
0.00263296
9.0045e-05
0.0024883
0.000109983
0.00230332
0.000128049
0.00208016
0.00014392
0.00182228
0.000157318
0.00153384
0.000168011
0.00121963
0.000175816
0.000884972
0.000180598
0.000535217
0.000175838
0.000182276
2.27809e-05
0.00279058
4.28306e-08
4.57668e-05
0.00271485
6.81616e-05
0.00261057
8.9471e-05
0.002467
0.000109283
0.00228352
0.000127235
0.00206221
0.000143006
0.00180651
0.000156321
0.00152053
0.000166946
0.00120901
0.000174703
0.000877217
0.000179455
0.000530468
0.000174178
0.00018112
2.2634e-05
0.0027679
4.44613e-08
4.54738e-05
0.00269201
6.77263e-05
0.00258831
8.89007e-05
0.00244582
0.000108587
0.00226383
0.000126426
0.00204437
0.000142098
0.00179083
0.000155329
0.00150729
0.000165888
0.00119845
0.000173596
0.000869505
0.000178318
0.000525742
0.000172518
0.000179972
2.24879e-05
0.00274537
4.59305e-08
4.51825e-05
0.00266932
6.72938e-05
0.0025662
8.83341e-05
0.00242478
0.000107896
0.00224427
0.000125623
0.00202664
0.000141196
0.00177526
0.000154344
0.00149415
0.000164836
0.00118796
0.000172496
0.000861847
0.000177189
0.000521052
0.000170882
0.000178832
2.23428e-05
0.00272298
4.72366e-08
4.48932e-05
0.00264677
6.68641e-05
0.00254423
8.7771e-05
0.00240388
0.000107209
0.00222483
0.000124824
0.00200903
0.0001403
0.00175979
0.000153365
0.00148108
0.000163792
0.00117753
0.000171403
0.000854232
0.000176067
0.000516386
0.000169244
0.000177699
2.21986e-05
0.00270073
4.83882e-08
4.46056e-05
0.00262436
6.64371e-05
0.0025224
8.72116e-05
0.0023831
0.000106527
0.00220552
0.000124031
0.00199153
0.000139409
0.00174441
0.000152392
0.0014681
0.000162754
0.00116717
0.000170318
0.00084667
0.000174952
0.000511756
0.000167631
0.000176573
2.20553e-05
0.00267863
4.93968e-08
4.43199e-05
0.0026021
6.60128e-05
0.00250071
8.66557e-05
0.00236246
0.000105849
0.00218632
0.000123243
0.00197413
0.000138524
0.00172913
0.000151426
0.0014552
0.000161722
0.00115687
0.000169239
0.00083915
0.000173845
0.000507148
0.000166012
0.000175455
2.1913e-05
0.00265667
5.02778e-08
4.40361e-05
0.00257998
6.55912e-05
0.00247915
8.61034e-05
0.00234195
0.000105176
0.00216725
0.00012246
0.00195685
0.000137645
0.00171394
0.000150465
0.00144238
0.000160698
0.00114664
0.000168167
0.000831683
0.000172744
0.000502577
0.000164419
0.000174343
2.17716e-05
0.00263484
5.10436e-08
4.3754e-05
0.00255799
6.51724e-05
0.00245773
8.55547e-05
0.00232157
0.000104506
0.0021483
0.000121681
0.00193967
0.000136771
0.00169885
0.000149511
0.00142964
0.000159679
0.00113647
0.000167102
0.000824257
0.00017165
0.000498027
0.000162819
0.000173239
2.16311e-05
0.00261316
5.17055e-08
4.34738e-05
0.00253615
6.47563e-05
0.00243645
8.50095e-05
0.00230132
0.000103842
0.00212947
0.000120908
0.00192261
0.000135903
0.00168386
0.000148563
0.00141698
0.000158668
0.00112637
0.000166043
0.000816884
0.000170563
0.000493514
0.000161245
0.000172142
2.14916e-05
0.00259162
5.22701e-08
4.31954e-05
0.00251445
6.43429e-05
0.00241531
8.44679e-05
0.00228119
0.000103181
0.00211076
0.00012014
0.00190565
0.000135041
0.00166896
0.000147621
0.00140439
0.000157662
0.00111633
0.000164992
0.000809551
0.000169484
0.000489022
0.000159665
0.000171052
2.1353e-05
0.00257022
5.27434e-08
4.29188e-05
0.00249288
6.39321e-05
0.00239429
8.39297e-05
0.0022612
0.000102525
0.00209216
0.000119377
0.0018888
0.000134184
0.00165415
0.000146685
0.0013919
0.000156663
0.00110635
0.000163947
0.000802271
0.000168411
0.000484566
0.000158109
0.000169968
2.12154e-05
0.00254895
5.31309e-08
4.26441e-05
0.00247145
6.3524e-05
0.00237341
8.3395e-05
0.00224133
0.000101872
0.00207369
0.000118618
0.00187205
0.000133332
0.00163944
0.000145755
0.00137947
0.000155671
0.00109643
0.000162909
0.00079503
0.000167344
0.000480129
0.000156548
0.000168892
2.10787e-05
0.00252782
5.3443e-08
4.23711e-05
0.00245016
6.31186e-05
0.00235267
8.28637e-05
0.00222158
0.000101224
0.00205533
0.000117865
0.00185542
0.000132486
0.00162482
0.000144831
0.00136713
0.000154685
0.00108658
0.000161877
0.000787841
0.000166285
0.000475729
0.000155011
0.000167823
2.09429e-05
0.00250682
5.36952e-08
4.20999e-05
0.002429
6.27158e-05
0.00233205
8.23359e-05
0.00220196
0.000100581
0.00203708
0.000117116
0.00183888
0.000131645
0.00161029
0.000143913
0.00135486
0.000153705
0.00107679
0.000160852
0.00078069
0.000165232
0.000471347
0.000153471
0.00016676
2.08081e-05
0.00248596
5.39121e-08
4.18305e-05
0.00240798
6.23156e-05
0.00231157
8.18115e-05
0.00218247
9.99409e-05
0.00201896
0.000116372
0.00182245
0.00013081
0.00159585
0.000143
0.00134267
0.000152731
0.00106706
0.000159834
0.000773592
0.000164186
0.000467002
0.000151956
0.000165704
2.06742e-05
0.00246523
5.41245e-08
4.15629e-05
0.00238709
6.1918e-05
0.00229121
8.12905e-05
0.0021631
9.93053e-05
0.00200094
0.000115633
0.00180612
0.00012998
0.00158151
0.000142094
0.00133055
0.000151763
0.00105739
0.000158822
0.000766531
0.000163147
0.000462675
0.000150437
0.000164655
2.05412e-05
0.00244464
5.43696e-08
4.12971e-05
0.00236634
6.1523e-05
0.00227099
8.07728e-05
0.00214385
9.86738e-05
0.00198304
0.000114898
0.0017899
0.000129155
0.00156725
0.000141193
0.00131852
0.000150802
0.00104779
0.000157816
0.000759521
0.000162114
0.000458383
0.000148943
0.000163612
2.04091e-05
0.00242417
5.46846e-08
4.1033e-05
0.00234572
6.11306e-05
0.00225089
8.02585e-05
0.00212472
9.80464e-05
0.00196525
0.000114169
0.00177378
0.000128336
0.00155308
0.000140298
0.00130655
0.000149847
0.00103824
0.000156817
0.000752549
0.000161088
0.00045411
0.000147446
0.000162576
2.0278e-05
0.00240384
5.51048e-08
4.07706e-05
0.00232523
6.07407e-05
0.00223092
7.97475e-05
0.00210572
9.7423e-05
0.00194758
0.000113444
0.00175776
0.000127521
0.00153901
0.000139409
0.00129467
0.000148898
0.00102875
0.000155824
0.000745628
0.000160068
0.000449872
0.000145975
0.000161547
2.01477e-05
0.00238364
5.56567e-08
4.051e-05
0.00230486
6.03534e-05
0.00221108
7.92398e-05
0.00208683
9.68036e-05
0.00193002
0.000112723
0.00174184
0.000126712
0.00152502
0.000138525
0.00128286
0.000147955
0.00101932
0.000154838
0.000738742
0.000159055
0.000445652
0.000144498
0.000160525
2.00184e-05
0.00236357
5.63573e-08
4.02511e-05
0.00228463
5.99685e-05
0.00219136
7.87354e-05
0.00206807
9.61882e-05
0.00191257
0.000112007
0.00172603
0.000125909
0.00151112
0.000137647
0.00127112
0.000147018
0.00100996
0.000153858
0.000731908
0.000158049
0.000441467
0.00014305
0.000159509
1.98899e-05
0.00234362
5.72099e-08
3.99939e-05
0.00226453
5.95862e-05
0.00217177
7.82342e-05
0.00204942
9.55767e-05
0.00189523
0.000111296
0.00171031
0.00012511
0.00149731
0.000136775
0.00125946
0.000146086
0.00100064
0.000152884
0.000725108
0.000157049
0.000437299
0.000141591
0.0001585
1.97622e-05
0.0023238
5.82074e-08
3.97384e-05
0.00224455
5.92064e-05
0.0021523
7.77363e-05
0.00203089
9.49691e-05
0.001878
0.000110589
0.00169469
0.000124316
0.00148358
0.000135908
0.00124787
0.000145161
0.000991396
0.000151916
0.00071836
0.000156055
0.000433169
0.000140162
0.000157497
1.96355e-05
0.0023041
5.93317e-08
3.94846e-05
0.0022247
5.8829e-05
0.00213296
7.72415e-05
0.00201248
9.43655e-05
0.00186087
0.000109887
0.00167917
0.000123528
0.00146994
0.000135047
0.00123635
0.000144242
0.0009822
0.000150954
0.000711646
0.000155068
0.000429053
0.000138718
0.000156501
1.95096e-05
0.00228454
6.05599e-08
3.92325e-05
0.00220498
5.84541e-05
0.00211374
7.675e-05
0.00199419
9.37656e-05
0.00184386
0.00010919
0.00166375
0.000122744
0.00145639
0.000134191
0.00122491
0.000143329
0.000973069
0.000149999
0.000704982
0.000154087
0.000424974
0.000137304
0.000155511
1.93845e-05
0.00226509
6.18657e-08
3.8982e-05
0.00218538
5.80816e-05
0.00209464
7.62616e-05
0.00197601
9.31697e-05
0.00182695
0.000108496
0.00164842
0.000121966
0.00144292
0.00013334
0.00121353
0.000142421
0.000963987
0.00014905
0.000698351
0.000153113
0.00042091
0.000135873
0.000154527
1.92602e-05
0.00224577
6.3225e-08
3.87331e-05
0.00216591
5.77114e-05
0.00207566
7.57763e-05
0.00195795
9.25775e-05
0.00181016
0.000107808
0.0016332
0.000121192
0.00142954
0.000132496
0.00120223
0.00014152
0.00095497
0.000148107
0.000691771
0.000152144
0.000416883
0.000134474
0.00015355
1.91368e-05
0.00222657
6.46163e-08
3.84858e-05
0.00214656
5.73437e-05
0.00205681
7.52941e-05
0.00194
9.19891e-05
0.00179346
0.000107123
0.00161806
0.000120424
0.00141624
0.000131656
0.001191
0.000140624
0.000946003
0.00014717
0.000685222
0.000151182
0.000412869
0.000133056
0.000152579
1.90142e-05
0.00220749
6.60242e-08
3.82402e-05
0.00212734
5.69783e-05
0.00203807
7.4815e-05
0.00192216
9.14045e-05
0.00177687
0.000106443
0.00160303
0.00011966
0.00140303
0.000130822
0.00117985
0.000139734
0.000937099
0.000146239
0.000678724
0.000150226
0.000408892
0.000131669
0.000151614
1.88923e-05
0.00218853
6.74365e-08
3.79962e-05
0.00210824
5.66153e-05
0.00201945
7.4339e-05
0.00190444
9.08236e-05
0.00176039
0.000105767
0.00158808
0.000118901
0.0013899
0.000129993
0.00116875
0.000138849
0.000928243
0.000145314
0.000672257
0.000149276
0.000404926
0.000130264
0.000150655
1.87713e-05
0.00216969
6.8846e-08
3.77537e-05
0.00208926
5.62546e-05
0.00200095
7.3866e-05
0.00188683
9.02465e-05
0.00174401
0.000105096
0.00157324
0.000118147
0.00137685
0.00012917
0.00115774
0.00013797
0.00091945
0.000144395
0.000665839
0.000148332
0.000400997
0.000128892
0.000149703
1.8651e-05
0.00215097
7.02462e-08
3.75128e-05
0.00207039
5.58963e-05
0.00198257
7.33961e-05
0.00186933
8.9673e-05
0.00172774
0.000104429
0.00155848
0.000117398
0.00136388
0.000128352
0.00114678
0.000137097
0.000910704
0.000143482
0.000659452
0.000147395
0.000397078
0.000127503
0.000148756
1.85315e-05
0.00213237
7.16319e-08
3.72734e-05
0.00205165
5.55402e-05
0.0019643
7.29291e-05
0.00185195
8.91032e-05
0.00171157
0.000103766
0.00154383
0.000116654
0.001351
0.000127539
0.00113591
0.00013623
0.000902022
0.000142574
0.000653114
0.000146463
0.000393198
0.000126147
0.000147816
1.84127e-05
0.00211388
7.2996e-08
3.70355e-05
0.00203303
5.51863e-05
0.00194615
7.24651e-05
0.00183467
8.8537e-05
0.0016955
0.000103108
0.00152926
0.000115914
0.0013382
0.000126731
0.00112509
0.000135368
0.000893385
0.000141673
0.000646806
0.000145537
0.000389326
0.000124774
0.000146882
1.82947e-05
0.00209552
7.43307e-08
3.67992e-05
0.00201453
5.48348e-05
0.00192812
7.20041e-05
0.0018175
8.79745e-05
0.00167953
0.000102453
0.00151478
0.00011518
0.00132548
0.000125929
0.00111435
0.000134511
0.00088481
0.000140778
0.000640546
0.000144617
0.000385493
0.000123437
0.000145953
1.81774e-05
0.00207726
7.56258e-08
3.65644e-05
0.00199614
5.44855e-05
0.0019102
7.15461e-05
0.00180044
8.74155e-05
0.00166366
0.000101803
0.0015004
0.00011445
0.00131283
0.000125132
0.00110367
0.000133661
0.00087628
0.000139888
0.000634315
0.000143704
0.000381668
0.000122081
0.000145031
1.80609e-05
0.00205913
7.6872e-08
3.6331e-05
0.00197787
5.41384e-05
0.00189239
7.10909e-05
0.00178349
8.68601e-05
0.0016479
0.000101157
0.00148611
0.000113724
0.00130027
0.000124339
0.00109306
0.000132815
0.000867812
0.000139004
0.000628134
0.000142796
0.000377881
0.000120761
0.000144115
1.7945e-05
0.0020411
7.80589e-08
3.60992e-05
0.00195972
5.37935e-05
0.0018747
7.06387e-05
0.00176665
8.63083e-05
0.00163223
0.000100515
0.0014719
0.000113004
0.00128779
0.000123552
0.00108251
0.000131975
0.000859389
0.000138126
0.000621979
0.000141894
0.000374103
0.000119421
0.000143204
1.78299e-05
0.0020232
7.91794e-08
3.58688e-05
0.00194168
5.34508e-05
0.00185712
7.01894e-05
0.00174992
8.576e-05
0.00161666
9.98778e-05
0.00145779
0.000112288
0.00127538
0.00012277
0.00107204
0.000131141
0.000851026
0.000137253
0.000615874
0.000140998
0.000370363
0.000118119
0.0001423
1.77155e-05
0.0020054
8.02272e-08
3.56398e-05
0.00192376
5.31103e-05
0.00183965
6.97429e-05
0.00173328
8.52153e-05
0.00160119
9.92442e-05
0.00144376
0.000111576
0.00126305
0.000121993
0.00106162
0.000130312
0.000842706
0.000136386
0.000609795
0.000140108
0.00036663
0.000116795
0.000141402
1.76018e-05
0.00198772
8.12004e-08
3.54123e-05
0.00190595
5.27719e-05
0.00182229
6.92993e-05
0.00171676
8.4674e-05
0.00158582
9.86147e-05
0.00142983
0.000110869
0.00125081
0.000121222
0.00105128
0.000129488
0.000834447
0.000135525
0.000603765
0.000139223
0.000362936
0.000115511
0.000140509
1.74888e-05
0.00197015
8.20982e-08
3.51862e-05
0.00188825
5.24357e-05
0.00180504
6.88585e-05
0.00170034
8.41362e-05
0.00157055
9.79892e-05
0.00141598
0.000110167
0.00123863
0.000120455
0.00104099
0.00012867
0.000826231
0.000134669
0.00059776
0.000138344
0.000359248
0.000114202
0.000139622
1.73765e-05
0.00195269
8.29229e-08
3.49616e-05
0.00187067
5.21017e-05
0.00178791
6.84205e-05
0.00168402
8.36019e-05
0.00155537
9.73678e-05
0.00140222
0.000109469
0.00122654
0.000119693
0.00103077
0.000127857
0.000818074
0.000133819
0.000591804
0.000137472
0.0003556
0.000112934
0.000138741
1.72649e-05
0.00193534
8.36765e-08
3.47383e-05
0.00185319
5.17697e-05
0.00177087
6.79853e-05
0.00166781
8.30709e-05
0.00154029
9.67504e-05
0.00138854
0.000108776
0.00121451
0.000118936
0.00102062
0.000127049
0.000809959
0.000132974
0.000585873
0.000136604
0.000351957
0.00011164
0.000137866
1.71539e-05
0.00191811
8.43628e-08
3.45164e-05
0.00183583
5.14399e-05
0.00175395
6.7553e-05
0.0016517
8.25434e-05
0.0015253
9.6137e-05
0.00137495
0.000108087
0.00120257
0.000118184
0.00101053
0.000126247
0.000801903
0.000132135
0.000579991
0.000135743
0.000348353
0.000110388
0.000136997
1.70437e-05
0.00190098
8.49838e-08
3.4296e-05
0.00181858
5.11121e-05
0.00173714
6.71234e-05
0.00163569
8.20193e-05
0.00151041
9.55275e-05
0.00136145
0.000107403
0.0011907
0.000117437
0.00100049
0.000125449
0.000793888
0.000131302
0.000574132
0.000134887
0.000344754
0.000109108
0.000136134
1.69341e-05
0.00188396
8.55433e-08
3.40769e-05
0.00180144
5.07865e-05
0.00172043
6.66965e-05
0.00161979
8.14986e-05
0.00149561
9.4922e-05
0.00134803
0.000106723
0.0011789
0.000116694
0.00099053
0.000124657
0.000785932
0.000130473
0.000568322
0.000134037
0.000341194
0.000107872
0.000135276
1.68252e-05
0.00186705
8.60436e-08
3.38591e-05
0.00178441
5.04629e-05
0.00170383
6.62724e-05
0.00160398
8.09813e-05
0.0014809
9.43204e-05
0.00133469
0.000106048
0.00116718
0.000115957
0.000980622
0.000123871
0.000778016
0.000129651
0.000562535
0.000133192
0.000337638
0.000106606
0.000134424
1.67169e-05
0.00185025
8.64906e-08
3.36428e-05
0.00176748
5.01413e-05
0.00168733
6.5851e-05
0.00158827
8.04672e-05
0.00146629
9.37228e-05
0.00132145
0.000105377
0.00115553
0.000115224
0.000970781
0.000123089
0.000770158
0.000128833
0.000556796
0.000132353
0.000334123
0.000105386
0.000133577
1.66093e-05
0.00183355
8.68911e-08
3.34278e-05
0.00175066
4.98218e-05
0.00167094
6.54323e-05
0.00157266
7.99565e-05
0.00145177
9.31289e-05
0.00130827
0.00010471
0.00114395
0.000114496
0.000960995
0.000122312
0.000762339
0.000128021
0.00055108
0.000131519
0.000330609
0.000104134
0.000132736
1.65024e-05
0.00181696
8.72573e-08
3.32141e-05
0.00173395
4.95044e-05
0.00165465
6.50163e-05
0.00155716
7.94491e-05
0.00143734
9.2539e-05
0.00129519
0.000104048
0.00113245
0.000113773
0.000951277
0.000121541
0.000754578
0.000127214
0.000545412
0.000130691
0.000327137
0.000102929
0.000131901
1.63962e-05
0.00180048
8.76034e-08
3.30018e-05
0.00171735
4.9189e-05
0.00163847
6.4603e-05
0.00154174
7.8945e-05
0.001423
9.19529e-05
0.00128219
0.00010339
0.00112101
0.000113055
0.000941612
0.000120774
0.000746856
0.000126413
0.000539765
0.000129868
0.000323666
0.000101691
0.000131071
1.62906e-05
0.0017841
8.79495e-08
3.27908e-05
0.00170085
4.88756e-05
0.00162239
6.41923e-05
0.00152643
7.84442e-05
0.00140876
9.13706e-05
0.00126927
0.000102737
0.00110965
0.000112341
0.000932014
0.000120013
0.00073919
0.000125617
0.000534167
0.000129051
0.000320236
0.000100501
0.000130246
1.61857e-05
0.00176783
8.83164e-08
3.25812e-05
0.00168446
4.85642e-05
0.0016064
6.37843e-05
0.00151121
7.79466e-05
0.0013946
9.07921e-05
0.00125642
0.000102087
0.00109836
0.000111632
0.000922468
0.000119256
0.000731563
0.000124826
0.000528589
0.000128239
0.000316807
9.92762e-05
0.000129427
1.60814e-05
0.00175166
8.87281e-08
3.23729e-05
0.00166817
4.82548e-05
0.00159052
6.33789e-05
0.0014961
7.74523e-05
0.00138053
9.02174e-05
0.00124366
0.000101442
0.00108714
0.000110928
0.000912989
0.000118505
0.000723991
0.00012404
0.000523059
0.000127432
0.000313419
9.81014e-05
0.000128614
1.59778e-05
0.00173559
8.92059e-08
3.21659e-05
0.00165198
4.79474e-05
0.00157474
6.29762e-05
0.00148107
7.69612e-05
0.00136655
8.96465e-05
0.00123098
0.000100801
0.00107598
0.000110228
0.000903561
0.000117758
0.000716457
0.00012326
0.000517549
0.000126631
0.000310031
9.68909e-05
0.000127806
1.58749e-05
0.00171963
8.977e-08
3.19603e-05
0.0016359
4.7642e-05
0.00155907
6.25761e-05
0.00146614
7.64733e-05
0.00135265
8.90793e-05
0.00121838
0.000100164
0.0010649
0.000109533
0.000894199
0.000117016
0.000708979
0.000122484
0.000512087
0.000125835
0.000306684
9.57308e-05
0.000127003
1.57726e-05
0.00170377
9.04339e-08
3.1756e-05
0.00161991
4.73385e-05
0.00154348
6.21786e-05
0.0014513
7.59886e-05
0.00133885
8.85158e-05
0.00120585
9.95319e-05
0.00105389
0.000108843
0.000884887
0.00011628
0.000701538
0.000121714
0.000506645
0.000125045
0.000303337
9.45339e-05
0.000126206
1.5671e-05
0.00168801
9.12071e-08
3.15529e-05
0.00160403
4.70371e-05
0.001528
6.17837e-05
0.00143656
7.5507e-05
0.00132513
8.7956e-05
0.00119341
9.89036e-05
0.00104295
0.000108157
0.00087564
0.000115548
0.000694151
0.000120949
0.00050125
0.000124259
0.000300031
9.33887e-05
0.000125414
1.557e-05
0.00167235
9.20908e-08
3.13512e-05
0.00158825
4.67376e-05
0.00151262
6.13913e-05
0.00142191
7.50286e-05
0.00131149
8.73999e-05
0.00118104
9.82795e-05