/*--------------------------------*- C++ -*----------------------------------*\
  =========                 |
  \\      /  F ield         | OpenFOAM: The Open Source CFD Toolbox
   \\    /   O peration     | Website:  https://openfoam.org
    \\  /    A nd           | Version:  6.0
     \\/     M anipulation  |
\*---------------------------------------------------------------------------*/
FoamFile
{
    version     2.0;
    format      ascii;
    class       volVectorField;
    location    "3.4";
    object      U;
}
// * * * * * * * * * * * * * * * * * * * * * * * * * * * * * * * * * * * * * //

dimensions      [0 1 -1 0 0 0 0];

internalField   nonuniform List<vector> 
24000
(
(0.999994 4.35064e-06 -7.96221e-17)
(0.999946 -1.65828e-05 1.08434e-16)
(0.99986 -6.53136e-05 -1.90672e-16)
(0.999758 -0.000149333 2.1041e-16)
(0.999674 -0.000260134 -1.03808e-15)
(0.999629 -0.000378041 -6.15369e-16)
(0.999639 -0.000474755 6.29975e-16)
(0.999695 -0.000529466 -1.39573e-15)
(0.999793 -0.000507381 4.38107e-16)
(0.999899 -0.00042118 -3.22128e-16)
(1 -8.62396e-05 -3.11603e-16)
(1.00124 0.00134108 -4.6112e-16)
(0.999987 9.68054e-06 1.16723e-16)
(0.999898 -4.16229e-05 -1.60454e-16)
(0.999742 -0.000141816 3.56294e-16)
(0.999561 -0.000302595 -8.89783e-17)
(0.999416 -0.000510118 4.62027e-16)
(0.999345 -0.000724751 6.22353e-16)
(0.999374 -0.000894707 -3.50465e-16)
(0.99949 -0.000983309 1.48278e-15)
(0.999676 -0.000927938 -3.11092e-16)
(0.999885 -0.000760758 1.5961e-17)
(0.999999 -0.00017229 8.1396e-17)
(1.00234 0.00195001 1.53529e-16)
(0.999985 1.21816e-05 -8.89043e-17)
(0.999905 -5.84735e-05 2.162e-16)
(0.999766 -0.000171621 -1.2349e-16)
(0.999604 -0.000337346 4.51618e-16)
(0.999476 -0.000545341 2.51642e-16)
(0.999417 -0.000755333 2.31472e-16)
(0.999455 -0.00091644 5.18408e-16)
(0.999574 -0.000998181 -6.59174e-16)
(0.999757 -0.000940186 -3.6785e-16)
(0.999977 -0.000789576 -1.29859e-16)
(0.999987 -0.000266198 -2.90409e-17)
(1.00243 0.00128637 4.85935e-16)
(0.999983 1.19986e-05 -3.79617e-17)
(0.999917 -7.68877e-05 -2.04556e-16)
(0.999802 -0.00019884 -3.15898e-16)
(0.999669 -0.000362228 -2.23894e-16)
(0.999566 -0.000561374 -1.31136e-16)
(0.999519 -0.000759196 -9.0601e-16)
(0.999558 -0.000909459 -1.43528e-15)
(0.99967 -0.00098878 1.63983e-16)
(0.999839 -0.000941222 4.69523e-17)
(1.00007 -0.000814629 6.45412e-16)
(0.999997 -0.000376727 -4.11914e-16)
(1.00222 0.000804059 -5.68735e-16)
(0.999979 9.98144e-06 6.7629e-17)
(0.999917 -9.83621e-05 3.3023e-17)
(0.999811 -0.000235233 1.6009e-16)
(0.999692 -0.000407742 -7.56813e-17)
(0.999601 -0.000612203 2.07957e-16)
(0.999564 -0.000811783 1.87199e-16)
(0.999607 -0.000962586 1.45197e-15)
(0.999723 -0.001043 -9.4867e-17)
(0.999893 -0.00099735 -2.79841e-16)
(1.00015 -0.000864776 7.60497e-17)
(1.00005 -0.000449013 2.84279e-16)
(1.00201 0.00066249 -1.50666e-16)
(0.999973 6.79856e-06 3.91358e-18)
(0.999913 -0.000120549 -1.90007e-17)
(0.999811 -0.000273949 -2.13671e-17)
(0.999702 -0.000458637 -3.86903e-18)
(0.999624 -0.000670411 -8.63034e-16)
(0.999599 -0.000870717 1.05614e-15)
(0.999652 -0.00101769 2.9307e-17)
(0.999779 -0.00109011 1.46235e-16)
(0.999958 -0.0010328 6.91652e-16)
(1.00024 -0.000878235 -3.40418e-16)
(1.00015 -0.000461771 5.15878e-16)
(1.00187 0.000617723 3.4526e-16)
(0.999967 2.74989e-06 -3.54168e-18)
(0.999909 -0.000142358 2.04904e-16)
(0.999813 -0.000311214 -2.07825e-16)
(0.999716 -0.000506654 -1.01342e-16)
(0.999654 -0.00072279 4.43515e-16)
(0.999645 -0.000919137 -2.18173e-16)
(0.999711 -0.00105691 -6.04232e-16)
(0.99985 -0.00111635 -3.13469e-16)
(1.00004 -0.00104464 1.22167e-16)
(1.00034 -0.00087334 6.02071e-16)
(1.00027 -0.000468716 -1.21779e-15)
(1.00179 0.000525533 3.16682e-16)
(0.99996 -2.01122e-06 -5.23119e-17)
(0.999905 -0.000163984 7.93255e-17)
(0.999815 -0.000348059 2.39476e-16)
(0.999729 -0.000554821 4.53392e-16)
(0.99968 -0.000776449 2.41369e-16)
(0.999686 -0.000970887 -2.67829e-16)
(0.999764 -0.00110287 -2.91209e-16)
(0.999913 -0.00115457 -1.39583e-16)
(1.0001 -0.00107576 4.82223e-17)
(1.00043 -0.000898741 -1.30398e-16)
(1.0004 -0.00051834 1.04269e-15)
(1.00174 0.000371627 -5.47692e-16)
(0.999952 -7.33087e-06 2.05967e-17)
(0.999899 -0.000185595 -1.94802e-16)
(0.999815 -0.00038528 1.46152e-17)
(0.999736 -0.000605086 -7.23533e-17)
(0.999697 -0.000835247 7.30143e-17)
(0.999714 -0.00103245 -6.11385e-17)
(0.999801 -0.00116478 5.1225e-17)
(0.99996 -0.00121592 5.58956e-16)
(1.00016 -0.00113731 -6.92585e-17)
(1.0005 -0.000959124 -7.89975e-16)
(1.00051 -0.000601537 -8.79648e-16)
(1.00173 0.000205767 9.7458e-16)
(0.999943 -1.3101e-05 7.32015e-17)
(0.999893 -0.000207098 4.86943e-18)
(0.999813 -0.00042225 1.84527e-16)
(0.999741 -0.000655494 -4.83824e-16)
(0.999711 -0.000895037 -1.15471e-16)
(0.999738 -0.00109656 5.22592e-16)
(0.999834 -0.00123122 -4.43886e-16)
(1 -0.00128381 -6.69411e-16)
(1.00021 -0.00120691 2.0501e-16)
(1.00057 -0.00102488 2.05539e-16)
(1.00063 -0.000681198 6.54106e-16)
(1.00175 7.27616e-05 -1.37847e-16)
(0.999934 -1.92643e-05 -1.00402e-16)
(0.999886 -0.00022843 -2.31192e-17)
(0.999813 -0.000458298 -2.19919e-16)
(0.999748 -0.000703941 3.65951e-17)
(0.999727 -0.000951475 1.67301e-16)
(0.999765 -0.00115576 -3.60654e-16)
(0.999871 -0.00129069 2.70939e-16)
(1.00005 -0.00134214 7.54275e-16)
(1.00027 -0.00126419 -5.62357e-16)
(1.00064 -0.00107367 2.24294e-16)
(1.00075 -0.000736531 -8.47369e-16)
(1.0018 -2.10447e-05 -9.03398e-16)
(0.999924 -2.58154e-05 6.51826e-18)
(0.99988 -0.000249702 1.92037e-16)
(0.999814 -0.000493456 -1.92614e-16)
(0.999757 -0.000750154 1.48975e-16)
(0.999747 -0.00100402 -4.57815e-16)
(0.999797 -0.00120928 -2.03978e-16)
(0.999915 -0.00134199 6.64123e-17)
(1.00011 -0.00138916 -3.02926e-16)
(1.00033 -0.00130704 -3.94306e-16)
(1.00072 -0.00110566 3.6299e-16)
(1.00088 -0.000772378 2.85649e-16)
(1.00187 -9.48682e-05 1.00563e-17)
(0.999913 -3.27491e-05 2.45255e-17)
(0.999873 -0.000271069 -1.91917e-17)
(0.999816 -0.000528114 5.30731e-16)
(0.999768 -0.000794886 1.53117e-16)
(0.999769 -0.00105429 2.61693e-16)
(0.999831 -0.00126017 -2.92512e-16)
(0.999961 -0.00139 -1.47921e-16)
(1.00016 -0.00143177 1.20606e-16)
(1.0004 -0.0013444 4.65711e-16)
(1.0008 -0.00113273 -1.21954e-15)
(1.001 -0.000803549 -4.86603e-16)
(1.00194 -0.000167245 5.41788e-16)
(0.999902 -4.0061e-05 -7.57456e-17)
(0.999865 -0.000292646 -6.74243e-17)
(0.999817 -0.000562602 -4.19447e-16)
(0.999779 -0.000838737 -3.31471e-16)
(0.999791 -0.00110348 -2.32305e-16)
(0.999865 -0.00131076 3.65134e-16)
(1.00001 -0.00143872 2.51079e-16)
(1.00022 -0.00147599 -2.76589e-16)
(1.00047 -0.00138416 -3.71138e-16)
(1.00088 -0.0011642 -1.32939e-16)
(1.00111 -0.000839533 6.91044e-16)
(1.00201 -0.000243845 -4.81483e-16)
(0.99989 -4.77225e-05 4.07721e-17)
(0.999856 -0.000314472 3.22319e-17)
(0.999817 -0.000597071 4.95471e-17)
(0.999789 -0.000881912 7.9061e-17)
(0.999812 -0.00115183 8.22036e-17)
(0.999897 -0.00136137 -1.48303e-16)
(1.00005 -0.0014889 7.77415e-18)
(1.00028 -0.00152323 -3.83104e-16)
(1.00053 -0.00142837 3.62699e-16)
(1.00096 -0.00120193 1.38246e-15)
(1.00122 -0.00088111 -2.05494e-16)
(1.00209 -0.000321496 6.70622e-16)
(0.999877 -5.56937e-05 -3.93682e-17)
(0.999846 -0.000336543 1.48659e-18)
(0.999816 -0.000631601 1.47864e-16)
(0.999799 -0.000924509 2.09112e-16)
(0.999833 -0.00119918 2.31318e-16)
(0.999929 -0.00141127 -1.50293e-16)
(1.00009 -0.0015393 -2.42011e-16)
(1.00033 -0.00157182 5.91808e-16)
(1.0006 -0.00147503 1.43302e-16)
(1.00103 -0.00124319 -1.49005e-15)
(1.00133 -0.000924951 2.35551e-16)
(1.00217 -0.000396388 2.22358e-17)
(0.999863 -6.39054e-05 9.00763e-17)
(0.999835 -0.000358813 3.3096e-17)
(0.999813 -0.000666251 -3.19601e-16)
(0.999808 -0.000966794 1.37941e-16)
(0.999854 -0.00124576 -5.61473e-17)
(0.999961 -0.00146021 3.67507e-16)
(1.00014 -0.00158899 6.2569e-16)
(1.00039 -0.00162019 1.0535e-16)
(1.00067 -0.00152201 5.10815e-16)
(1.00111 -0.00128551 1.23879e-15)
(1.00143 -0.000968869 1.43311e-15)
(1.00225 -0.000467906 -5.35181e-16)
(0.999849 -7.22728e-05 3.46214e-17)
(0.999822 -0.000381204 -2.74495e-17)
(0.999808 -0.000701068 3.03988e-16)
(0.999815 -0.00100917 -2.77311e-16)
(0.999873 -0.00129224 3.92544e-16)
(0.999992 -0.00150883 4.03382e-18)
(1.00018 -0.00163834 -4.06765e-16)
(1.00044 -0.00166839 1.28257e-16)
(1.00074 -0.00156913 -4.4229e-16)
(1.00119 -0.00132872 -2.16474e-16)
(1.00154 -0.00101329 -5.74824e-16)
(1.00234 -0.000538066 -1.06256e-16)
(0.999833 -8.06852e-05 -4.15198e-17)
(0.999807 -0.000403597 -2.31137e-16)
(0.999801 -0.000736017 -1.26522e-16)
(0.999819 -0.00105198 1.55302e-16)
(0.99989 -0.00133944 -2.82067e-17)
(1.00002 -0.0015583 -2.62119e-16)
(1.00022 -0.00168866 -5.46671e-17)
(1.0005 -0.00171777 -3.37758e-17)
(1.0008 -0.00161771 -5.30929e-16)
(1.00127 -0.00137419 -3.89474e-16)
(1.00164 -0.00105972 -1.72352e-15)
(1.00242 -0.000608322 1.02259e-15)
(0.999817 -8.90264e-05 -3.95606e-17)
(0.999791 -0.000425855 2.40631e-16)
(0.999792 -0.00077097 -1.71784e-16)
(0.99982 -0.00109535 7.668e-17)
(0.999904 -0.00138786 -1.88255e-16)
(1.00005 -0.0016095 -4.26504e-16)
(1.00026 -0.00174109 5.41077e-17)
(1.00055 -0.00176958 -6.90856e-17)
(1.00087 -0.00166899 2.87414e-16)
(1.00134 -0.00142292 4.46721e-16)
(1.00174 -0.00110876 1.54242e-15)
(1.00251 -0.000678484 -9.88983e-16)
(0.9998 -9.71704e-05 2.84552e-17)
(0.999774 -0.000447826 -1.12029e-17)
(0.999781 -0.00080571 2.72417e-17)
(0.999819 -0.0011391 -6.3596e-17)
(0.999915 -0.00143748 -2.36554e-16)
(1.00007 -0.00166263 -9.46668e-18)
(1.0003 -0.00179595 -1.25498e-16)
(1.00061 -0.00182414 -6.70411e-16)
(1.00094 -0.00172307 4.03965e-16)
(1.00142 -0.00147457 2.18785e-16)
(1.00184 -0.00115961 6.52672e-17)
(1.00259 -0.000747066 2.22365e-16)
(0.999783 -0.000105002 3.25479e-17)
(0.999756 -0.000469384 -2.63998e-16)
(0.999769 -0.000840017 5.16975e-16)
(0.999817 -0.00118289 4.92025e-17)
(0.999925 -0.00148786 1.43491e-16)
(1.0001 -0.0017172 8.69964e-16)
(1.00034 -0.00185269 7.15527e-16)
(1.00066 -0.00188077 3.62164e-16)
(1.00101 -0.00177905 -9.59728e-16)
(1.0015 -0.00152791 -2.79897e-16)
(1.00194 -0.00121095 9.25951e-17)
(1.00268 -0.000813134 -3.32065e-17)
(0.999764 -0.00011241 -6.09955e-17)
(0.999737 -0.000490428 1.05166e-16)
(0.999756 -0.000873709 -6.9707e-17)
(0.999813 -0.00122637 -8.85359e-17)
(0.999933 -0.00153846 -2.55281e-16)
(1.00012 -0.00177252 -5.05154e-16)
(1.00037 -0.00191049 -2.74591e-16)
(1.00071 -0.00193849 -2.17796e-17)
(1.00107 -0.00183583 2.78144e-16)
(1.00158 -0.00158183 -2.6527e-16)
(1.00204 -0.00126201 -1.56511e-15)
(1.00278 -0.000876727 7.93073e-16)
(0.999745 -0.000119306 4.45349e-17)
(0.999718 -0.000510904 6.34589e-18)
(0.999743 -0.00090671 -1.89695e-16)
(0.999809 -0.00126931 -1.45103e-16)
(0.999941 -0.00158887 -8.05313e-17)
(1.00014 -0.00182801 -1.1905e-16)
(1.00041 -0.00196867 -2.17192e-16)
(1.00076 -0.00199664 -2.31735e-16)
(1.00114 -0.00189282 -6.75627e-17)
(1.00166 -0.00163595 -2.4613e-16)
(1.00213 -0.00131292 9.28995e-17)
(1.00287 -0.000938766 -1.57818e-16)
(0.999725 -0.00012561 1.52653e-17)
(0.999698 -0.000530787 1.49432e-16)
(0.999729 -0.000939028 4.0909e-17)
(0.999804 -0.00131166 -1.57127e-17)
(0.999948 -0.00163892 9.88941e-17)
(1.00016 -0.00188344 2.77954e-16)
(1.00045 -0.00202702 1.07004e-16)
(1.00081 -0.00205509 2.67661e-16)
(1.00121 -0.00195011 3.13805e-16)
(1.00174 -0.00169059 -3.06273e-16)
(1.00223 -0.00136439 1.00526e-15)
(1.00296 -0.00100007 -6.22777e-16)
(0.999704 -0.000131268 -2.07002e-17)
(0.999677 -0.000550079 -1.9551e-17)
(0.999715 -0.000970746 -1.47805e-16)
(0.999799 -0.00135352 -9.72949e-17)
(0.999956 -0.0016887 -3.48812e-17)
(1.00018 -0.00193887 -1.79024e-16)
(1.00048 -0.00208565 1.04207e-17)
(1.00087 -0.0021141 -3.11574e-16)
(1.00128 -0.00200813 -2.70738e-17)
(1.00182 -0.00174634 1.05253e-15)
(1.00233 -0.00141705 4.9649e-16)
(1.00306 -0.00106116 5.31332e-17)
(0.999681 -0.000136233 -9.84845e-18)
(0.999656 -0.000568791 -1.14701e-16)
(0.9997 -0.00100196 -5.05519e-17)
(0.999794 -0.00139505 -7.55407e-17)
(0.999963 -0.00173843 5.57783e-16)
(1.0002 -0.00199452 -1.29249e-16)
(1.00052 -0.00214483 1.53881e-16)
(1.00092 -0.002174 -1.59906e-16)
(1.00135 -0.00206729 -2.55509e-16)
(1.0019 -0.00180356 -2.6541e-16)
(1.00243 -0.00147112 -1.96445e-17)
(1.00315 -0.00112214 -2.01388e-16)
(0.999658 -0.00014048 3.41014e-17)
(0.999634 -0.000586939 -4.08669e-17)
(0.999685 -0.00103278 1.71696e-16)
(0.999788 -0.00143643 3.46688e-16)
(0.99997 -0.00178833 -5.27422e-16)
(1.00023 -0.00205065 4.99276e-16)
(1.00056 -0.00220478 -2.76132e-16)
(1.00097 -0.00223501 -1.44207e-16)
(1.00142 -0.00212775 -1.94298e-16)
(1.00198 -0.00186226 -3.55374e-16)
(1.00253 -0.00152637 -1.50837e-16)
(1.00325 -0.00118258 -1.20848e-16)
(0.999633 -0.00014399 -5.82485e-18)
(0.999611 -0.000604533 -1.5673e-17)
(0.999669 -0.00106324 -1.57888e-17)
(0.999782 -0.00147778 -3.35597e-16)
(0.999975 -0.00183858 -1.44101e-16)
(1.00025 -0.00210743 -1.30565e-17)
(1.00059 -0.00226564 -3.89991e-16)
(1.00102 -0.00229718 7.18881e-16)
(1.00149 -0.00218945 -5.87443e-18)
(1.00207 -0.00192216 2.51056e-16)
(1.00262 -0.00158236 1.77912e-16)
(1.00335 -0.00124196 -5.44138e-18)
(0.999607 -0.000146762 -1.88981e-17)
(0.999587 -0.000621588 1.0792e-16)
(0.999651 -0.00109339 3.21445e-17)
(0.999774 -0.00151916 4.61258e-16)
(0.99998 -0.00188925 2.51757e-16)
(1.00027 -0.00216496 -4.22429e-16)
(1.00063 -0.00232745 1.91838e-16)
(1.00108 -0.00236043 -3.78755e-16)
(1.00155 -0.00225216 1.31159e-15)
(1.00215 -0.0019829 -1.01979e-16)
(1.00272 -0.0016386 2.24439e-17)
(1.00344 -0.00129997 -1.409e-16)
(0.999579 -0.0001488 -1.97193e-17)
(0.999563 -0.000638114 7.53936e-17)
(0.999633 -0.00112322 -9.05832e-17)
(0.999765 -0.00156054 -4.4767e-16)
(0.999984 -0.00194033 4.63619e-16)
(1.00028 -0.00222319 2.71251e-16)
(1.00066 -0.00239014 3.43127e-16)
(1.00113 -0.0024246 1.53564e-16)
(1.00162 -0.00231563 -1.08946e-16)
(1.00223 -0.0020441 5.47182e-16)
(1.00282 -0.00169473 -9.92711e-16)
(1.00354 -0.00135663 1.12169e-15)
(0.999551 -0.000150118 2.74775e-17)
(0.999537 -0.000654136 -1.44297e-16)
(0.999615 -0.00115272 -8.4261e-17)
(0.999756 -0.00160187 -2.68476e-17)
(0.999988 -0.0019917 -1.77322e-16)
(1.0003 -0.00228199 -5.03667e-18)
(1.0007 -0.00245354 -2.82056e-16)
(1.00118 -0.00248948 -2.13519e-16)
(1.00169 -0.0023796 -1.20478e-15)
(1.00232 -0.00210549 -3.97736e-16)
(1.00292 -0.00175053 -2.55792e-16)
(1.00364 -0.00141197 -3.007e-17)
(0.99952 -0.000150737 1.05376e-17)
(0.999511 -0.000669681 -1.18628e-17)
(0.999595 -0.0011819 -4.26332e-17)
(0.999746 -0.00164307 3.25681e-16)
(0.999991 -0.00204322 -5.53033e-16)
(1.00032 -0.00234119 -4.10482e-16)
(1.00073 -0.00251747 3.5273e-16)
(1.00123 -0.00255488 -2.33501e-17)
(1.00176 -0.00244387 7.29967e-17)
(1.0024 -0.00216691 4.21548e-16)
(1.00302 -0.00180598 -1.68545e-16)
(1.00374 -0.00146634 3.04141e-16)
(0.999489 -0.000150685 -1.51795e-17)
(0.999484 -0.000684793 1.70144e-16)
(0.999575 -0.00121079 2.88657e-16)
(0.999736 -0.00168413 -9.61889e-17)
(0.999993 -0.00209476 4.35795e-17)
(1.00034 -0.0024006 1.82378e-16)
(1.00077 -0.00258173 -4.21119e-16)
(1.00128 -0.00262064 4.43491e-16)
(1.00183 -0.00250834 3.44888e-16)
(1.00248 -0.00222837 -2.84229e-16)
(1.00311 -0.00186125 3.22382e-18)
(1.00384 -0.00152013 -1.90516e-17)
(0.999456 -0.000149993 -4.29612e-18)
(0.999456 -0.000699521 -2.47175e-16)
(0.999554 -0.00123945 -4.85217e-17)
(0.999725 -0.00172506 5.79697e-17)
(0.999996 -0.00214629 6.52432e-16)
(1.00036 -0.00246016 5.21018e-17)
(1.0008 -0.00264626 3.91012e-16)
(1.00134 -0.00268672 -7.24375e-16)
(1.0019 -0.00257307 3.63861e-16)
(1.00257 -0.00229006 -4.3719e-16)
(1.00321 -0.00191668 9.38204e-16)
(1.00394 -0.00157381 -4.66571e-16)
(0.999422 -0.000148698 2.14745e-17)
(0.999426 -0.000713924 1.09586e-16)
(0.999532 -0.00126798 -1.16396e-16)
(0.999714 -0.00176597 4.7923e-17)
(0.999998 -0.00219788 -3.92468e-16)
(1.00037 -0.0025199 -1.38206e-16)
(1.00084 -0.00271113 2.26932e-17)
(1.00139 -0.00275325 5.1907e-16)
(1.00198 -0.00263829 3.13366e-16)
(1.00266 -0.0023523 -2.16406e-17)
(1.00331 -0.00197271 1.23622e-15)
(1.00405 -0.0016279 -6.10422e-16)
(0.999386 -0.000146838 1.4436e-18)
(0.999396 -0.000728057 1.19607e-16)
(0.999509 -0.0012965 1.19508e-16)
(0.999701 -0.00180702 -1.44083e-17)
(0.999999 -0.00224973 2.87022e-16)
(1.00039 -0.00258003 3.71221e-16)
(1.00088 -0.00277654 -1.13298e-16)
(1.00144 -0.0028205 5.21436e-16)
(1.00205 -0.00270433 -1.19678e-15)
(1.00274 -0.0024155 -1.32794e-16)
(1.00341 -0.00202974 -1.77962e-15)
(1.00415 -0.00168281 1.40851e-16)
(0.99935 -0.000144459 -6.22834e-17)
(0.999364 -0.00074197 7.44183e-17)
(0.999485 -0.00132511 -2.12691e-17)
(0.999688 -0.00184842 1.55172e-16)
(1 -0.00230209 -2.13706e-16)
(1.00041 -0.00264085 -5.2094e-16)
(1.00091 -0.00284282 -4.00795e-17)
(1.0015 -0.00288881 -3.71672e-16)
(1.00212 -0.00277157 1.27484e-15)
(1.00283 -0.00248 -4.29613e-17)
(1.00351 -0.00208809 3.81923e-16)
(1.00425 -0.00173875 7.04031e-16)
(0.999311 -0.000141605 1.54888e-17)
(0.99933 -0.000755703 -3.19054e-16)
(0.999459 -0.00135391 1.09977e-16)
(0.999673 -0.00189033 -5.10152e-16)
(0.999999 -0.00235524 2.55283e-16)
(1.00042 -0.00270268 8.45399e-16)
(1.00094 -0.00291033 -2.19241e-16)
(1.00155 -0.00295852 -5.19244e-16)
(1.00219 -0.0028403 -4.05706e-16)
(1.00291 -0.00254605 -8.02418e-17)
(1.00361 -0.00214792 3.9588e-16)
(1.00435 -0.00179544 -6.43817e-16)
(0.999272 -0.000138328 3.55217e-17)
(0.999296 -0.000769285 9.26954e-17)
(0.999431 -0.00138296 -3.33983e-16)
(0.999656 -0.0019329 4.62645e-16)
(0.999997 -0.00240939 -6.95714e-16)
(1.00044 -0.00276579 -6.95101e-16)
(1.00098 -0.00297932 2.6504e-16)
(1.0016 -0.00302987 9.32267e-16)
(1.00226 -0.00291073 -5.25266e-16)
(1.003 -0.00261373 2.11409e-16)
(1.00371 -0.00220919 -1.70838e-16)
(1.00446 -0.00185286 6.03099e-17)
(0.999231 -0.00013468 -6.05066e-18)
(0.999259 -0.000782735 2.00055e-16)
(0.999402 -0.00141226 2.66465e-16)
(0.999638 -0.00197618 -3.17228e-16)
(0.999994 -0.00246467 1.54357e-16)
(1.00045 -0.00283034 4.28192e-16)
(1.00101 -0.00304995 1.44021e-16)
(1.00165 -0.00310296 -9.6626e-17)
(1.00233 -0.00298285 7.36305e-16)
(1.00308 -0.00268293 3.7476e-16)
(1.00381 -0.0022717 7.04984e-17)
(1.00456 -0.00191069 6.36389e-17)
(0.99919 -0.000130721 1.36023e-17)
(0.999222 -0.000796071 -2.23174e-16)
(0.999371 -0.00144182 -5.89666e-17)
(0.999618 -0.00202017 1.24237e-16)
(0.999988 -0.00252109 7.51182e-16)
(1.00046 -0.00289636 -3.85373e-16)
(1.00104 -0.00312223 -3.28387e-16)
(1.0017 -0.00317776 -7.46403e-17)
(1.0024 -0.00305657 -7.28273e-16)
(1.00317 -0.00275348 4.23541e-16)
(1.00391 -0.00233524 -5.89438e-17)
(1.00467 -0.00196887 3.78569e-16)
(0.999147 -0.000126514 -1.07932e-17)
(0.999183 -0.000809309 1.39739e-16)
(0.999339 -0.0014716 -9.64296e-17)
(0.999596 -0.0020648 3.619e-16)
(0.999981 -0.00257858 -7.05689e-16)
(1.00048 -0.00296375 4.95925e-16)
(1.00107 -0.00319604 -4.82562e-17)
(1.00175 -0.0032541 -5.04207e-17)
(1.00247 -0.00313168 7.53582e-16)
(1.00325 -0.00282513 -2.90587e-16)
(1.00401 -0.0023996 -2.37876e-16)
(1.00477 -0.00202695 -9.5621e-17)
(0.999103 -0.000122124 1.51918e-18)
(0.999144 -0.000822475 -2.60455e-17)
(0.999305 -0.00150157 1.17501e-16)
(0.999574 -0.00211 -4.01415e-16)
(0.999973 -0.002637 3.48415e-16)
(1.00049 -0.00303236 1.166e-16)
(1.0011 -0.00327121 1.67966e-16)
(1.0018 -0.00333179 -8.77128e-16)
(1.00254 -0.00320797 -3.68078e-16)
(1.00334 -0.0028977 -1.32413e-15)
(1.00411 -0.00246468 -6.92342e-16)
(1.00488 -0.00208505 -7.115e-16)
(0.999058 -0.000117622 -1.97226e-17)
(0.999103 -0.000835602 1.80546e-17)
(0.999271 -0.00153173 -2.20183e-16)
(0.99955 -0.00215567 1.44779e-17)
(0.999964 -0.00269621 -8.85144e-17)
(1.00049 -0.003102 5.26625e-18)
(1.00113 -0.00334752 3.10296e-16)
(1.00185 -0.00341061 1.18584e-15)
(1.0026 -0.00328525 1.03111e-16)
(1.00342 -0.00297101 8.2642e-16)
(1.0042 -0.00253034 -1.21297e-16)
(1.00498 -0.0021429 1.29135e-15)
(0.999012 -0.000113078 1.8976e-17)
(0.999061 -0.000848737 1.09613e-17)
(0.999236 -0.00156207 2.97561e-16)
(0.999525 -0.00220178 -1.74059e-16)
(0.999955 -0.00275611 -2.0384e-16)
(1.0005 -0.00317251 -2.35475e-16)
(1.00116 -0.0034248 -1.42854e-16)
(1.0019 -0.0034904 -4.75468e-16)
(1.00267 -0.00336341 8.55913e-17)
(1.00351 -0.00304499 8.21115e-16)
(1.0043 -0.00259655 7.97214e-16)
(1.00509 -0.00220072 -1.14684e-15)
(0.998966 -0.000108563 -1.93732e-17)
(0.999018 -0.000861936 -2.39665e-16)
(0.9992 -0.00159265 -1.27603e-16)
(0.9995 -0.00224832 2.92348e-17)
(0.999944 -0.00281663 5.11003e-16)
(1.00051 -0.00324381 -4.05273e-16)
(1.00118 -0.00350296 -3.6175e-16)
(1.00194 -0.00357108 -4.47269e-16)
(1.00274 -0.00344238 -5.36309e-16)
(1.00359 -0.00311964 -1.77416e-15)
(1.0044 -0.00266335 -5.93393e-16)
(1.0052 -0.00225847 5.81471e-16)
(0.998919 -0.000104144 9.69571e-18)
(0.998975 -0.000875265 2.00162e-16)
(0.999163 -0.00162351 6.03745e-17)
(0.999474 -0.00229532 3.72543e-16)
(0.999933 -0.00287779 -5.89804e-16)
(1.00052 -0.00331587 5.75037e-16)
(1.00121 -0.00358196 -6.85805e-18)
(1.00199 -0.00365264 1.054e-15)
(1.00281 -0.0035222 3.80601e-16)
(1.00368 -0.00319497 2.31372e-15)
(1.0045 -0.00273081 3.29974e-16)
(1.00531 -0.00231633 5.41918e-16)
(0.998871 -9.98879e-05 -1.97951e-17)
(0.99893 -0.000888786 4.29975e-17)
(0.999125 -0.00165472 9.36525e-17)
(0.999447 -0.00234284 -1.45695e-16)
(0.999922 -0.00293962 5.03951e-16)
(1.00052 -0.00338873 -6.06694e-16)
(1.00124 -0.00366184 5.54009e-16)
(1.00204 -0.00373509 -1.42231e-16)
(1.00288 -0.00360287 2.32201e-16)
(1.00377 -0.00327102 -1.68732e-15)
(1.0046 -0.00279868 1.00272e-15)
(1.00541 -0.0023741 -1.20943e-15)
(0.998822 -9.58578e-05 2.12918e-17)
(0.998884 -0.000902569 -1.19028e-16)
(0.999087 -0.00168637 -1.73065e-16)
(0.99942 -0.00239098 -1.71124e-16)
(0.99991 -0.00300221 5.22005e-17)
(1.00053 -0.00346246 -1.59723e-16)
(1.00126 -0.00374265 -3.01765e-16)
(1.00209 -0.0038185 -6.69755e-16)
(1.00295 -0.00368444 -2.39922e-16)
(1.00385 -0.00334781 3.94358e-16)
(1.0047 -0.00286696 -9.84999e-16)
(1.00552 -0.00243183 6.99245e-16)
(0.998772 -9.21107e-05 5.13027e-17)
(0.998837 -0.000916672 1.44741e-17)
(0.999047 -0.00171852 -4.60524e-17)
(0.999391 -0.0024398 1.24357e-16)
(0.999897 -0.00306563 -6.88167e-16)
(1.00054 -0.00353713 1.16507e-16)
(1.00129 -0.00382445 5.04941e-16)
(1.00214 -0.00390289 -2.81939e-16)
(1.00301 -0.00376692 9.47287e-17)
(1.00394 -0.00342531 -1.24146e-16)
(1.0048 -0.00293559 2.24835e-16)
(1.00563 -0.00248962 -5.26967e-16)
(0.998722 -8.86986e-05 -3.34898e-17)
(0.998789 -0.000931154 7.35643e-17)
(0.999006 -0.00175124 -1.34621e-16)
(0.999362 -0.00248937 -8.06617e-17)
(0.999883 -0.00312995 5.11946e-16)
(1.00054 -0.00361278 2.11775e-16)
(1.00132 -0.00390727 -2.23567e-16)
(1.00218 -0.00398827 4.58653e-16)
(1.00308 -0.00385031 1.51006e-16)
(1.00402 -0.00350352 2.97978e-16)
(1.0049 -0.00300459 -3.07027e-16)
(1.00574 -0.00254752 -1.10694e-17)
(0.998671 -8.5668e-05 -5.12876e-17)
(0.99874 -0.000946064 -2.66992e-17)
(0.998965 -0.00178458 1.3878e-16)
(0.999331 -0.00253973 1.22691e-16)
(0.999868 -0.0031952 1.59599e-16)
(1.00054 -0.00368945 4.31778e-16)
(1.00134 -0.00399111 -1.93793e-16)
(1.00223 -0.00407463 -8.644e-17)
(1.00315 -0.00393456 -1.83207e-16)
(1.00411 -0.00358236 -6.70002e-18)
(1.005 -0.00307382 6.64134e-18)
(1.00585 -0.00260558 3.85789e-16)
(0.99862 -8.30575e-05 8.62838e-17)
(0.99869 -0.000961448 -1.39931e-17)
(0.998922 -0.00181859 1.60415e-16)
(0.9993 -0.00259093 -7.3297e-17)
(0.999853 -0.0032614 -1.40517e-16)
(1.00055 -0.00376712 -5.68462e-16)
(1.00137 -0.00407595 -3.44303e-16)
(1.00227 -0.00416194 2.24214e-16)
(1.00322 -0.00401966 3.53155e-17)
(1.00419 -0.00366184 5.36946e-17)
(1.0051 -0.00314333 8.3091e-17)
(1.00596 -0.00266393 3.44843e-17)
(0.998567 -8.08979e-05 -8.60596e-17)
(0.998639 -0.000977346 1.31707e-16)
(0.998878 -0.00185329 -2.3617e-16)
(0.999268 -0.00264298 1.62544e-16)
(0.999836 -0.00332854 -3.77385e-18)
(1.00055 -0.00384578 3.85916e-16)
(1.00139 -0.00416177 3.36027e-16)
(1.00232 -0.00425018 -2.24434e-16)
(1.00328 -0.00410558 3.6924e-16)
(1.00428 -0.00374198 -2.39303e-16)
(1.0052 -0.00321318 7.14653e-16)
(1.00607 -0.00272283 7.22324e-16)
(0.998514 -7.92104e-05 6.59514e-17)
(0.998587 -0.000993798 -9.53404e-17)
(0.998833 -0.00188874 -4.00659e-17)
(0.999234 -0.0026959 1.20996e-16)
(0.999819 -0.00339665 -1.51899e-16)
(1.00055 -0.00392543 -2.36303e-16)
(1.00141 -0.00424857 3.60958e-16)
(1.00237 -0.00433936 -2.11432e-16)
(1.00335 -0.00419238 -4.49613e-16)
(1.00436 -0.00382287 2.41848e-16)
(1.0053 -0.00328362 -4.10203e-16)
(1.00618 -0.00278245 -5.65905e-16)
(0.998461 -7.80084e-05 2.74178e-17)
(0.998533 -0.00101084 -1.01393e-16)
(0.998786 -0.00192496 4.14414e-16)
(0.9992 -0.00274974 -2.02575e-16)
(0.999801 -0.00346575 8.28009e-17)
(1.00055 -0.00400609 -1.92111e-16)
(1.00144 -0.00433639 -4.74369e-16)
(1.00241 -0.00442953 4.12067e-16)
(1.00342 -0.00428011 4.74866e-16)
(1.00445 -0.00390457 -5.99356e-16)
(1.0054 -0.00335487 -2.33861e-16)
(1.00629 -0.00284293 -1.77434e-16)
(0.998406 -7.72943e-05 -7.85879e-17)
(0.998478 -0.00102849 3.06238e-17)
(0.998739 -0.00196199 -1.87576e-16)
(0.999165 -0.00280454 2.56706e-17)
(0.999782 -0.00353588 1.14278e-16)
(1.00055 -0.00408782 4.66738e-16)
(1.00146 -0.00442527 5.04872e-18)
(1.00246 -0.00452078 -2.43789e-17)
(1.00348 -0.00436888 -6.52954e-16)
(1.00453 -0.00398725 9.58377e-17)
(1.0055 -0.00342715 -1.3494e-16)
(1.0064 -0.00290438 7.23402e-17)
(0.99835 -7.70629e-05 -1.26892e-17)
(0.998422 -0.00104679 -2.33611e-17)
(0.99869 -0.00199988 -2.73734e-16)
(0.999128 -0.00286033 -5.00302e-17)
(0.999762 -0.0036071 -1.79863e-16)
(1.00055 -0.00417068 -1.30178e-16)
(1.00148 -0.00451533 -1.32778e-16)
(1.0025 -0.00461322 1.63166e-16)
(1.00355 -0.00445881 1.83649e-16)
(1.00462 -0.00407101 3.14191e-16)
(1.00561 -0.00350059 4.42781e-16)
(1.00651 -0.0029666 -2.28805e-16)
(0.998294 -7.72997e-05 3.06865e-17)
(0.998364 -0.00106574 1.5951e-17)
(0.99864 -0.00203863 2.61348e-16)
(0.99909 -0.00291716 -5.25176e-17)
(0.999741 -0.00367947 -9.69127e-17)
(1.00055 -0.00425478 -1.49369e-16)
(1.0015 -0.00460666 4.43051e-16)
(1.00254 -0.00470697 -2.97158e-16)
(1.00362 -0.00455003 1.04988e-16)
(1.00471 -0.00415598 4.0923e-16)
(1.00571 -0.00357531 -2.60271e-16)
(1.00662 -0.00302972 -4.07113e-17)
(0.998237 -7.79857e-05 -4.1957e-17)
(0.998305 -0.00108537 4.34157e-17)
(0.998588 -0.00207828 8.90732e-17)
(0.999051 -0.00297507 1.89816e-16)
(0.999719 -0.00375304 3.4212e-16)
(1.00055 -0.00434016 -2.54715e-16)
(1.00152 -0.00469935 -1.68967e-16)
(1.00259 -0.00480209 1.78187e-17)
(1.00368 -0.00464259 -3.1162e-16)
(1.00479 -0.00424215 -4.48507e-16)
(1.00581 -0.00365132 5.97449e-16)
(1.00673 -0.00309355 2.50182e-16)
(0.998178 -7.90952e-05 6.7529e-17)
(0.998245 -0.00110566 8.25139e-17)
(0.998536 -0.00211882 -8.4611e-17)
(0.99901 -0.00303405 -1.72129e-16)
(0.999695 -0.00382785 4.47745e-17)
(1.00055 -0.0044269 4.17053e-16)
(1.00154 -0.00479346 -2.9777e-16)
(1.00263 -0.00489866 -1.07592e-17)
(1.00375 -0.00473654 3.97686e-16)
(1.00488 -0.00432956 -3.89802e-16)
(1.00591 -0.00372864 -5.07328e-16)
(1.00684 -0.0031582 -1.29859e-16)
(0.998119 -8.06015e-05 8.35437e-18)
(0.998184 -0.00112661 8.4478e-18)
(0.998481 -0.00216023 -2.78395e-16)
(0.998968 -0.0030941 -2.27128e-16)
(0.99967 -0.00390389 -3.82239e-16)
(1.00054 -0.00451499 5.20731e-17)
(1.00156 -0.00488901 8.54033e-17)
(1.00267 -0.00499665 -5.9436e-17)
(1.00381 -0.00483185 -3.26701e-16)
(1.00496 -0.00441814 7.32112e-16)
(1.00601 -0.00380712 3.79113e-16)
(1.00695 -0.00322311 -1.16846e-16)
(0.998058 -8.24734e-05 -3.96663e-17)
(0.998121 -0.00114821 -7.73249e-17)
(0.998426 -0.0022025 3.71125e-16)
(0.998925 -0.00315518 3.38104e-16)
(0.999644 -0.00398113 -7.43518e-18)
(1.00054 -0.00460442 7.23748e-17)
(1.00158 -0.00498596 -1.12389e-16)
(1.00271 -0.00509605 8.25972e-17)
(1.00388 -0.0049285 3.47791e-16)
(1.00505 -0.00450787 -1.80771e-16)
(1.00611 -0.00388669 1.28763e-16)
(1.00707 -0.00328851 2.17032e-16)
(0.997996 -8.46825e-05 -2.48192e-18)
(0.998057 -0.00117043 5.35004e-17)
(0.998368 -0.00224558 -1.62482e-16)
(0.99888 -0.00321725 -3.1955e-16)
(0.999617 -0.00405953 1.93566e-16)
(1.00053 -0.00469513 -4.4404e-16)
(1.00159 -0.00508426 1.31241e-16)
(1.00275 -0.00519677 -1.94947e-16)
(1.00394 -0.00502637 3.08284e-17)
(1.00513 -0.00459863 1.85412e-16)
(1.00622 -0.00396714 -1.59729e-16)
(1.00718 -0.00335414 -4.83693e-16)
(0.997932 -8.71966e-05 2.29293e-17)
(0.997992 -0.00119326 -1.48545e-16)
(0.99831 -0.00228944 1.66717e-16)
(0.998834 -0.00328026 2.80094e-16)
(0.999588 -0.00413901 -3.6032e-16)
(1.00052 -0.00478705 -3.05e-17)
(1.00161 -0.00518383 2.19441e-16)
(1.00279 -0.00529876 -2.64897e-16)
(1.004 -0.00512543 -3.20993e-16)
(1.00522 -0.00469041 9.08012e-17)
(1.00632 -0.00404848 -2.78303e-16)
(1.0073 -0.00342038 4.25996e-16)
(0.997867 -8.99871e-05 1.50677e-17)
(0.997925 -0.00121666 7.82919e-17)
(0.99825 -0.00233404 -7.73552e-17)
(0.998787 -0.00334414 2.36031e-16)
(0.999558 -0.00421952 1.75107e-16)
(1.00051 -0.00488013 1.47503e-16)
(1.00162 -0.00528461 -2.48131e-16)
(1.00283 -0.00540193 3.7822e-16)
(1.00407 -0.0052256 -3.36477e-18)
(1.0053 -0.00478314 -7.19862e-16)
(1.00642 -0.00413049 1.3768e-16)
(1.00741 -0.00348711 -2.68096e-17)
(0.9978 -9.3021e-05 -2.40202e-17)
(0.997858 -0.00124061 8.08747e-17)
(0.99819 -0.00237936 -2.69481e-16)
(0.998738 -0.00340887 -1.97745e-16)
(0.999527 -0.00430099 4.02631e-17)
(1.0005 -0.0049743 1.55098e-16)
(1.00164 -0.00538653 2.59181e-16)
(1.00287 -0.00550625 3.53792e-17)
(1.00413 -0.00532688 2.80342e-17)
(1.00539 -0.00487688 4.79345e-16)
(1.00653 -0.00421319 1.45855e-16)
(1.00753 -0.00355464 -2.32602e-16)
(0.997731 -9.62698e-05 -1.89862e-17)
(0.997788 -0.00126509 -2.24415e-17)
(0.998127 -0.00242537 2.85629e-16)
(0.998689 -0.0034744 4.56388e-18)
(0.999495 -0.00438341 2.46215e-16)
(1.00049 -0.00506952 -2.32181e-16)
(1.00165 -0.00548957 -1.52015e-16)
(1.00291 -0.00561169 -4.51686e-17)
(1.0042 -0.00542923 5.44566e-18)
(1.00547 -0.00497159 2.91189e-16)
(1.00663 -0.00429652 -4.53904e-16)
(1.00765 -0.00362304 -2.67487e-16)
(0.997661 -9.96992e-05 5.17744e-18)
(0.997718 -0.00129007 -7.88323e-17)
(0.998064 -0.00247204 -2.76292e-16)
(0.998638 -0.00354073 4.92692e-17)
(0.999462 -0.00446676 2.302e-17)
(1.00048 -0.00516578 2.9283e-18)
(1.00167 -0.00559372 -8.03213e-17)
(1.00295 -0.00571827 3.49294e-16)
(1.00426 -0.00553271 3.83032e-16)
(1.00556 -0.00506737 -2.54783e-16)
(1.00674 -0.00438068 6.87573e-16)
(1.00776 -0.00369261 6.31195e-16)