1.45 	0 	0 	-0.0074713 	-0.00260571 	3.85157e-21
2.35 	0 	0 	0.0629421 	-0.00668526 	2.37928e-21
