1.45 	0 	0 	0.00452284 	-0.00388837 	3.94871e-21
2.35 	0 	0 	0.117441 	-0.00859477 	1.90803e-21
