1.45 	0 	0 	-0.303596
2.35 	0 	0 	-0.134611
