1.45 	0 	0 	-0.307774
2.35 	0 	0 	-0.127788
