1.275 	2.15223e-18 	-2.76991e-20 	-0.0337242 	-0.00044929 	-2.00151e-22
1.825 	2.15223e-18 	-1.39322e-20 	-0.00814763 	-0.00281396 	1.80014e-21
2.375 	2.15223e-18 	-2.66896e-23 	0.118996 	-0.0033508 	-7.51127e-22
