1.45 	0 	0 	-0.00746101 	-0.00260912 	1.67911e-20
2.35 	0 	0 	0.0635291 	-0.00661581 	1.0255e-20
