1.45 	0 	0 	-0.294548
2.35 	0 	0 	-0.130051
