1.45 	0 	0 	-0.00797238 	-0.00257706 	3.79861e-21
2.35 	0 	0 	0.0616356 	-0.00664194 	2.30847e-21
