1.45 	0 	0 	-0.00819543 	-0.00256731 	3.77913e-21
2.35 	0 	0 	0.0613195 	-0.00662616 	2.27823e-21
