1.45 	0 	0 	-0.291698
2.35 	0 	0 	-0.12702
