/*--------------------------------*- C++ -*----------------------------------*\
  =========                 |
  \\      /  F ield         | OpenFOAM: The Open Source CFD Toolbox
   \\    /   O peration     | Website:  https://openfoam.org
    \\  /    A nd           | Version:  6.0
     \\/     M anipulation  |
\*---------------------------------------------------------------------------*/
FoamFile
{
    version     2.0;
    format      ascii;
    class       surfaceScalarField;
    location    "4.6";
    object      phi;
}
// * * * * * * * * * * * * * * * * * * * * * * * * * * * * * * * * * * * * * //

dimensions      [0 3 -1 0 0 0 0];

internalField   nonuniform List<scalar> 
68636
(
3.02285e-05
0.00310561
1.78323e-09
6.08422e-05
0.00307074
9.10907e-05
0.00300252
0.00012048
0.00290145
0.000148623
0.00276857
0.000175172
0.00260534
0.000199816
0.00241356
0.000222267
0.00219538
0.000242271
0.00195319
0.000259598
0.00168966
0.000274053
0.00140768
0.000285472
0.00111032
0.000293735
0.000800895
0.000298722
0.000482576
0.000157569
0.000299759
2.99494e-05
0.00307565
7.19156e-09
6.02854e-05
0.0030404
9.02592e-05
0.00297254
0.000119381
0.00287233
0.000147268
0.00274069
0.000173575
0.00257904
0.000197994
0.00238915
0.00022024
0.00217314
0.000240061
0.00193337
0.00025723
0.00167249
0.000271553
0.00139336
0.000282868
0.00109901
0.00029107
0.0007927
0.000295937
0.00047772
0.000156487
0.000297039
2.96724e-05
0.00304597
1.27264e-08
5.97332e-05
0.00301034
8.94351e-05
0.00294284
0.000118293
0.00284347
0.000145926
0.00271305
0.000171994
0.00255297
0.000196191
0.00236496
0.000218234
0.00215109
0.000237874
0.00191373
0.000254886
0.00165548
0.000269079
0.00137917
0.000280289
0.0010878
0.000288418
0.000784569
0.000293282
0.000472851
0.000155204
0.000294551
2.93979e-05
0.00301655
1.82337e-08
5.91861e-05
0.00298056
8.86185e-05
0.00291341
0.000117214
0.00281488
0.000144597
0.00268567
0.000170428
0.00252714
0.000194404
0.00234098
0.000216247
0.00212925
0.000235708
0.00189427
0.000252564
0.00163862
0.000266627
0.00136511
0.000277733
0.0010767
0.000285782
0.000776524
0.000290631
0.000468008
0.000153847
0.000291997
2.91259e-05
0.0029874
2.37234e-08
5.8644e-05
0.00295104
8.78094e-05
0.00288425
0.000116146
0.00278654
0.00014328
0.00265854
0.000168876
0.00250154
0.000192634
0.00231722
0.000214277
0.00210761
0.00023356
0.00187499
0.000250262
0.00162192
0.000264197
0.00135117
0.000275201
0.00106569
0.000283168
0.000768553
0.000287981
0.000463189
0.000152405
0.00028941
2.88564e-05
0.00295852
2.90148e-08
5.81067e-05
0.00292179
8.70075e-05
0.00285535
0.000115087
0.00275846
0.000141974
0.00263165
0.000167337
0.00247618
0.000190879
0.00229368
0.000212325
0.00208616
0.000231431
0.00185588
0.000247981
0.00160537
0.000261788
0.00133736
0.000272692
0.00105479
0.00028058
0.000760667
0.000285351
0.000458422
0.000150942
0.000286819
2.85893e-05
0.00292989
3.40861e-08
5.75742e-05
0.0028928
8.62127e-05
0.00282671
0.000114037
0.00273064
0.00014068
0.00260501
0.000165813
0.00245104
0.000189139
0.00227036
0.00021039
0.00206491
0.000229322
0.00183695
0.000245721
0.00158897
0.000259402
0.00132368
0.000270207
0.00104398
0.000278018
0.000752853
0.000282745
0.000453691
0.000149443
0.000284231
2.83247e-05
0.00290153
3.88971e-08
5.70465e-05
0.00286408
8.5425e-05
0.00279833
0.000112996
0.00270307
0.000139397
0.00257861
0.000164301
0.00242614
0.000187416
0.00224724
0.000208473
0.00204385
0.000227232
0.00181819
0.000243481
0.00157272
0.000257038
0.00131012
0.000267744
0.00103328
0.000275482
0.000745117
0.000280163
0.000449012
0.000147955
0.000281654
2.80625e-05
0.00287342
4.33981e-08
5.65235e-05
0.00283562
8.46444e-05
0.00277021
0.000111965
0.00267574
0.000138126
0.00255245
0.000162804
0.00240146
0.000185708
0.00222434
0.000206572
0.00202299
0.000225161
0.0017996
0.000241262
0.00155662
0.000254695
0.00129669
0.000265304
0.00102266
0.00027297
0.000737449
0.000277607
0.000444371
0.000146452
0.000279099
2.78028e-05
0.00284557
4.76107e-08
5.60054e-05
0.00280742
8.38708e-05
0.00274234
0.000110943
0.00264867
0.000136867
0.00252652
0.000161319
0.00237701
0.000184015
0.00220164
0.00020469
0.00200231
0.000223109
0.00178118
0.000239063
0.00154067
0.000252373
0.00128338
0.000262887
0.00101215
0.000270482
0.000729855
0.000275076
0.000439778
0.000144964
0.000276567
2.75456e-05
0.00281798
5.15268e-08
5.54919e-05
0.00277947
8.31041e-05
0.00271473
0.000109931
0.00262184
0.000135618
0.00250084
0.000159848
0.00235278
0.000182337
0.00217915
0.000202824
0.00198182
0.000221075
0.00176293
0.000236884
0.00152486
0.000250072
0.00127019
0.000260491
0.00100173
0.000268017
0.000722327
0.00027257
0.000435221
0.000143465
0.00027406
2.72907e-05
0.00279063
5.51643e-08
5.49831e-05
0.00275178
8.23444e-05
0.00268737
0.000108927
0.00259526
0.000134381
0.00247538
0.000158391
0.00232877
0.000180674
0.00215687
0.000200974
0.00196152
0.00021906
0.00174485
0.000234724
0.00150919
0.000247793
0.00125712
0.000258117
0.000991407
0.000265575
0.00071487
0.000270088
0.000430709
0.00014198
0.000271576
2.70383e-05
0.00276353
5.85687e-08
5.44788e-05
0.00272434
8.15914e-05
0.00266026
0.000107932
0.00256892
0.000133155
0.00245016
0.000156946
0.00230498
0.000179027
0.00213479
0.000199142
0.00194141
0.000217063
0.00172693
0.000232585
0.00149367
0.000245534
0.00124417
0.000255764
0.000981176
0.000263155
0.000707477
0.000267629
0.000426232
0.000140486
0.000269113
2.67881e-05
0.00273668
6.17844e-08
5.39792e-05
0.00269715
8.08452e-05
0.00263339
0.000106947
0.00254282
0.000131939
0.00242517
0.000155514
0.0022814
0.000177394
0.00211291
0.000197326
0.00192148
0.000215084
0.00170917
0.000230465
0.00147829
0.000243296
0.00123134
0.000253434
0.000971039
0.000260757
0.000700155
0.000265192
0.000421799
0.00013901
0.000266671
2.65403e-05
0.00271008
6.48764e-08
5.3484e-05
0.0026702
8.01057e-05
0.00260677
0.00010597
0.00251695
0.000130735
0.0024004
0.000154095
0.00225804
0.000175776
0.00209123
0.000195527
0.00190172
0.000213123
0.00169157
0.000228364
0.00146305
0.000241079
0.00121862
0.000251124
0.000960992
0.000258382
0.000692896
0.000262777
0.000417402
0.00013753
0.000264249
2.62948e-05
0.00268372
6.79155e-08
5.29934e-05
0.0026435
7.93729e-05
0.00258039
0.000105001
0.00249133
0.000129541
0.00237586
0.000152689
0.00223489
0.000174173
0.00206975
0.000193744
0.00188215
0.00021118
0.00167414
0.000226283
0.00144794
0.000238882
0.00120603
0.000248836
0.000951039
0.000256028
0.000685704
0.000260384
0.000413047
0.000136071
0.000261846
2.60516e-05
0.00265759
7.0961e-08
5.25071e-05
0.00261705
7.86466e-05
0.00255425
0.000104042
0.00246593
0.000128359
0.00235154
0.000151296
0.00221196
0.000172584
0.00204846
0.000191978
0.00186276
0.000209255
0.00165686
0.00022422
0.00143298
0.000236705
0.00119354
0.000246569
0.000941174
0.000253696
0.000678575
0.000258013
0.000408728
0.000134613
0.000259464
2.58106e-05
0.00263171
7.40632e-08
5.20253e-05
0.00259083
7.79269e-05
0.00252835
0.000103091
0.00244077
0.000127187
0.00232745
0.000149915
0.00218923
0.00017101
0.00202736
0.000190227
0.00184354
0.000207347
0.00163974
0.000222176
0.00141815
0.000234548
0.00118117
0.000244322
0.0009314
0.000251386
0.000671513
0.000255664
0.00040445
0.000133175
0.000257104
2.55717e-05
0.00260606
7.7258e-08
5.15478e-05
0.00256486
7.72136e-05
0.00250268
0.000102149
0.00241583
0.000126025
0.00230357
0.000148547
0.0021667
0.00016945
0.00200646
0.000188492
0.0018245
0.000205457
0.00162277
0.000220151
0.00140345
0.00023241
0.00116891
0.000242096
0.000921713
0.000249096
0.000664511
0.000253337
0.000400208
0.00013174
0.000254766
2.53351e-05
0.00258064
8.05594e-08
5.10746e-05
0.00253912
7.65068e-05
0.00247725
0.000101215
0.00239112
0.000124874
0.00227991
0.000147191
0.00214439
0.000167904
0.00198575
0.000186773
0.00180563
0.000203584
0.00160596
0.000218145
0.00138889
0.000230293
0.00115676
0.000239891
0.000912116
0.000246828
0.000657575
0.000251031
0.000396006
0.000130323
0.000252449
2.51005e-05
0.00255546
8.39719e-08
5.06057e-05
0.00251361
7.58063e-05
0.00245205
0.00010029
0.00236664
0.000123733
0.00225647
0.000145848
0.00212227
0.000166372
0.00196522
0.00018507
0.00178693
0.000201728
0.00158931
0.000216157
0.00137446
0.000228194
0.00114473
0.000237705
0.000902604
0.00024458
0.0006507
0.000248746
0.000391838
0.000128909
0.000250154
2.48681e-05
0.0025305
8.74851e-08
5.0141e-05
0.00248834
7.51122e-05
0.00242708
9.93728e-05
0.00234238
0.000122603
0.00223324
0.000144516
0.00210036
0.000164854
0.00194488
0.000183382
0.0017684
0.000199889
0.0015728
0.000214187
0.00136017
0.000226115
0.0011328
0.00023554
0.00089318
0.000242352
0.000643888
0.000246481
0.000387711
0.000127513
0.00024788
2.46377e-05
0.00250578
9.10806e-08
4.96805e-05
0.0024633
7.44243e-05
0.00240234
9.84641e-05
0.00231834
0.000121483
0.00221022
0.000143197
0.00207865
0.00016335
0.00192473
0.00018171
0.00175004
0.000198066
0.00155644
0.000212234
0.001346
0.000224054
0.00112098
0.000233394
0.00088384
0.000240145
0.000637135
0.000244238
0.000383617
0.000126119
0.000245626
2.44095e-05
0.00248127
9.47321e-08
4.92241e-05
0.00243848
7.37426e-05
0.00237782
9.75636e-05
0.00229452
0.000120373
0.00218741
0.000141889
0.00205713
0.00016186
0.00190476
0.000180052
0.00173185
0.00019626
0.00154023
0.0002103
0.00133196
0.000222013
0.00110926
0.000231268
0.000874586
0.000237959
0.000630445
0.000242015
0.000379562
0.000124745
0.000243392
2.41832e-05
0.00245699
9.84087e-08
4.87719e-05
0.00241389
7.30671e-05
0.00235352
9.66712e-05
0.00227091
0.000119273
0.00216481
0.000140594
0.00203581
0.000160383
0.00188497
0.00017841
0.00171382
0.000194471
0.00152417
0.000208383
0.00131805
0.00021999
0.00109766
0.000229161
0.000865414
0.000235792
0.000623814
0.000239812
0.00037554
0.000123375
0.000241177
2.3959e-05
0.00243293
1.02073e-07
4.83237e-05
0.00238953
7.23977e-05
0.00232945
9.5787e-05
0.00224752
0.000118183
0.00214241
0.00013931
0.00201468
0.000158919
0.00186536
0.000176783
0.00169596
0.000192698
0.00150826
0.000206484
0.00130426
0.000217986
0.00108616
0.000227074
0.000856326
0.000233645
0.000617243
0.000237629
0.000371557
0.000122023
0.000238983
2.37367e-05
0.00240909
1.05688e-07
4.78796e-05
0.00236539
7.17343e-05
0.00230559
9.49107e-05
0.00222435
0.000117103
0.00212022
0.000138038
0.00199375
0.000157469
0.00184593
0.00017517
0.00167826
0.000190941
0.00149249
0.000204602
0.0012906
0.000216
0.00107476
0.000225006
0.00084732
0.000231518
0.000610731
0.000235466
0.000367608
0.000120677
0.000236808
2.35165e-05
0.00238546
1.09212e-07
4.74394e-05
0.00234146
7.10769e-05
0.00228196
9.40424e-05
0.00220138
0.000116033
0.00209823
0.000136778
0.001973
0.000156032
0.00182668
0.000173573
0.00166072
0.0001892
0.00147686
0.000202737
0.00127706
0.000214032
0.00106347
0.000222956
0.000838396
0.00022941
0.000604278
0.000233323
0.000363695
0.000119348
0.000234654
2.32982e-05
0.00236205
1.1261e-07
4.70033e-05
0.00231776
7.04255e-05
0.00225853
9.31819e-05
0.00217863
0.000114973
0.00207644
0.000135529
0.00195245
0.000154608
0.0018076
0.000171989
0.00164334
0.000187475
0.00146137
0.00020089
0.00126365
0.000212081
0.00105227
0.000220925
0.000829552
0.000227321
0.000597882
0.000231199
0.000359816
0.000118025
0.000232519
2.30819e-05
0.00233885
1.15851e-07
4.6571e-05
0.00229427
6.978e-05
0.00223532
9.23292e-05
0.00215608
0.000113922
0.00205485
0.000134291
0.00193208
0.000153197
0.00178869
0.000170421
0.00162611
0.000185766
0.00144603
0.000199059
0.00125036
0.000210149
0.00104118
0.000218913
0.000820788
0.000225251
0.000591544
0.000229095
0.000355973
0.000116718
0.000230404
2.28675e-05
0.00231587
1.18917e-07
4.61427e-05
0.002271
6.91403e-05
0.00221233
9.14843e-05
0.00213373
0.00011288
0.00203345
0.000133064
0.0019119
0.000151798
0.00176996
0.000168866
0.00160904
0.000184072
0.00143082
0.000197244
0.00123718
0.000208234
0.00103019
0.000216919
0.000812103
0.0002232
0.000585263
0.00022701
0.000352162
0.000115418
0.000228308
2.26551e-05
0.00229309
1.21802e-07
4.57183e-05
0.00224793
6.85064e-05
0.00218954
9.06471e-05
0.00211159
0.000111849
0.00201225
0.000131849
0.0018919
0.000150413
0.0017514
0.000167325
0.00159213
0.000182394
0.00141575
0.000195447
0.00122413
0.000206337
0.0010193
0.000214944
0.000803497
0.000221168
0.000579039
0.000224944
0.000348387
0.000114133
0.000226231
2.24446e-05
0.00227052
1.24516e-07
4.52977e-05
0.00222508
6.78783e-05
0.00216696
8.98174e-05
0.00208965
0.000110826
0.00199124
0.000130645
0.00187208
0.00014904
0.001733
0.000165799
0.00157537
0.00018073
0.00140082
0.000193665
0.0012112
0.000204457
0.00100851
0.000212986
0.000794969
0.000219155
0.000572869
0.000222897
0.000344644
0.000112854
0.000224173
2.22361e-05
0.00224816
1.27086e-07
4.48809e-05
0.00220243
6.72558e-05
0.00214458
8.89953e-05
0.00206791
0.000109813
0.00197042
0.000129451
0.00185244
0.000147679
0.00171477
0.000164286
0.00155877
0.000179082
0.00138603
0.0001919
0.00119838
0.000202594
0.000997816
0.000211046
0.000786517
0.00021716
0.000566756
0.000220868
0.000340936
0.000111592
0.000222133
2.20294e-05
0.002226
1.29549e-07
4.44679e-05
0.00218
6.6639e-05
0.00212241
8.81806e-05
0.00204637
0.000108809
0.00194979
0.000128269
0.00183298
0.000146331
0.00169671
0.000162788
0.00154231
0.00017745
0.00137137
0.000190151
0.00118568
0.000200749
0.000987219
0.000209124
0.000778142
0.000215183
0.000560697
0.000218858
0.000337259
0.000110336
0.000220112
2.18246e-05
0.00220404
1.31952e-07
4.40587e-05
0.00215776
6.60278e-05
0.00210044
8.73733e-05
0.00202503
0.000107814
0.00192935
0.000127097
0.0018137
0.000144996
0.00167881
0.000161302
0.001526
0.000175831
0.00135684
0.000188418
0.00117309
0.00019892
0.000976717
0.00020722
0.000769843
0.000213224
0.000554694
0.000216867
0.000333617
0.000109095
0.000218109
2.16217e-05
0.00218229
1.34343e-07
4.36531e-05
0.00213573
6.54222e-05
0.00207867
8.65734e-05
0.00200388
0.000106828
0.0019091
0.000125936
0.00179459
0.000143672
0.00166108
0.000159831
0.00150984
0.000174228
0.00134244
0.0001867
0.00116062
0.000197107
0.00096631
0.000205332
0.000761618
0.000211283
0.000548743
0.000214893
0.000330006
0.000107862
0.000216125
2.14206e-05
0.00216073
1.36766e-07
4.32513e-05
0.0021139
6.48221e-05
0.0020571
8.57807e-05
0.00198292
0.000105851
0.00188903
0.000124785
0.00177565
0.00014236
0.0016435
0.000158373
0.00149383
0.000172639
0.00132817
0.000184999
0.00114826
0.000195312
0.000955997
0.000203463
0.000753467
0.00020936
0.000542847
0.000212938
0.000326428
0.000106643
0.000214159
2.12214e-05
0.00213937
1.39256e-07
4.28531e-05
0.00209227
6.42274e-05
0.00203573
8.49953e-05
0.00196215
0.000104883
0.00186914
0.000123645
0.00175689
0.000141061
0.00162609
0.000156928
0.00147797
0.000171065
0.00131404
0.000183313
0.00113601
0.000193532
0.000945778
0.00020161
0.00074539
0.000207454
0.000537003
0.000211
0.000322881
0.000105431
0.000212211
2.1024e-05
0.0021182
1.41835e-07
4.24586e-05
0.00207083
6.36382e-05
0.00201455
8.4217e-05
0.00194157
0.000103924
0.00184943
0.000122515
0.0017383
0.000139773
0.00160883
0.000155496
0.00146224
0.000169505
0.00130003
0.000181642
0.00112388
0.000191769
0.00093565
0.000199774
0.000737386
0.000205566
0.000531211
0.00020908
0.000319367
0.000104232
0.000210281
2.08284e-05
0.00209723
1.44512e-07
4.20677e-05
0.00204959
6.30543e-05
0.00199356
8.34458e-05
0.00192118
0.000102973
0.00182991
0.000121396
0.00171988
0.000138497
0.00159173
0.000154077
0.00144666
0.000167959
0.00128614
0.000179986
0.00111185
0.000190022
0.000925614
0.000197955
0.000729453
0.000203695
0.000525472
0.000207178
0.000315882
0.000103041
0.000208368
2.06347e-05
0.00207645
1.47281e-07
4.16803e-05
0.00202855
6.24758e-05
0.00197277
8.26816e-05
0.00190097
0.000102032
0.00181056
0.000120287
0.00170162
0.000137232
0.00157478
0.000152671
0.00143122
0.000166428
0.00127239
0.000178346
0.00109993
0.000188291
0.000915669
0.000196152
0.000721593
0.000201841
0.000519784
0.000205293
0.00031243
0.000101863
0.000206473
2.04427e-05
0.00205585
1.50127e-07
4.12965e-05
0.0020077
6.19025e-05
0.00195216
8.19244e-05
0.00188095
0.000101098
0.00179138
0.000119188
0.00168353
0.000135979
0.00155799
0.000151278
0.00141592
0.00016491
0.00125876
0.000176721
0.00108812
0.000186576
0.000905814
0.000194366
0.000713803
0.000200004
0.000514146
0.000203426
0.000309008
0.000100692
0.000204595
2.02524e-05
0.00203545
1.53021e-07
4.09162e-05
0.00198703
6.13345e-05
0.00193174
8.11741e-05
0.00186111
0.000100174
0.00177238
0.000118099
0.00166561
0.000134737
0.00154135
0.000149898
0.00140076
0.000163407
0.00124525
0.00017511
0.00107642
0.000184877
0.000896048
0.000192597
0.000706083
0.000198184
0.00050856
0.000201575
0.000305617
9.95341e-05
0.000202734
2.00639e-05
0.00201523
1.55935e-07
4.05394e-05
0.00196656
6.07716e-05
0.00191151
8.04306e-05
0.00184145
9.92574e-05
0.00175356
0.000117019
0.00164785
0.000133507
0.00152486
0.00014853
0.00138574
0.000161917
0.00123186
0.000173514
0.00106482
0.000183193
0.000886369
0.000190843
0.000698433
0.00019638
0.000503024
0.000199741
0.000302255
9.83842e-05
0.00020089
1.98772e-05
0.00199519
1.58832e-07
4.0166e-05
0.00194627
6.02139e-05
0.00189146
7.96939e-05
0.00182197
9.83494e-05
0.0017349
0.00011595
0.00163025
0.000132288
0.00150853
0.000147175
0.00137085
0.00016044
0.0012186
0.000171933
0.00105333
0.000181524
0.000876778
0.000189106
0.000690851
0.000194593
0.000497537
0.000197924
0.000298924
9.72462e-05
0.000199064
1.96922e-05
0.00197534
1.61682e-07
3.97961e-05
0.00192616
5.96613e-05
0.0018716
7.8964e-05
0.00180267
9.74498e-05
0.00171642
0.00011489
0.00161281
0.00013108
0.00149234
0.000145832
0.0013561
0.000158977
0.00120545
0.000170366
0.00104194
0.000179871
0.000867274
0.000187385
0.000683338
0.000192823
0.000492099
0.000196124
0.000295622
9.61166e-05
0.000197253
1.95088e-05
0.00195567
1.64453e-07
3.94295e-05
0.00190624
5.91137e-05
0.00185191
7.82407e-05
0.00178354
9.65583e-05
0.0016981
0.000113841
0.00159552
0.000129884
0.00147629
0.000144502
0.00134148
0.000157528
0.00119242
0.000168814
0.00103065
0.000178233
0.000857855
0.000185679
0.000675892
0.000191068
0.00048671
0.000194341
0.00029235
9.49981e-05
0.00019546
1.93272e-05
0.00193617
1.67123e-07
3.90663e-05
0.0018865
5.85712e-05
0.00183241
7.7524e-05
0.00176459
9.5675e-05
0.00167995
0.0001128
0.0015784
0.000128698
0.0014604
0.000143183
0.001327
0.000156092
0.00117952
0.000167276
0.00101947
0.00017661
0.000848521
0.000183989
0.000668514
0.00018933
0.00048137
0.000192573
0.000289107
9.38883e-05
0.000193683
1.91472e-05
0.00191685
1.69674e-07
3.87064e-05
0.00186694
5.80335e-05
0.00181308
7.68138e-05
0.00174581
9.47998e-05
0.00166196
0.000111769
0.00156143
0.000127523
0.00144464
0.000141877
0.00131264
0.000154669
0.00116673
0.000165752
0.00100838
0.000175002
0.000839271
0.000182314
0.000661201
0.000187608
0.000476077
0.000190822
0.000285893
9.27889e-05
0.000191922
1.89689e-05
0.00189771
1.72095e-07
3.83498e-05
0.00184756
5.75008e-05
0.00179393
7.61101e-05
0.0017272
9.39325e-05
0.00164414
0.000110748
0.00154461
0.000126358
0.00142903
0.000140583
0.00129842
0.000153259
0.00115405
0.000164242
0.000997402
0.000173408
0.000830105
0.000180655
0.000653955
0.000185901
0.000470831
0.000189087
0.000282707
9.16983e-05
0.000190178
1.87922e-05
0.00187875
1.74385e-07
3.79965e-05
0.00182836
5.6973e-05
0.00177495
7.54129e-05
0.00170876
9.30732e-05
0.00162648
0.000109736
0.00152795
0.000125205
0.00141356
0.0001393
0.00128432
0.000151861
0.00114149
0.000162746
0.000986518
0.00017183
0.000821021
0.000179011
0.000646773
0.00018421
0.000465633
0.000187368
0.00027955
9.06177e-05
0.000188449
1.86171e-05
0.00185995
1.7655e-07
3.76463e-05
0.00180933
5.645e-05
0.00175615
7.4722e-05
0.00169049
9.22217e-05
0.00160898
0.000108733
0.00151144
0.000124062
0.00139824
0.00013803
0.00127036
0.000150477
0.00112904
0.000161263
0.000975732
0.000170265
0.000812019
0.000177382
0.000639656
0.000182535
0.000460481
0.000185664
0.00027642
8.95463e-05
0.000186736
1.84436e-05
0.00184133
1.78601e-07
3.72994e-05
0.00179048
5.59318e-05
0.00173752
7.40375e-05
0.00167238
9.13781e-05
0.00159164
0.00010774
0.00149508
0.000122929
0.00138305
0.000136771
0.00125651
0.000149106
0.00111671
0.000159794
0.000965044
0.000168715
0.000803098
0.000175769
0.000632603
0.000180875
0.000455375
0.000183976
0.000273319
8.84841e-05
0.000185039
1.82718e-05
0.00182288
1.8056e-07
3.69557e-05
0.00177179
5.54183e-05
0.00171905
7.33592e-05
0.00165444
9.05421e-05
0.00157446
0.000106755
0.00147887
0.000121807
0.00136799
0.000135523
0.0012428
0.000147747
0.00110448
0.000158339
0.000954452
0.000167179
0.000794258
0.000174169
0.000625613
0.00017923
0.000450315
0.000182304
0.000270245
8.74314e-05
0.000183358
1.81015e-05
0.0018046
1.82451e-07
3.66151e-05
0.00175328
5.49095e-05
0.00170076
7.26871e-05
0.00163667
8.97138e-05
0.00155743
0.00010578
0.0014628
0.000120695
0.00135308
0.000134287
0.00122921
0.0001464
0.00109237
0.000156897
0.000943956
0.000165658
0.000785497
0.000172585
0.000618686
0.0001776
0.0004453
0.000180647
0.000267198
8.63873e-05
0.000181692
1.79327e-05
0.00178648
1.84303e-07
3.62776e-05
0.00173493
5.44053e-05
0.00168263
7.20211e-05
0.00161905
8.88931e-05
0.00154056
0.000104813
0.00144688
0.000119593
0.0013383
0.000133062
0.00121574
0.000145066
0.00108037
0.000155468
0.000933554
0.00016415
0.000776815
0.000171015
0.000611822
0.000175986
0.00044033
0.000179006
0.000264178
8.53529e-05
0.000180041
1.77655e-05
0.00176853
1.86145e-07
3.59432e-05
0.00171676
5.39058e-05
0.00166467
7.13613e-05
0.00160159
8.80799e-05
0.00152384
0.000103855
0.00143111
0.000118501
0.00132365
0.000131849
0.00120239
0.000143744
0.00106847
0.000154052
0.000923246
0.000162656
0.000768211
0.00016946
0.000605018
0.000174386
0.000435404
0.000177379
0.000261185
8.43267e-05
0.000178405
1.75998e-05
0.00175074
1.88006e-07
3.56118e-05
0.00169874
5.34108e-05
0.00164687
7.07075e-05
0.0015843
8.72742e-05
0.00150727
0.000102906
0.00141547
0.00011742
0.00130914
0.000130646
0.00118916
0.000142434
0.00105668
0.000152649
0.000913032
0.000161176
0.000759684
0.000167919
0.000598276
0.000172801
0.000430522
0.000175767
0.000258219
8.33101e-05
0.000176785
1.74357e-05
0.00173311
1.89909e-07
3.52835e-05
0.0016809
5.29204e-05
0.00162923
7.00597e-05
0.00156716
8.64758e-05
0.00149086
0.000101966
0.00139998
0.000116348
0.00129476
0.000129455
0.00117606
0.000141136
0.001045
0.000151259
0.000902909
0.00015971
0.000751234
0.000166392
0.000591594
0.00017123
0.000425684
0.00017417
0.000255279
8.23012e-05
0.000175179
1.7273e-05
0.00171565
1.91875e-07
3.49582e-05
0.00166321
5.24345e-05
0.00161176
6.94178e-05
0.00155018
8.56848e-05
0.00147459
0.000101035
0.00138463
0.000115286
0.00128051
0.000128275
0.00116307
0.00013985
0.00103343
0.000149882
0.000892877
0.000158257
0.00074286
0.000164879
0.000584973
0.000169674
0.000420889
0.000172588
0.000252365
8.13024e-05
0.000173589
1.71119e-05
0.00169834
1.93914e-07
3.46359e-05
0.00164569
5.1953e-05
0.00159444
6.87819e-05
0.00153335
8.4901e-05
0.00145847
0.000100112
0.00136942
0.000114234
0.00126638
0.000127105
0.0011502
0.000138576
0.00102196
0.000148518
0.000882936
0.000156817
0.000734561
0.00016338
0.00057841
0.000168132
0.000416137
0.000171021
0.000249476
8.03105e-05
0.000172012
1.69522e-05
0.00168119
1.96028e-07
3.43165e-05
0.00162832
5.14759e-05
0.00157728
6.81517e-05
0.00151667
8.41245e-05
0.0014425
9.91971e-05
0.00135435
0.000113192
0.00125239
0.000125946
0.00113744
0.000137314
0.00101059
0.000147166
0.000873084
0.000155391
0.000726337
0.000161895
0.000571907
0.000166605
0.000411427
0.000169468
0.000246614
7.93288e-05
0.000170451
1.6794e-05
0.0016642
1.98211e-07
3.4e-05
0.00161112
5.10032e-05
0.00156028
6.75273e-05
0.00150015
8.3355e-05
0.00142667
9.8291e-05
0.00133941
0.000112159
0.00123852
0.000124798
0.0011248
0.000136063
0.000999322
0.000145827
0.000863321
0.000153977
0.000718187
0.000160423
0.000565461
0.000165091
0.000406759
0.000167929
0.000243776
7.83537e-05
0.000168904
1.66372e-05
0.00164736
2.00449e-07
3.36865e-05
0.00159407
5.05349e-05
0.00154343
6.69087e-05
0.00148377
8.25926e-05
0.00141098
9.73932e-05
0.00132461
0.000111136
0.00122478
0.000123661
0.00111228
0.000134824
0.000988159
0.0001445
0.000853646
0.000152577
0.00071011
0.000158965
0.000559074
0.000163592
0.000402133
0.000166404
0.000240965
7.7389e-05
0.000167371
1.64818e-05
0.00163068
2.0272e-07
3.33759e-05
0.00157717
5.00708e-05
0.00152673
6.62958e-05
0.00146755
8.18373e-05
0.00139544
9.65036e-05
0.00130995
0.000110122
0.00121116
0.000122533
0.00109987
0.000133597
0.000977096
0.000143185
0.000844058
0.00015119
0.000702105
0.000157521
0.000552743
0.000162106
0.000397548
0.000164894
0.000238177
7.64302e-05
0.000165852
1.63279e-05
0.00161415
2.05e-07
3.30681e-05
0.00156043
4.9611e-05
0.00151019
6.56885e-05
0.00145147
8.10888e-05
0.00138004
9.56222e-05
0.00129542
0.000109117
0.00119767
0.000121417
0.00108757
0.00013238
0.000966133
0.000141882
0.000834556
0.000149815
0.000694172
0.000156089
0.000546469
0.000160634
0.000393004
0.000163397
0.000235414
7.5482e-05
0.000164347
1.61755e-05
0.00159776
2.07258e-07
3.27631e-05
0.00154385
4.91555e-05
0.0014938
6.50867e-05
0.00143554
8.03473e-05
0.00136478
9.47489e-05
0.00128101
0.000108122
0.00118429
0.00012031
0.00107538
0.000131175
0.000955268
0.000140591
0.00082514
0.000148453
0.000686311
0.000154671
0.000540251
0.000159176
0.0003885
0.000161914
0.000232675
7.45392e-05
0.000162856
1.60244e-05
0.00158153
2.09467e-07
3.24609e-05
0.00152741
4.87041e-05
0.00147756
6.44905e-05
0.00141975
7.96126e-05
0.00134966
9.38837e-05
0.00126674
0.000107135
0.00117104
0.000119214
0.0010633
0.000129981
0.000944502
0.000139313
0.000815808
0.000147104
0.00067852
0.000153267
0.000534089
0.000157731
0.000384037
0.000160445
0.000229962
7.36071e-05
0.000161379
1.58747e-05
0.00156544
2.11603e-07
3.21615e-05
0.00151112
4.82569e-05
0.00146146
6.38998e-05
0.00140411
7.88846e-05
0.00133468
9.30265e-05
0.0012526
0.000106158
0.00115791
0.000118128
0.00105133
0.000128798
0.000933832
0.000138046
0.00080656
0.000145767
0.000670798
0.000151875
0.000527982
0.000156299
0.000379613
0.00015899
0.000227271
7.26801e-05
0.000159916
1.57264e-05
0.0015495
2.13645e-07
3.18649e-05
0.00149498
4.78138e-05
0.00144551
6.33145e-05
0.00138861
7.81633e-05
0.00131983
9.21771e-05
0.00123859
0.00010519
0.0011449
0.000117052
0.00103947
0.000127625
0.000923259
0.00013679
0.000797396
0.000144443
0.000663146
0.000150496
0.00052193
0.000154881
0.000375229
0.000157548
0.000224605
7.17638e-05
0.000158466
1.55794e-05
0.00153371
2.15579e-07
3.1571e-05
0.00147899
4.73748e-05
0.00142971
6.27346e-05
0.00137325
7.74487e-05
0.00130511
9.13355e-05
0.0012247
0.000104231
0.001132
0.000115986
0.00102772
0.000126464
0.000912781
0.000135547
0.000788313
0.00014313
0.000655563
0.000149129
0.000515931
0.000153475
0.000370883
0.000156119
0.000221961
7.08521e-05
0.00015703
1.54339e-05
0.00151806
2.17404e-07
3.12799e-05
0.00146315
4.69398e-05
0.00141405
6.21601e-05
0.00135803
7.67407e-05
0.00129053
9.05018e-05
0.00121094
0.000103281
0.00111922
0.000114929
0.00101607
0.000125313
0.000902397
0.000134314
0.000779312
0.00014183
0.000648047
0.000147776
0.000509986
0.000152083
0.000366576
0.000154703
0.000219341
6.99513e-05
0.000155607
1.52896e-05
0.00150255
2.19121e-07
3.09914e-05
0.00144744
4.65088e-05
0.00139853
6.15909e-05
0.00134295
7.60392e-05
0.00127608
8.96757e-05
0.0011973
0.000102339
0.00110656
0.000113883
0.00100452
0.000124173
0.000892106
0.000133094
0.000770392
0.000140542
0.000640599
0.000146434
0.000504094
0.000150704
0.000362307
0.000153301
0.000216744
6.90546e-05
0.000154197
1.51468e-05
0.00148718
2.20745e-07
3.07055e-05
0.00143189
4.60818e-05
0.00138315
6.10268e-05
0.001328
7.53442e-05
0.00126177
8.88572e-05
0.00118379
0.000101406
0.00109401
0.000112846
0.000993085
0.000123044
0.000881909
0.000131884
0.000761552
0.000139266
0.000633218
0.000145106
0.000498255
0.000149337
0.000358077
0.000151912
0.00021417
6.8169e-05
0.0001528
1.50052e-05
0.00147195
2.22293e-07
3.04223e-05
0.00141647
4.56588e-05
0.00136792
6.0468e-05
0.00131319
7.46555e-05
0.00124758
8.80463e-05
0.0011704
0.000100482
0.00108157
0.000111818
0.000981749
0.000121925
0.000871802
0.000130686
0.000752791
0.000138002
0.000625902
0.000143789
0.000492467
0.000147983
0.000353883
0.000150535
0.000211618
6.7287e-05
0.000151416
1.48649e-05
0.00145686
2.2379e-07
3.01417e-05
0.00140119
4.52396e-05
0.00135282
5.99144e-05
0.00129852
7.39733e-05
0.00123352
8.72429e-05
0.00115713
9.95664e-05
0.00106925
0.000110801
0.000970515
0.000120816
0.000861787
0.000129499
0.000744109
0.000136749
0.000618652
0.000142485
0.000486732
0.000146642
0.000349727
0.000149171
0.000209089
6.64162e-05
0.000150045
1.4726e-05
0.00144191
2.2526e-07
2.98637e-05
0.00138605
4.48243e-05
0.00133786
5.93658e-05
0.00128398
7.32973e-05
0.00121959
8.64469e-05
0.00114398
9.86591e-05
0.00105704
0.000109792
0.000959382
0.000119718
0.000851861
0.000128322
0.000735505
0.000135508
0.000611466
0.000141193
0.000481047
0.000145313
0.000345607
0.00014782
0.000206581
6.55487e-05
0.000148687
1.45883e-05
0.0014271
2.26731e-07
2.95883e-05
0.00137105
4.44129e-05
0.00132303
5.88224e-05
0.00126957
7.26276e-05
0.00120578
8.56582e-05
0.00113095
9.77603e-05
0.00104494
0.000108793
0.000948349
0.00011863
0.000842025
0.000127157
0.000726978
0.000134278
0.000604345
0.000139913
0.000475413
0.000143996
0.000341525
0.000146482
0.000204097
6.46924e-05
0.000147341
1.44519e-05
0.00141242
2.28224e-07
2.93154e-05
0.00135619
4.40052e-05
0.00130835
5.82839e-05
0.00125529
7.1964e-05
0.0011921
8.48769e-05
0.00111804
9.68698e-05
0.00103294
0.000107803
0.000937416
0.000117551
0.000832277
0.000126003
0.000718527
0.00013306
0.000597288
0.000138645
0.000469829
0.000142692
0.000337478
0.000145156
0.000201633
6.38391e-05
0.000146008
1.43168e-05
0.00139787
2.29758e-07
2.9045e-05
0.00134146
4.36013e-05
0.00129379
5.77504e-05
0.00124114
7.13066e-05
0.00117855
8.41028e-05
0.00110524
9.59875e-05
0.00102106
0.000106823
0.000926581
0.000116483
0.000822617
0.000124859
0.000710152
0.000131854
0.000590293
0.000137388
0.000464295
0.0001414
0.000333467
0.000143842
0.000199192
6.29969e-05
0.000144687
1.41829e-05
0.00138346
2.31345e-07
2.87771e-05
0.00132687
4.32011e-05
0.00127936
5.72218e-05
0.00122712
7.06553e-05
0.00116511
8.33358e-05
0.00109256
9.51134e-05
0.00100928
0.000105851
0.000915843
0.000115425
0.000813043
0.000123726
0.000701851
0.000130658