/*--------------------------------*- C++ -*----------------------------------*\
  =========                 |
  \\      /  F ield         | OpenFOAM: The Open Source CFD Toolbox
   \\    /   O peration     | Website:  https://openfoam.org
    \\  /    A nd           | Version:  6.0
     \\/     M anipulation  |
\*---------------------------------------------------------------------------*/
FoamFile
{
    version     2.0;
    format      ascii;
    class       surfaceScalarField;
    location    "4.6";
    object      phi;
}
// * * * * * * * * * * * * * * * * * * * * * * * * * * * * * * * * * * * * * //

dimensions      [0 3 -1 0 0 0 0];

internalField   nonuniform List<scalar> 
47678
(
2.98103e-05
0.00388594
2.0126e-09
5.98442e-05
0.00381846
8.91104e-05
0.00368583
0.000116959
0.00349003
0.000142852
0.0032344
0.000166312
0.00292344
0.000186916
0.00256262
0.000204298
0.00215818
0.000218148
0.00171717
0.000228224
0.00124694
0.000234337
0.000755981
0.000254782
0.000236712
2.96176e-05
0.00385632
5.91724e-09
5.94616e-05
0.00378862
8.85432e-05
0.00365675
0.000116216
0.00346236
0.000141944
0.00320868
0.000165255
0.00290013
0.000185727
0.00254215
0.000202997
0.00214091
0.00021676
0.0017034
0.000226768
0.00123693
0.000232914
0.000749829
0.000252309
0.000235379
2.94262e-05
0.00382688
9.65173e-09
5.90819e-05
0.00375897
8.79802e-05
0.00362785
0.000115479
0.00343486
0.000141045
0.00318311
0.000164207
0.00287696
0.000184548
0.00252181
0.000201708
0.00212375
0.000215383
0.00168973
0.000225321
0.00122699
0.000231439
0.000743711
0.000249865
0.000233888
2.92364e-05
0.00379764
1.31556e-08
5.8705e-05
0.0037295
8.74212e-05
0.00359914
0.000114746
0.00340753
0.000140151
0.0031577
0.000163166
0.00285395
0.000183377
0.00250159
0.000200427
0.0021067
0.000214015
0.00167614
0.000223885
0.00121712
0.000229951
0.00073764
0.000247457
0.000232352
2.90483e-05
0.00376857
1.6398e-08
5.8331e-05
0.00370022
8.6866e-05
0.0035706
0.000114019
0.00338038
0.000139262
0.00313246
0.000162131
0.00283108
0.000182213
0.00248151
0.000199153
0.00208976
0.000212656
0.00166263
0.00022246
0.00120731
0.000228473
0.000731628
0.000245115
0.000230822
2.88618e-05
0.00373969
1.9326e-08
5.79597e-05
0.00367112
8.63145e-05
0.00354225
0.000113296
0.0033534
0.000138379
0.00310738
0.000161102
0.00280835
0.000181056
0.00246156
0.000197887
0.00207293
0.000211305
0.00164921
0.000221048
0.00119757
0.000227012
0.000725659
0.000242813
0.000229307
2.86767e-05
0.00371099
2.19124e-08
5.7591e-05
0.0036422
8.57665e-05
0.00351407
0.000112577
0.00332659
0.000137501
0.00308245
0.00016008
0.00278578
0.000179906
0.00244173
0.00019663
0.0020562
0.000209962
0.00163588
0.000219646
0.00118788
0.000225565
0.000719742
0.000240574
0.000227809
2.84931e-05
0.00368248
2.4136e-08
5.72249e-05
0.00361347
8.52221e-05
0.00348607
0.000111863
0.00329995
0.000136629
0.00305768
0.000159063
0.00276334
0.000178763
0.00242203
0.00019538
0.00203958
0.000208628
0.00162263
0.000218253
0.00117826
0.000224132
0.000713859
0.000238366
0.000226332
2.83108e-05
0.00365414
2.59666e-08
5.68611e-05
0.00358492
8.46812e-05
0.00345825
0.000111153
0.00327348
0.000135762
0.00303308
0.000158053
0.00274105
0.000177628
0.00240245
0.000194137
0.00202307
0.000207302
0.00160947
0.00021687
0.00116869
0.00022271
0.000708022
0.000236204
0.000224876
2.81299e-05
0.00362598
2.74075e-08
5.64998e-05
0.00355655
8.41437e-05
0.00343061
0.000110448
0.00324717
0.0001349
0.00300862
0.00015705
0.0027189
0.000176499
0.002383
0.000192903
0.00200667
0.000205984
0.00159639
0.000215495
0.00115917
0.000221299
0.000702215
0.000234059
0.000223436
2.79503e-05
0.003598
2.8474e-08
5.61407e-05
0.00352836
8.36096e-05
0.00340314
0.000109747
0.00322104
0.000134044
0.00298433
0.000156052
0.00269689
0.000175377
0.00236368
0.000191676
0.00199037
0.000204674
0.00158339
0.000214129
0.00114972
0.000219898
0.000696448
0.00023195
0.000222011
2.77719e-05
0.0035702
2.92076e-08
5.5784e-05
0.00350035
8.30789e-05
0.00337585
0.00010905
0.00319506
0.000133193
0.00296018
0.000155061
0.00267502
0.000174262
0.00234448
0.000190458
0.00197417
0.000203372
0.00157047
0.00021277
0.00114032
0.000218506
0.00069071
0.000229854
0.000220595
2.75948e-05
0.00354258
2.96631e-08
5.54295e-05
0.00347252
8.25515e-05
0.00334873
0.000108358
0.00316926
0.000132347
0.00293619
0.000154076
0.00265329
0.000173155
0.0023254
0.000189247
0.00195808
0.000202079
0.00155764
0.000211421
0.00113098
0.000217122
0.00068501
0.000227791
0.00021919
2.74189e-05
0.00351513
2.99028e-08
5.50773e-05
0.00344486
8.20273e-05
0.00332178
0.00010767
0.00314362
0.000131506
0.00291236
0.000153096
0.0026317
0.000172054
0.00230644
0.000188043
0.00194209
0.000200794
0.00154489
0.000210079
0.00112169
0.000215747
0.000679339
0.00022574
0.000217793
2.72442e-05
0.00348786
2.99831e-08
5.47274e-05
0.00341738
8.15064e-05
0.003295
0.000106986
0.00311814
0.000130671
0.00288867
0.000152123
0.00261025
0.00017096
0.0022876
0.000186848
0.0019262
0.000199517
0.00153222
0.000208746
0.00111247
0.000214381
0.000673707
0.000223721
0.000216406
2.70707e-05
0.00346076
2.99463e-08
5.43796e-05
0.00339007
8.09887e-05
0.00326839
0.000106307
0.00309282
0.00012984
0.00286514
0.000151156
0.00258893
0.000169872
0.00226889
0.00018566
0.00191041
0.000198249
0.00151963
0.000207421
0.00110329
0.000213022
0.000668102
0.00022171
0.000215028
2.68983e-05
0.00343383
2.98193e-08
5.40341e-05
0.00336293
8.04742e-05
0.00324195
0.000105631
0.00306766
0.000129015
0.00284176
0.000150195
0.00256775
0.000168792
0.00225029
0.000184479
0.00189473
0.000196988
0.00150712
0.000206104
0.00109418
0.000211672
0.000662537
0.000219729
0.00021366
2.67272e-05
0.00340707
2.96143e-08
5.36907e-05
0.00333597
7.99628e-05
0.00321568
0.00010496
0.00304266
0.000128195
0.00281852
0.00014924
0.00254671
0.000167718
0.00223181
0.000183306
0.00187914
0.000195736
0.00149469
0.000204795
0.00108512
0.00021033
0.000657
0.000217755
0.000212301
2.65571e-05
0.00338049
2.9331e-08
5.33495e-05
0.00330918
7.94546e-05
0.00318957
0.000104292
0.00301783
0.000127379
0.00279543
0.00014829
0.0025258
0.000166652
0.00221345
0.00018214
0.00186365
0.000194492
0.00148234
0.000203495
0.00107612
0.000208996
0.000651502
0.000215809
0.000210951
2.63881e-05
0.00335407
2.89699e-08
5.30104e-05
0.00328255
7.89496e-05
0.00316363
0.000103629
0.00299315
0.000126569
0.00277249
0.000147347
0.00250502
0.000165591
0.0021952
0.000180982
0.00184826
0.000193255
0.00147007
0.000202203
0.00106717
0.00020767
0.000646031
0.000213867
0.00020961
2.62203e-05
0.00332782
2.85383e-08
5.26734e-05
0.0032561
7.84476e-05
0.00313786
0.00010297
0.00296862
0.000125764
0.0027497
0.000146409
0.00248437
0.000164538
0.00217708
0.000179831
0.00183297
0.000192027
0.00145787
0.000200919
0.00105828
0.000206353
0.0006406
0.000211952
0.000208278
2.60535e-05
0.00330174
2.80582e-08
5.23385e-05
0.00322982
7.79487e-05
0.00311225
0.000102315
0.00294426
0.000124963
0.00272705
0.000145478
0.00246386
0.000163491
0.00215906
0.000178688
0.00181777
0.000190806
0.00144575
0.000199643
0.00104944
0.000205045
0.000635196
0.00021004
0.000206955
2.58877e-05
0.00327582
2.75737e-08
5.20056e-05
0.0032037
7.74528e-05
0.0030868
0.000101664
0.00292005
0.000124168
0.00270455
0.000144552
0.00244348
0.000162451
0.00214116
0.000177551
0.00180267
0.000189594
0.00143371
0.000198375
0.00104066
0.000203744
0.00062983
0.000208153
0.00020564
2.5723e-05
0.00325007
2.71482e-08
5.16747e-05
0.00317775
7.69599e-05
0.00306152
0.000101017
0.00289599
0.000123378
0.00268219
0.000143632
0.00242322
0.000161417
0.00212338
0.000176422
0.00178767
0.000188389
0.00142174
0.000197116
0.00103193
0.000202452
0.000624491
0.000206268
0.000204334
2.55592e-05
0.00322449
2.68598e-08
5.13458e-05
0.00315196
7.64701e-05
0.00303639
0.000100374
0.00287208
0.000122592
0.00265997
0.000142718
0.0024031
0.00016039
0.00210571
0.000175301
0.00177276
0.000187192
0.00140985
0.000195865
0.00102326
0.000201168
0.000619191
0.000204407
0.000203037
2.53964e-05
0.00319907
2.679e-08
5.10189e-05
0.00312634
7.59832e-05
0.00301143
9.97347e-05
0.00284833
0.000121812
0.00263789
0.000141809
0.0023831
0.00015937
0.00208814
0.000174186
0.00175794
0.000186003
0.00139803
0.000194621
0.00101464
0.000199892
0.000613918
0.000202547
0.000201748
2.52346e-05
0.0031738
2.70103e-08
5.0694e-05
0.00310088
7.54993e-05
0.00298662
9.90995e-05
0.00282473
0.000121036
0.00261596
0.000140907
0.00236323
0.000158356
0.0020707
0.000173079
0.00174322
0.000184821
0.00138629
0.000193386
0.00100608
0.000198624
0.000608683
0.000200711
0.000200467
2.50738e-05
0.0031487
2.75702e-08
5.0371e-05
0.00307558
7.50184e-05
0.00296198
9.84683e-05
0.00280128
0.000120265
0.00259416
0.00014001
0.00234348
0.000157349
0.00205336
0.000171979
0.00172859
0.000183647
0.00137462
0.000192159
0.000997566
0.000197365
0.000603474
0.000198876
0.000199195
2.49138e-05
0.00312376
2.84891e-08
5.005e-05
0.00305045
7.45404e-05
0.00293748
9.78409e-05
0.00277798
0.000119499
0.0025725
0.000139118
0.00232387
0.000156348
0.00203613
0.000170886
0.00171405
0.000182481
0.00136303
0.000190939
0.000989109
0.000196113
0.000598303
0.000197064
0.000197931
2.47548e-05
0.00309898
2.9753e-08
4.97309e-05
0.00302547
7.40653e-05
0.00291315
9.72175e-05
0.00275483
0.000118738
0.00255098
0.000138233
0.00230437
0.000155353
0.00201901
0.0001698
0.0016996
0.000181322
0.00135151
0.000189727
0.000980702
0.00019487
0.000593159
0.000195253
0.000196675
2.45966e-05
0.00307435
3.132e-08
4.94137e-05
0.00300065
7.35932e-05
0.00288897
9.6598e-05
0.00273183
0.000117982
0.0025296
0.000137353
0.002285
0.000154365
0.00200199
0.000168721
0.00168525
0.00018017
0.00134006
0.000188524
0.000972351
0.000193634
0.000588051
0.000193465
0.000195427
2.44394e-05
0.00304988
3.31284e-08
4.90984e-05
0.00297599
7.31239e-05
0.00286495
9.59823e-05
0.00270897
0.00011723
0.00250835
0.000136479
0.00226575
0.000153383
0.00198509
0.000167648
0.00167098
0.000179026
0.00132868
0.000187327
0.000964049
0.000192406
0.00058297
0.000191677
0.000194187
2.4283e-05
0.00302556
3.511e-08
4.87851e-05
0.00295149
7.26575e-05
0.00284107
9.53705e-05
0.00268625
0.000116484
0.00248723
0.00013561
0.00224663
0.000152408
0.00196829
0.000166583
0.00165681
0.00017789
0.00131738
0.000186139
0.000955802
0.000191187
0.000577926
0.000189913
0.000192956
2.41275e-05
0.00300139
3.72003e-08
4.84736e-05
0.00292715
7.21941e-05
0.00281735
9.47625e-05
0.00266369
0.000115741
0.00246626
0.000134747
0.00222762
0.000151439
0.0019516
0.000165525
0.00164272
0.00017676
0.00130614
0.000184958
0.000947603
0.000189975
0.000572908
0.000188151
0.000191732
2.39729e-05
0.00297738
3.93484e-08
4.8164e-05
0.00290295
7.17334e-05
0.00279378
9.41584e-05
0.00264126
0.000115004
0.00244541
0.000133889
0.00220874
0.000150476
0.00193501
0.000164473
0.00162873
0.000175638
0.00129497
0.000183785
0.000939459
0.00018877
0.000567926
0.000186411
0.000190515
2.38192e-05
0.00295352
4.15202e-08
4.78562e-05
0.00287892
7.12757e-05
0.00277037
9.3558e-05
0.00261898
0.000114271
0.0024247
0.000133037
0.00218997
0.000149519
0.00191853
0.000163428
0.00161482
0.000174524
0.00128388
0.000182619
0.000931362
0.000187574
0.00056297
0.000184673
0.000189307
2.36663e-05
0.00292981
4.36994e-08
4.75503e-05
0.00285503
7.08207e-05
0.00274709
9.29614e-05
0.00259684
0.000113543
0.00240411
0.00013219
0.00217132
0.000148568
0.00190216
0.00016239
0.001601
0.000173416
0.00127285
0.000181461
0.000923319
0.000186385
0.00055805
0.000182957
0.000188106
2.35142e-05
0.00290625
4.58815e-08
4.72463e-05
0.0028313
7.03686e-05
0.00272397
9.23686e-05
0.00257484
0.00011282
0.00238366
0.000131349
0.0021528
0.000147623
0.00188588
0.000161359
0.00158726
0.000172315
0.0012619
0.00018031
0.000915323
0.000185203
0.000553155
0.000181244
0.000186914
2.33631e-05
0.00288284
4.807e-08
4.69441e-05
0.00280772
6.99193e-05
0.002701
9.17795e-05
0.00255298
0.000112101
0.00236334
0.000130513
0.00213438
0.000146685
0.00186971
0.000160334
0.00157361
0.000171222
0.00125101
0.000179167
0.00090738
0.000184029
0.000548296
0.000179552
0.000185728
2.32127e-05
0.00285958
5.02674e-08
4.66438e-05
0.00278429
6.94728e-05
0.00267817
9.11941e-05
0.00253126
0.000111387
0.00234315
0.000129682
0.00211609
0.000145752
0.00185364
0.000159315
0.00156005
0.000170135
0.00124019
0.000178031
0.000899484
0.000182863
0.000543462
0.000177862
0.000184551
2.30633e-05
0.00283646
5.24722e-08
4.63453e-05
0.00276101
6.90291e-05
0.00265549
9.06124e-05
0.00250967
0.000110677
0.00232308
0.000128857
0.00209791
0.000144826
0.00183767
0.000158304
0.00154657
0.000169056
0.00122944
0.000176902
0.00089164
0.000181704
0.000538664
0.000176193
0.000183381
2.29147e-05
0.00281349
5.4674e-08
4.60486e-05
0.00273787
6.85882e-05
0.00263295
9.00344e-05
0.00248823
0.000109972
0.00230315
0.000128037
0.00207985
0.000143905
0.0018218
0.000157298
0.00153318
0.000167983
0.00121875
0.00017578
0.000883842
0.000180552
0.00053389
0.000174526
0.000182219
2.2767e-05
0.00279067
5.68544e-08
4.57537e-05
0.00271489
6.815e-05
0.00261055
8.94601e-05
0.00246692
0.000109272
0.00228333
0.000127222
0.0020619
0.00014299
0.00180604
0.000156299
0.00151987
0.000166918
0.00120813
0.000174666
0.000876097
0.000179408
0.000529152
0.000172879
0.000181064
2.26201e-05
0.00276799
5.8988e-08
4.54606e-05
0.00269205
6.77145e-05
0.0025883
8.88893e-05
0.00244574
0.000108575
0.00226365
0.000126413
0.00204406
0.000142081
0.00179037
0.000155307
0.00150664
0.000165859
0.00119758
0.000173558
0.000868396
0.000178271
0.000524438
0.000171233
0.000179917
2.24741e-05
0.00274546
6.10468e-08
4.51694e-05
0.00266935
6.72818e-05
0.00256618
8.83222e-05
0.0024247
0.000107884
0.00224409
0.000125608
0.00202633
0.000141178
0.0017748
0.000154321
0.0014935
0.000164807
0.0011871
0.000172458
0.000860747
0.000177142
0.000519758
0.000169607
0.000178777
2.23289e-05
0.00272307
6.30031e-08
4.48799e-05
0.0026468
6.68518e-05
0.00254421
8.77587e-05
0.00240379
0.000107196
0.00222465
0.000124809
0.00200872
0.000140281
0.00175933
0.000153341
0.00148044
0.000163761
0.00117668
0.000171365
0.000853142
0.000176019
0.000515103
0.000167982
0.000177644
2.21847e-05
0.00270082
6.48353e-08
4.45922e-05
0.00262439
6.64245e-05
0.00252238
8.71988e-05
0.00238302
0.000106513
0.00220533
0.000124015
0.00199122
0.000139389
0.00174395
0.000152368
0.00146746
0.000162723
0.00116632
0.000170279
0.000845589
0.000174904
0.000510482
0.000166377
0.000176518
2.20413e-05
0.00267871
6.65287e-08
4.43063e-05
0.00260213
6.59999e-05
0.00250069
8.66424e-05
0.00236238
0.000105835
0.00218614
0.000123226
0.00197383
0.000138504
0.00172867
0.0001514
0.00145457
0.00016169
0.00115603
0.000169199
0.000838079
0.000173796
0.000505886
0.000164771
0.0001754
2.18988e-05
0.00265674
6.80784e-08
4.40223e-05
0.00258
6.5578e-05
0.00247913
8.60896e-05
0.00234186
0.000105161
0.00216707
0.000122442
0.00195655
0.000137623
0.00171349
0.000150439
0.00144175
0.000160665
0.00114581
0.000168127
0.000830619
0.000172695
0.000501323
0.000163185
0.000174289
2.17571e-05
0.00263492
6.94867e-08
4.374e-05
0.00255802
6.51587e-05
0.00245771
8.55403e-05
0.00232148
0.000104491
0.00214812
0.000121663
0.00193938
0.000136749
0.00169841
0.000149485
0.00142902
0.000159646
0.00113565
0.000167061
0.000823203
0.000171601
0.000496783
0.000161598
0.000173185
2.16164e-05
0.00261323
7.07629e-08
4.34594e-05
0.00253618
6.47422e-05
0.00243643
8.49945e-05
0.00230123
0.000103825
0.00212929
0.000120889
0.00192231
0.00013588
0.00168342
0.000148536
0.00141636
0.000158634
0.00112555
0.000166003
0.000815837
0.000170514
0.000492278
0.000160031
0.000172087
2.14766e-05
0.00259168
7.19185e-08
4.31807e-05
0.00251447
6.43283e-05
0.00241528
8.44522e-05
0.00228111
0.000103164
0.00211058
0.00012012
0.00190536
0.000135017
0.00166852
0.000147593
0.00140379
0.000157628
0.00111551
0.000164951
0.000808513
0.000169433
0.000487796
0.000158464
0.000170997
2.13377e-05
0.00257027
7.29652e-08
4.29037e-05
0.00249291
6.3917e-05
0.00239427
8.39134e-05
0.00226111
0.000102507
0.00209199
0.000119356
0.00188851
0.000134159
0.00165372
0.000146656
0.00139129
0.000156629
0.00110554
0.000163905
0.000801239
0.00016836
0.000483346
0.000156916
0.000169914
2.11996e-05
0.002549
7.39116e-08
4.26286e-05
0.00247148
6.35084e-05
0.00237339
8.33781e-05
0.00224124
0.000101854
0.00207351
0.000118597
0.00187177
0.000133307
0.00163901
0.000145726
0.00137887
0.000155635
0.00109563
0.000162867
0.000794007
0.000167294
0.000478919
0.000155369
0.000168837
2.10625e-05
0.00252786
7.47633e-08
4.23551e-05
0.00245019
6.31025e-05
0.00235264
8.28462e-05
0.0022215
0.000101205
0.00205515
0.000117842
0.00185513
0.00013246
0.00162439
0.000144801
0.00136653
0.000154649
0.00108579
0.000161835
0.000786823
0.000166234
0.000474525
0.000153839
0.000167767
2.09263e-05
0.00250686
7.55221e-08
4.20835e-05
0.00242903
6.26991e-05
0.00233203
8.23177e-05
0.00220188
0.00010056
0.00203691
0.000117093
0.0018386
0.000131619
0.00160986
0.000143882
0.00135427
0.000153668
0.001076
0.00016081
0.000779681
0.000165181
0.000470154
0.000152312
0.000166704
2.0791e-05
0.00248599
7.619e-08
4.18136e-05
0.002408
6.22983e-05
0.00231154
8.17927e-05
0.00218238
9.99201e-05
0.00201878
0.000116348
0.00182217
0.000130783
0.00159543
0.000142969
0.00134208
0.000152694
0.00106628
0.000159791
0.000772587
0.000164135
0.000465814
0.000150804
0.000165648
2.06566e-05
0.00246526
7.67703e-08
4.15455e-05
0.00238712
6.19002e-05
0.00229119
8.1271e-05
0.00216301
9.92839e-05
0.00200077
0.000115609
0.00180584
0.000129952
0.00158109
0.000142062
0.00132997
0.000151726
0.00105661
0.000158778
0.000765535
0.000163095
0.000461497
0.000149298
0.000164599
2.05231e-05
0.00244466
7.72727e-08
4.12791e-05
0.00236636
6.15046e-05
0.00227096
8.07528e-05
0.00214376
9.86517e-05
0.00198287
0.000114874
0.00178962
0.000129127
0.00156683
0.000141161
0.00131794
0.000150765
0.00104701
0.000157773
0.00075853
0.000162062
0.000457211
0.000147809
0.000163556
2.03906e-05
0.00242419
7.77139e-08
4.10145e-05
0.00234574
6.11116e-05
0.00225086
8.02378e-05
0.00212464
9.80237e-05
0.00196508
0.000114143
0.0017735
0.000128307
0.00155267
0.000140266
0.00130598
0.000149809
0.00103747
0.000156773
0.000751565
0.000161036
0.000452948
0.000146324
0.00016252
2.02589e-05
0.00240385
7.81204e-08
4.07516e-05
0.00232524
6.07211e-05
0.00223089
7.97262e-05
0.00210563
9.73997e-05
0.00194741
0.000113418
0.00175748
0.000127492
0.0015386
0.000139376
0.0012941
0.000148859
0.00102799
0.00015578
0.000744647
0.000160016
0.000448715
0.000144855
0.000161491
2.01281e-05
0.00238365
7.85254e-08
4.04904e-05
0.00230488
6.03332e-05
0.00221105
7.9218e-05
0.00208675
9.67797e-05
0.00192985
0.000112697
0.00174157
0.000126683
0.00152461
0.000138492
0.00128229
0.000147916
0.00101856
0.000154793
0.00073777
0.000159003
0.000444505
0.00014339
0.000160469
1.99982e-05
0.00236357
7.89676e-08
4.0231e-05
0.00228465
5.99479e-05
0.00219133
7.8713e-05
0.00206798
9.61637e-05
0.0019124
0.00011198
0.00172575
0.000125878
0.00151071
0.000137613
0.00127055
0.000146979
0.0010092
0.000153813
0.000730938
0.000157996
0.000440325
0.000141941
0.000159453
1.98692e-05
0.00234362
7.94857e-08
3.99733e-05
0.00226454
5.9565e-05
0.00217174
7.82112e-05
0.00204933
9.55517e-05
0.00189506
0.000111269
0.00171003
0.000125079
0.0014969
0.000136741
0.00125889
0.000146047
0.000999891
0.000152839
0.000724147
0.000156996
0.000436168
0.000140494
0.000158443
1.97411e-05
0.0023238
8.01147e-08
3.97172e-05
0.00224457
5.91846e-05
0.00215228
7.77128e-05
0.00203081
9.49437e-05
0.00187783
0.000110561
0.00169442
0.000124285
0.00148318
0.000135873
0.00124731
0.000145122
0.000990645
0.000151871
0.000717401
0.000156002
0.000432041
0.000139064
0.00015744
1.96139e-05
0.00230411
8.08805e-08
3.94629e-05
0.00222472
5.88067e-05
0.00213293
7.72175e-05
0.00201239
9.43395e-05
0.0018607
0.000109859
0.0016789
0.000123496
0.00146954
0.000135012
0.00123579
0.000144202
0.000981454
0.000150909
0.000710694
0.000155015
0.000427936
0.000137636
0.000156443
1.94875e-05
0.00228454
8.17981e-08
3.92102e-05
0.00220499
5.84312e-05
0.00211371
7.67254e-05
0.0019941
9.37392e-05
0.00184369
0.000109161
0.00166348
0.000122712
0.00145599
0.000134155
0.00122435
0.000143288
0.000972323
0.000149953
0.000704032
0.000154033
0.000423861
0.000136223
0.000155453
1.9362e-05
0.00226509
8.28692e-08
3.89592e-05
0.0021854
5.80583e-05
0.00209461
7.62366e-05
0.00197592
9.31428e-05
0.00182678
0.000108467
0.00164815
0.000121934
0.00144252
0.000133305
0.00121298
0.000142381
0.000963247
0.000149004
0.000697409
0.000153058
0.000419808
0.000134812
0.000154469
1.92374e-05
0.00224577
8.40844e-08
3.87099e-05
0.00216592
5.76877e-05
0.00207563
7.57509e-05
0.00195786
9.25503e-05
0.00180998
0.000107778
0.00163292
0.00012116
0.00142914
0.00013246
0.00120168
0.000141479
0.00095423
0.000148061
0.00069083
0.00015209
0.000415783
0.000133417
0.000153491
1.91135e-05
0.00222657
8.54243e-08
3.84622e-05
0.00214657
5.73195e-05
0.00205678
7.52683e-05
0.00193991
9.19615e-05
0.00179329
0.000107093
0.00161779
0.000120391
0.00141584
0.00013162
0.00119045
0.000140582
0.000945268
0.000147123
0.00068429
0.000151127
0.000411781
0.000132023
0.000152519
1.89906e-05
0.0022075
8.68644e-08
3.82161e-05
0.00212735
5.69537e-05
0.00203804
7.47888e-05
0.00192207
9.13766e-05
0.0017767
0.000106413
0.00160276
0.000119627
0.00140263
0.000130785
0.00117929
0.000139692
0.000936363
0.000146192
0.000677792
0.000150171
0.000407806
0.000130645
0.000151554
1.88684e-05
0.00218854
8.83777e-08
3.79717e-05
0.00210824
5.65904e-05
0.00201942
7.43125e-05
0.00190435
9.07954e-05
0.00176022
0.000105737
0.00158781
0.000118868
0.0013895
0.000129956
0.0011682
0.000138807
0.000927513
0.000145267
0.000671333
0.000149221
0.000403854
0.00012927
0.000150595
1.87471e-05
0.0021697
8.99394e-08
3.77289e-05
0.00208926
5.62293e-05
0.00200092
7.38392e-05
0.00188674
9.02179e-05
0.00174384
0.000105065
0.00157297
0.000118113
0.00137645
0.000129133
0.00115719
0.000137928
0.000918719
0.000144347
0.000664917
0.000148277
0.000399929
0.000127909
0.000149642
1.86265e-05
0.00215099
9.15275e-08
3.74876e-05
0.0020704
5.58706e-05
0.00198254
7.33689e-05
0.00186924
8.96441e-05
0.00172756
0.000104398
0.00155821
0.000117364
0.00136349
0.000128314
0.00114624
0.000137055
0.000909979
0.000143434
0.000658538
0.000147339
0.000396025
0.000126552
0.000148695
1.85068e-05
0.00213239
9.31262e-08
3.7248e-05
0.00205166
5.55142e-05
0.00196427
7.29017e-05
0.00185185
8.9074e-05
0.00171139
0.000103735
0.00154355
0.000116619
0.0013506
0.000127501
0.00113536
0.000136187
0.000901295
0.000142526
0.000652202
0.000146407
0.000392149
0.00012521
0.000147754
1.83878e-05
0.00211391
9.47227e-08
3.70099e-05
0.00203304
5.51602e-05
0.00194612
7.24374e-05
0.00183457
8.85076e-05
0.00169532
0.000103076
0.00152898
0.00011588
0.0013378
0.000126693
0.00112454
0.000135325
0.000892663
0.000141625
0.000645902
0.000145481
0.000388294
0.00012387
0.000146819
1.82696e-05
0.00209554
9.63092e-08
3.67733e-05
0.00201453
5.48084e-05
0.00192808
7.19762e-05
0.00181741
8.79448e-05
0.00167935
0.000102421
0.00151451
0.000115145
0.00132507
0.00012589
0.0011138
0.000134468
0.000884087
0.000140729
0.000639644
0.000144561
0.000384465
0.000122546
0.000145891
1.81522e-05
0.00207729
9.78778e-08
3.65383e-05
0.00199615
5.44588e-05
0.00191016
7.15179e-05
0.00180035
8.73857e-05
0.00166348
0.000101771
0.00150012
0.000114414
0.00131243
0.000125092
0.00110312
0.000133617
0.000875564
0.000139839
0.000633423
0.000143647
0.000380658
0.000121224
0.000144968
1.80355e-05
0.00205916
9.94229e-08
3.63048e-05
0.00197787
5.41116e-05
0.00189235
7.10626e-05
0.00178339
8.68301e-05
0.00164771
0.000101125
0.00148583
0.000113689
0.00129987
0.0001243
0.00109251
0.000132771
0.000867094
0.000138954
0.000627243
0.000142739
0.000376877
0.000119917
0.000144051
1.79196e-05
0.00204114
1.00936e-07
3.60728e-05
0.00195972
5.37665e-05
0.00187466
7.06102e-05
0.00176655
8.6278e-05
0.00163205
0.000100483
0.00147162
0.000112968
0.00128738
0.000123513
0.00108197
0.000131931
0.000858677
0.000138076
0.000621099
0.000141837
0.000373117
0.000118612
0.000143141
1.78044e-05
0.00202323
1.02408e-07
3.58423e-05
0.00194168
5.34237e-05
0.00185708
7.01606e-05
0.00174981
8.57296e-05
0.00161648
9.98447e-05
0.0014575
0.000112251
0.00127498
0.00012273
0.00107149
0.000131096
0.000850313
0.000137203
0.000614995
0.00014094
0.000369382
0.000117323
0.000142236
1.769e-05
0.00200544
1.03829e-07
3.56132e-05
0.00192376
5.3083e-05
0.00183961
6.9714e-05
0.00173318
8.51846e-05
0.00160101
9.92109e-05
0.00144348
0.00011154
0.00126265
0.000121953
0.00106107
0.000130267
0.000842
0.000136335
0.000608928
0.00014005
0.000365669
0.000116035
0.000141338
1.75762e-05
0.00198776
1.05189e-07
3.53856e-05
0.00190595
5.27446e-05
0.00182225
6.92702e-05
0.00171665
8.46431e-05
0.00158563
9.85811e-05
0.00142954
0.000110833
0.0012504
0.000121181
0.00105073
0.000129443
0.00083374
0.000135474
0.0006029
0.000139165
0.00036198
0.000114763
0.000140445
1.74632e-05
0.00197019
1.06478e-07
3.51595e-05
0.00188825
5.24083e-05
0.001805
6.88293e-05
0.00170023
8.41052e-05
0.00157035
9.79554e-05
0.00141569
0.00011013
0.00123822
0.000120414
0.00104044
0.000128624
0.00082553
0.000134617
0.000596907
0.000138286
0.000358312
0.000113491
0.000139558
1.73509e-05
0.00195273
1.0769e-07
3.49348e-05
0.00187067
5.20741e-05
0.00178786
6.83912e-05
0.00168391
8.35706e-05
0.00155517
9.73337e-05
0.00140192
0.000109432
0.00122612
0.000119651
0.00103023
0.000127811
0.000817372
0.000133767
0.000590953
0.000137413
0.00035467
0.000112235
0.000138677
1.72393e-05
0.00193538
1.0882e-07
3.47115e-05
0.00185319
5.17421e-05
0.00177083
6.79559e-05
0.0016677
8.30395e-05
0.00154009
9.6716e-05
0.00138825
0.000108739
0.0012141
0.000118894
0.00102007
0.000127003
0.000809264
0.000132922
0.000585035
0.000136545
0.000351046
0.000110979
0.000137802
1.71284e-05
0.00191814
1.09868e-07
3.44896e-05
0.00183583
5.14122e-05
0.0017539
6.75233e-05
0.00165159
8.25119e-05
0.0015251
9.61024e-05
0.00137466
0.00010805
0.00120215
0.000118142
0.00100998
0.0001262
0.000801208
0.000132082
0.000579155
0.000135684
0.000347449
0.000109738
0.000136932
1.70182e-05
0.00190102
1.10836e-07
3.42692e-05
0.00181858
5.10844e-05
0.00173709
6.70936e-05
0.00163558
8.19876e-05
0.0015102
9.54926e-05
0.00136115
0.000107365
0.00119028
0.000117394
0.000999951
0.000125402
0.000793201
0.000131248
0.00057331
0.000134827
0.00034387
0.000108497
0.000136068
1.69086e-05
0.001884
1.11728e-07
3.40501e-05
0.00180144
5.07587e-05
0.00172037
6.66666e-05
0.00161967
8.14667e-05
0.0014954
9.48869e-05
0.00134773
0.000106685
0.00117848
0.000116651
0.000989986
0.00012461
0.000785244
0.00013042
0.000567502
0.000133977
0.000340316
0.000107272
0.00013521
1.67997e-05
0.00186708
1.12549e-07
3.38324e-05
0.0017844
5.0435e-05
0.00170377
6.62423e-05
0.00160386
8.09491e-05
0.0014807
9.4285e-05
0.00133439
0.000106009
0.00116676
0.000115914
0.000980082
0.000123822
0.000777336
0.000129596
0.000561729
0.000133132
0.000336781
0.000106046
0.000134357
1.66915e-05
0.00185028
1.13305e-07
3.3616e-05
0.00176748
5.01135e-05
0.00168727
6.58207e-05
0.00158815
8.04349e-05
0.00146608
9.3687e-05
0.00132114
0.000105338
0.00115511
0.00011518
0.00097024
0.00012304
0.000769478
0.000128778
0.000555993
0.000132292
0.000333271
0.000104835
0.00013351
1.6584e-05
0.00183358
1.13999e-07
3.3401e-05
0.00175066
4.97939e-05
0.00167088
6.54019e-05
0.00157254
7.9924e-05
0.00145156
9.30929e-05
0.00130797
0.000104671
0.00114353
0.000114452
0.000960459
0.000122263
0.000761667
0.000127966
0.000550291
0.000131458
0.00032978
0.000103625
0.000132669
1.64771e-05
0.00181699
1.14638e-07
3.31874e-05
0.00173395
4.94764e-05
0.00165459
6.49857e-05
0.00155703
7.94164e-05
0.00143712
9.25027e-05
0.00129488
0.000104008
0.00113202
0.000113729
0.00095074
0.000121491
0.000753906
0.000127159
0.000544626
0.000130629
0.000326312
0.000102428
0.000131833
1.63708e-05
0.00180051
1.15225e-07
3.29751e-05
0.00171734
4.91609e-05
0.0016384
6.45722e-05
0.00154162
7.89121e-05
0.00142278
9.19163e-05
0.00128188
0.00010335
0.00112059
0.00011301
0.00094108
0.000120724
0.000746192
0.000126357
0.000538994
0.000129806
0.000322863
0.000101232
0.000131003
1.62653e-05
0.00178413
1.15768e-07
3.27641e-05
0.00170084
4.88475e-05
0.00162231
6.41614e-05
0.0015263
7.84111e-05
0.00140853
9.13337e-05
0.00126896
0.000102696
0.00110923
0.000112296
0.000931481
0.000119963
0.000738527
0.00012556
0.000533398
0.000128989
0.000319438
0.00010005
0.000130178
1.61603e-05
0.00176785
1.16275e-07
3.25544e-05
0.00168445
4.8536e-05
0.00160633
6.37532e-05
0.00151108
7.79133e-05
0.00139437
9.07548e-05
0.00125611
0.000102046
0.00109794
0.000111586
0.000921941
0.000119206
0.000730908
0.000124769
0.000527835
0.000128176
0.000316031
9.8867e-05
0.000129359
1.60561e-05
0.00175168
1.16759e-07
3.23461e-05
0.00166815
4.82265e-05
0.00159045
6.33476e-05
0.00149596
7.74188e-05
0.0013803
9.01798e-05
0.00124335
0.000101401
0.00108671
0.000110882
0.000912462
0.000118454
0.000723338
0.000123983
0.000522308
0.000127369
0.000312648
9.76988e-05
0.000128545
1.59524e-05
0.00173561
1.17235e-07
3.2139e-05
0.00165197
4.7919e-05
0.00157467
6.29447e-05
0.00148093
7.69274e-05
0.00136632
8.96085e-05
0.00123067
0.00010076
0.00107556
0.000110182
0.00090304
0.000117707
0.000715812
0.000123202
0.000516814
0.000126568
0.000309282
9.65299e-05
0.000127736
1.58494e-05
0.00171964
1.17724e-07
3.19333e-05
0.00163588
4.76135e-05
0.00155899
6.25444e-05
0.001466
7.64393e-05
0.00135242
8.9041e-05
0.00121807
0.000100123
0.00106448
0.000109486
0.000893677
0.000116965
0.000708335
0.000122426
0.000511355
0.000125771
0.00030594
9.53752e-05
0.000126933
1.57471e-05
0.00170378
1.18245e-07
3.17289e-05
0.0016199
4.73099e-05
0.0015434
6.21466e-05
0.00145116
7.59543e-05
0.00133861
8.84771e-05
0.00120554
9.949e-05
0.00105347
0.000108795
0.000884372
0.000116228
0.000700902
0.000121655
0.000505927
0.00012498
0.000302615
9.42196e-05
0.000126135
1.56454e-05
0.00168801
1.18824e-07
3.15258e-05
0.00160401
4.70082e-05
0.00152792
6.17514e-05
0.00143641
7.54726e-05
0.00132489
8.7917e-05
0.0011931
9.88614e-05
0.00104252
0.000108109
0.000875125
0.000115496
0.000693518
0.00012089
0.000500535
0.000124194
0.000299314
9.30782e-05
0.000125343
1.55443e-05
0.00167235
1.19478e-07
3.13239e-05
0.00158823
4.67086e-05
0.00151253
6.13588e-05
0.00142176
7.49939e-05
0.00131125
8.73605e-05
0.00118073
9.82369e-05
0.00103165
0.000107427
0.000865935