/*--------------------------------*- C++ -*----------------------------------*\
  =========                 |
  \\      /  F ield         | OpenFOAM: The Open Source CFD Toolbox
   \\    /   O peration     | Website:  https://openfoam.org
    \\  /    A nd           | Version:  6.0
     \\/     M anipulation  |
\*---------------------------------------------------------------------------*/
FoamFile
{
    version     2.0;
    format      ascii;
    class       volVectorField;
    location    "4.6";
    object      U;
}
// * * * * * * * * * * * * * * * * * * * * * * * * * * * * * * * * * * * * * //

dimensions      [0 1 -1 0 0 0 0];

internalField   nonuniform List<vector> 
34500
(
(0.999996 4.31603e-06 -4.63407e-17)
(0.999969 -8.55388e-06 -8.13653e-18)
(0.999919 -3.36955e-05 1.42229e-16)
(0.999851 -7.74102e-05 -1.0766e-16)
(0.999777 -0.000142586 3.35513e-17)
(0.999708 -0.000227815 -1.01461e-16)
(0.999653 -0.000328113 -1.00973e-16)
(0.999622 -0.000434656 8.65197e-17)
(0.999617 -0.000540065 1.07223e-16)
(0.999639 -0.000635691 -6.82781e-16)
(0.999685 -0.0007152 -1.03966e-15)
(0.99975 -0.000778145 1.26684e-16)
(0.999828 -0.000810812 4.33478e-16)
(0.999978 -0.000882989 -2.06839e-16)
(0.998753 -0.00142428 7.59036e-17)
(0.999992 1.58305e-05 3.24536e-17)
(0.999942 -1.58987e-05 9.76467e-17)
(0.999851 -6.90411e-05 7.17584e-17)
(0.999731 -0.000155936 -3.02192e-16)
(0.9996 -0.000281163 -5.05838e-16)
(0.999479 -0.000441317 -5.50356e-17)
(0.999387 -0.000626187 2.55469e-16)
(0.999338 -0.000819769 -6.77076e-16)
(0.999337 -0.00100815 -1.78564e-16)
(0.999386 -0.00117657 6.81073e-16)
(0.999478 -0.00131234 1.26119e-15)
(0.999605 -0.00141443 -6.28463e-16)
(0.999742 -0.00145602 -9.8277e-16)
(1.00008 -0.00152237 -3.93913e-16)
(0.998754 -0.00201787 5.18254e-16)
(0.999989 2.82927e-05 1.04698e-17)
(0.999945 -1.78434e-05 -1.22929e-16)
(0.999866 -8.17729e-05 -1.2517e-16)
(0.999763 -0.00017542 4.55641e-16)
(0.999653 -0.000301868 -2.86122e-17)
(0.999553 -0.000457201 -1.63989e-16)
(0.999481 -0.000630785 9.77985e-17)
(0.999449 -0.000808005 3.84453e-16)
(0.999461 -0.000975865 2.3744e-19)
(0.999516 -0.00112258 -3.92681e-16)
(0.99961 -0.00123629 -7.2737e-16)
(0.999739 -0.00131678 4.13172e-16)
(0.999853 -0.0013407 2.24428e-16)
(1.00022 -0.001358 1.64074e-16)
(0.999386 -0.00151644 -2.4346e-16)
(0.999984 4.0841e-05 -1.73584e-17)
(0.999948 -2.02538e-05 -9.02456e-18)
(0.999885 -9.48011e-05 4.83219e-17)
(0.999803 -0.000193655 -3.05365e-16)
(0.999719 -0.000318369 3.72171e-16)
(0.999643 -0.000465024 3.29856e-16)
(0.999592 -0.000623551 -3.99344e-16)
(0.999576 -0.000781608 -4.19728e-16)
(0.999597 -0.000927754 4.34728e-16)
(0.999656 -0.00105351 -4.70154e-16)
(0.999747 -0.00114869 -2.4418e-16)
(0.99987 -0.00121458 -3.84828e-16)
(0.999961 -0.00123612 5.41351e-16)
(1.00029 -0.00123329 -4.79035e-17)
(0.999787 -0.00132111 2.14023e-17)
(0.999978 5.34753e-05 -1.70471e-17)
(0.999943 -2.37467e-05 1.53332e-16)
(0.999884 -0.000112921 6.95557e-17)
(0.99981 -0.000224807 1.69743e-16)
(0.999735 -0.000360021 4.67379e-17)
(0.999668 -0.000514394 -1.58203e-16)
(0.999627 -0.000677737 1.0249e-16)
(0.999619 -0.000838411 2.6619e-16)
(0.999648 -0.000984645 -4.1744e-16)
(0.999714 -0.00110881 -2.30794e-16)
(0.999811 -0.00120034 1.00555e-15)
(0.999943 -0.00126083 6.33405e-16)
(1.00003 -0.00128074 -2.89182e-16)
(1.00033 -0.00125899 5.91066e-16)
(1.00002 -0.00131515 -5.8635e-16)
(0.99997 6.62201e-05 1.83559e-17)
(0.999934 -2.71729e-05 -9.48203e-17)
(0.999878 -0.000131909 -1.86344e-16)
(0.999807 -0.000258642 -5.29329e-17)
(0.999737 -0.000407072 1.09413e-16)
(0.999678 -0.000572485 -1.0881e-16)
(0.999644 -0.000744362 1.48123e-16)
(0.999644 -0.000911276 1.31132e-16)
(0.999682 -0.00106069 2.90853e-16)
(0.999759 -0.00118497 -1.00162e-16)
(0.999866 -0.00127252 2.85346e-18)
(1.00001 -0.00132438 -3.88786e-16)
(1.00011 -0.00133547 1.8284e-17)
(1.00037 -0.00128869 -4.67996e-16)
(1.00019 -0.00128137 7.40456e-17)
(0.99996 7.88998e-05 3.25616e-18)
(0.999926 -3.02735e-05 -3.55914e-17)
(0.999873 -0.000149794 -2.90199e-17)
(0.999809 -0.000289665 1.75731e-16)
(0.999748 -0.000448529 -2.20426e-16)
(0.999699 -0.000621043 2.75398e-16)
(0.999676 -0.000796636 -6.19049e-16)
(0.999687 -0.000964552 -3.69693e-16)
(0.999735 -0.00111214 -1.51518e-16)
(0.999822 -0.00123227 6.70905e-16)
(0.999938 -0.00131302 -7.67653e-16)
(1.00009 -0.00135498 2.9774e-16)
(1.0002 -0.00135839 4.55547e-16)
(1.00042 -0.00129408 -9.5704e-17)
(1.00031 -0.00124535 -1.2057e-16)
(0.99995 9.13385e-05 1.51195e-17)
(0.999917 -3.34013e-05 3.22897e-17)
(0.999869 -0.000167353 2.50294e-17)
(0.999813 -0.000319591 -1.50858e-16)
(0.999762 -0.000487716 3.28824e-16)
(0.999725 -0.000665807 -1.3956e-16)
(0.999714 -0.000843383 2.01487e-16)
(0.999736 -0.00101067 -1.46209e-16)
(0.999795 -0.0011554 3.97377e-16)
(0.99989 -0.00127135 1.77646e-16)
(1.00001 -0.0013469 2.44577e-16)
(1.00017 -0.00138229 -5.64632e-17)
(1.00029 -0.00138282 -5.04001e-16)
(1.00049 -0.00131051 1.1368e-15)
(1.00042 -0.00124133 1.86308e-16)
(0.999938 0.000103449 -1.12182e-17)
(0.999906 -3.67637e-05 9.89627e-17)
(0.999863 -0.000185336 1.50799e-16)
(0.999813 -0.000350388 1.11911e-16)
(0.999772 -0.000528627 -4.88606e-16)
(0.999745 -0.000713587 1.40938e-16)
(0.999746 -0.000894789 3.20625e-16)
(0.999778 -0.00106333 7.72216e-16)
(0.999847 -0.00120731 -3.8524e-16)
(0.99995 -0.00132138 8.99977e-17)
(1.00008 -0.00139435 4.48785e-16)
(1.00024 -0.00142578 -3.23481e-16)
(1.00037 -0.00142442 -1.5388e-16)
(1.00056 -0.00134593 -3.80411e-16)
(1.00053 -0.00125356 8.39442e-17)
(0.999924 0.000115205 4.06934e-17)
(0.999893 -4.03354e-05 -8.97431e-17)
(0.999853 -0.000203671 8.85264e-18)
(0.999809 -0.000382003 -1.10173e-16)
(0.999776 -0.000571272 4.10588e-16)
(0.999759 -0.000764528 7.9596e-17)
(0.99977 -0.000951124 2.70176e-16)
(0.999813 -0.00112275 -5.72903e-16)
(0.999891 -0.00126768 4.15729e-17)
(1 -0.00138119 -7.86484e-17)
(1.00014 -0.00145243 -1.39592e-16)
(1.00031 -0.00147992 4.41023e-17)
(1.00045 -0.00147419 5.91775e-16)
(1.00064 -0.00138671 -8.03569e-16)
(1.00065 -0.00126478 -2.69132e-16)
(0.99991 0.000126597 -2.62269e-17)
(0.999879 -4.4039e-05 3.52522e-17)
(0.999842 -0.000222049 -1.47528e-16)
(0.999804 -0.000413683 2.49941e-16)
(0.999778 -0.000614217 -3.61539e-16)
(0.999769 -0.000816296 -3.03038e-16)
(0.99979 -0.00100903 -3.38791e-16)
(0.999844 -0.00118444 3.91042e-17)
(0.999932 -0.00133078 -8.13872e-17)
(1.00006 -0.00144369 -4.24344e-16)
(1.0002 -0.0015126 -7.20799e-16)
(1.00038 -0.00153488 2.85666e-16)
(1.00054 -0.00152177 -3.28149e-16)
(1.00072 -0.00142255 9.06319e-16)
(1.00077 -0.00127065 5.36866e-17)
(0.999894 0.00013763 -2.45582e-17)
(0.999864 -4.78412e-05 -1.0424e-16)
(0.99983 -0.000240302 1.5074e-16)
(0.999797 -0.000444996 -2.34156e-16)
(0.999778 -0.000656596 7.68665e-17)
(0.999779 -0.000867438 4.54149e-16)
(0.99981 -0.0010664 5.53873e-17)
(0.999874 -0.00124562 -6.73376e-17)
(0.999974 -0.00139322 1.81505e-16)
(1.00011 -0.00150498 -1.56866e-16)
(1.00027 -0.00157054 -9.5041e-17)
(1.00045 -0.00158622 -6.67523e-17)
(1.00062 -0.00156362 -2.86977e-16)
(1.00081 -0.00145152 -6.20976e-16)
(1.00089 -0.00127343 1.24112e-17)
(0.999877 0.000148325 -2.17695e-18)
(0.999847 -5.17283e-05 1.40505e-16)
(0.999817 -0.000258394 -2.21524e-16)
(0.999789 -0.000475831 8.34079e-17)
(0.999779 -0.00069815 -9.35606e-17)
(0.999789 -0.000917427 -1.54751e-16)
(0.99983 -0.00112238 -3.88913e-17)
(0.999905 -0.00130515 3.65006e-16)
(1.00002 -0.00145366 -6.3015e-16)
(1.00016 -0.00156362 4.20186e-16)
(1.00033 -0.00162494 2.20455e-16)
(1.00053 -0.00163305 1.84009e-16)
(1.00071 -0.00159997 7.49159e-16)
(1.0009 -0.00147538 7.29627e-16)
(1.00101 -0.00127638 5.48283e-16)
(0.999859 0.000158722 8.3044e-18)
(0.99983 -5.56938e-05 5.28799e-17)
(0.999803 -0.00027633 1.76069e-16)
(0.999781 -0.000506202 5.57705e-17)
(0.999779 -0.000738863 1.7064e-16)
(0.999799 -0.000966144 1.6805e-16)
(0.999851 -0.0011767 -1.18468e-17)
(0.999938 -0.0013626 4.92905e-17)
(1.00006 -0.00151162 9.376e-16)
(1.00022 -0.00161931 -1.13892e-16)
(1.0004 -0.00167588 5.42057e-16)
(1.0006 -0.00167622 -7.38836e-16)
(1.00079 -0.00163286 1.36918e-16)
(1.00099 -0.00149743 -1.34411e-15)
(1.00113 -0.00128324 -6.16146e-16)
(0.99984 0.000168871 9.94111e-18)
(0.999811 -5.97273e-05 -1.17689e-16)
(0.999788 -0.000294148 1.54797e-16)
(0.999773 -0.000536209 -2.24107e-16)
(0.999779 -0.000778913 1.56836e-16)
(0.999809 -0.00101382 2.07166e-17)
(0.999873 -0.00122959 1.95005e-16)
(0.999972 -0.00141826 -2.59982e-16)
(1.00011 -0.00156754 -8.38934e-16)
(1.00028 -0.00167283 2.49228e-16)
(1.00047 -0.00172473 -5.60088e-16)
(1.00068 -0.00171786 1.12801e-16)
(1.00088 -0.00166533 -4.90107e-16)
(1.00108 -0.00152128 2.65581e-16)
(1.00124 -0.00129637 -1.08453e-16)
(0.99982 0.00017883 3.32429e-17)
(0.999791 -6.38233e-05 7.18909e-17)
(0.999771 -0.000311905 -3.58968e-16)
(0.999763 -0.000566037 2.88385e-16)
(0.999779 -0.000818672 -2.79952e-16)
(0.99982 -0.00106106 -3.72954e-16)
(0.999895 -0.00128191 -3.82905e-16)
(1.00001 -0.00147326 3.3756e-16)
(1.00015 -0.00162285 7.18768e-16)
(1.00033 -0.00172602 1.62989e-16)
(1.00053 -0.00177383 9.46889e-17)
(1.00076 -0.00176081 7.00738e-17)
(1.00097 -0.00170045 -7.32727e-16)
(1.00118 -0.00154962 6.43749e-17)
(1.00134 -0.00131614 6.32407e-16)
(0.999799 0.000188668 -8.96716e-17)
(0.99977 -6.79675e-05 -9.24017e-17)
(0.999754 -0.000329668 3.42864e-17)
(0.999752 -0.000595898 -2.6434e-16)
(0.999777 -0.000858587 -1.79652e-17)
(0.999829 -0.00110863 4.81619e-16)
(0.999916 -0.00133476 5.50673e-17)
(1.00004 -0.00152904 3.04038e-16)
(1.0002 -0.00167932 -6.02759e-16)
(1.00039 -0.00178092 -3.09605e-16)
(1.0006 -0.0018254 4.44489e-16)
(1.00083 -0.00180723 -1.49022e-16)
(1.00105 -0.00173992 4.83557e-16)
(1.00127 -0.00158299 7.49226e-16)
(1.00144 -0.00134063 -5.9813e-17)
(0.999777 0.000198452 2.8092e-17)
(0.999747 -7.21402e-05 1.14761e-17)
(0.999735 -0.000347473 1.15623e-16)
(0.99974 -0.000625942 2.25893e-18)
(0.999773 -0.00089899 9.8858e-17)
(0.999835 -0.00115711 -2.89609e-16)
(0.999935 -0.00138901 5.98164e-16)
(1.00007 -0.00158673 -1.53461e-16)
(1.00024 -0.00173826 6.52347e-16)
(1.00044 -0.00183887 -3.4125e-16)
(1.00067 -0.0018806 -5.43324e-16)
(1.00091 -0.00185783 5.24354e-16)
(1.00114 -0.00178365 -8.84002e-16)
(1.00136 -0.0016201 -1.30185e-15)
(1.00155 -0.00136715 -3.29385e-16)
(0.999753 0.000208253 3.12774e-18)
(0.999723 -7.63071e-05 1.94994e-17)
(0.999714 -0.000365323 -3.12157e-17)
(0.999725 -0.000656215 1.58664e-16)
(0.999767 -0.000939995 1.08816e-16)
(0.99984 -0.00120671 -4.26677e-17)
(0.99995 -0.00144497 -3.60551e-16)
(1.0001 -0.00164671 -3.47544e-16)
(1.00028 -0.00179999 -2.34901e-16)
(1.0005 -0.0019 4.32838e-16)
(1.00073 -0.00193916 3.35357e-16)
(1.00098 -0.00191171 -4.93028e-16)
(1.00122 -0.00183003 1.0951e-15)
(1.00146 -0.00165858 1.37177e-15)
(1.00165 -0.00139314 4.63396e-17)
(0.999728 0.000218136 3.57652e-17)
(0.999698 -8.04335e-05 -4.76e-17)
(0.999692 -0.000383182 2.2944e-16)
(0.999709 -0.000686664 -4.56938e-17)
(0.999758 -0.000981498 -1.74387e-16)
(0.999842 -0.00125726 7.39267e-17)
(0.999964 -0.00150238 -1.29688e-16)
(1.00012 -0.0017086 2.93434e-16)
(1.00032 -0.00186393 7.713e-17)
(1.00055 -0.00196342 5.39146e-17)
(1.00079 -0.00199978 -2.57194e-16)
(1.00106 -0.00196711 3.41374e-16)
(1.00131 -0.00187697 1.73978e-16)
(1.00155 -0.00169628 1.554e-16)
(1.00176 -0.00141737 3.9359e-16)
(0.999702 0.000228159 -1.83864e-17)
(0.999671 -8.44819e-05 2.72484e-17)
(0.999668 -0.000401003 -3.71921e-16)
(0.999691 -0.00071718 -2.37937e-16)
(0.999749 -0.00102327 3.29292e-16)
(0.999842 -0.00130834 -8.91411e-17)
(0.999976 -0.00156063 5.2068e-16)
(1.00015 -0.00177153 -1.41355e-16)
(1.00036 -0.00192896 -7.50781e-18)
(1.0006 -0.00202774 -1.4992e-16)
(1.00086 -0.00206082 3.84917e-16)
(1.00113 -0.0020222 -2.42588e-16)
(1.00139 -0.00192276 -7.97353e-16)
(1.00165 -0.00173199 -1.89727e-16)
(1.00187 -0.00143987 -4.4959e-16)
(0.999674 0.00023837 2.47508e-17)
(0.999643 -8.84271e-05 1.12576e-16)
(0.999643 -0.000418744 3.35217e-16)
(0.999672 -0.000747656 2.60149e-16)
(0.999738 -0.00106507 -3.2066e-17)
(0.999841 -0.00135954 -1.30252e-16)
(0.999987 -0.00161904 -5.76413e-16)
(1.00017 -0.00183459 -6.70114e-17)
(1.0004 -0.00199397 -3.42318e-16)
(1.00065 -0.00209172 1.1086e-16)
(1.00092 -0.00212101 -7.05522e-16)
(1.0012 -0.00207589 3.40295e-16)
(1.00148 -0.00196681 1.14869e-15)
(1.00174 -0.00176589 -8.85277e-16)
(1.00198 -0.00146195 5.24112e-16)
(0.999645 0.000248805 -1.99577e-17)
(0.999614 -9.22502e-05 -1.58399e-16)
(0.999617 -0.000436386 -1.91853e-16)
(0.999651 -0.000778037 -9.56824e-17)
(0.999726 -0.00110675 -6.1275e-17)
(0.99984 -0.00141056 8.41166e-17)
(0.999998 -0.00167718 -3.22089e-17)
(1.0002 -0.00189721 -4.42366e-16)
(1.00043 -0.0020583 -1.3019e-16)
(1.0007 -0.00215473 -3.27781e-17)
(1.00099 -0.00217992 6.42163e-16)
(1.00128 -0.00212814 1.07388e-16)
(1.00157 -0.00200959 -9.55028e-16)
(1.00184 -0.00179911 5.0659e-16)
(1.00209 -0.00148507 -1.01452e-16)
(0.999615 0.000259486 1.80284e-17)
(0.999583 -9.5948e-05 9.31338e-17)
(0.99959 -0.000453939 9.2339e-17)
(0.99963 -0.000808337 1.79568e-16)
(0.999714 -0.00114832 -9.78299e-17)
(0.999839 -0.00146139 -2.7515e-17)
(1.00001 -0.00173498 1.98788e-16)
(1.00022 -0.00195931 2.97021e-16)
(1.00047 -0.00212195 -2.14e-17)
(1.00075 -0.00221694 -3.58518e-16)
(1.00105 -0.00223801 -2.75553e-16)
(1.00136 -0.00217977 -4.84295e-16)
(1.00166 -0.00205235 2.03169e-17)
(1.00193 -0.00183315 2.62305e-16)
(1.00219 -0.00151051 -1.58598e-16)
(0.999582 0.000270429 -9.63966e-18)
(0.999551 -9.95208e-05 -5.51142e-17)
(0.999561 -0.000471434 1.40234e-16)
(0.999608 -0.00083863 1.47063e-17)
(0.999701 -0.00118991 -1.24534e-16)
(0.999837 -0.00151222 1.00418e-16)
(1.00002 -0.00179273 -4.79651e-17)
(1.00025 -0.0020213 2.73858e-16)
(1.00051 -0.00218544 5.0595e-16)
(1.0008 -0.00227907 7.8565e-17)
(1.00112 -0.00229626 2.37788e-16)
(1.00143 -0.002232 2.4199e-16)
(1.00174 -0.00209638 5.97221e-17)
(1.00203 -0.00186918 -5.39804e-16)
(1.0023 -0.00153846 1.30751e-16)
(0.999549 0.000281635 1.29125e-17)
(0.999518 -0.000102977 1.1608e-17)
(0.999531 -0.000488914 -2.86493e-16)
(0.999585 -0.000869021 -1.25152e-16)
(0.999686 -0.00123172 1.75941e-16)
(0.999834 -0.00156337 -2.74621e-17)
(1.00003 -0.00185088 1.83652e-16)
(1.00027 -0.00208378 -2.43905e-16)
(1.00055 -0.00224957 1.39021e-16)
(1.00086 -0.00234209 1.15612e-16)
(1.00118 -0.00235573 1.22013e-16)
(1.00151 -0.00228591 1.55229e-16)
(1.00183 -0.00214258 2.1572e-16)
(1.00213 -0.00190763 3.03485e-17)
(1.0024 -0.00156866 7.6911e-17)
(0.999514 0.0002931 -3.97284e-17)
(0.999483 -0.000106323 1.05117e-16)
(0.9995 -0.000506417 1.64499e-16)
(0.99956 -0.000899605 -1.05291e-16)
(0.999671 -0.00127393 -6.84462e-17)
(0.99983 -0.00161515 3.89541e-17)
(1.00004 -0.00190989 -2.00075e-16)
(1.00029 -0.00214734 -1.309e-16)
(1.00058 -0.00231503 -1.7192e-16)
(1.00091 -0.00240672 2.73205e-16)
(1.00124 -0.00241712 -3.78953e-16)
(1.00159 -0.00234201 2.95919e-16)
(1.00192 -0.0021911 1.44887e-16)
(1.00222 -0.00194817 5.41949e-16)
(1.0025 -0.0016001 -4.95439e-16)
(0.999477 0.000304809 1.67639e-17)
(0.999447 -0.000109566 -7.91192e-17)
(0.999467 -0.00052397 5.79255e-17)
(0.999534 -0.000930441 1.28107e-16)
(0.999653 -0.00131664 -8.8808e-17)
(0.999823 -0.00166774 -1.50075e-16)
(1.00005 -0.00197 -7.10485e-17)
(1.00031 -0.00221231 9.79012e-17)
(1.00062 -0.00238215 -4.47767e-16)
(1.00096 -0.00247325 6.60568e-17)
(1.00131 -0.00248056 2.51787e-16)
(1.00166 -0.00240017 -7.03544e-16)
(1.002 -0.00224147 1.42005e-16)
(1.00232 -0.00199 2.17361e-17)
(1.00261 -0.00163183 3.6534e-16)
(0.999439 0.000316744 -6.37306e-18)
(0.99941 -0.00011271 9.69685e-17)
(0.999433 -0.000541584 -9.36788e-17)
(0.999506 -0.000961548 -5.81396e-17)
(0.999634 -0.00135989 -9.27182e-17)
(0.999816 -0.00172114 -4.90272e-17)
(1.00005 -0.00203123 -1.05702e-16)
(1.00033 -0.00227865 7.54586e-17)
(1.00065 -0.00245086 2.90181e-17)
(1.001 -0.00254147 -3.10015e-16)
(1.00137 -0.00254565 -3.69762e-16)
(1.00174 -0.00245975 4.10081e-16)
(1.00209 -0.00229287 -3.57826e-16)
(1.00242 -0.00203224 -1.13869e-16)
(1.00271 -0.00166332 -1.11911e-17)
(0.999399 0.00032888 -1.92846e-17)
(0.999371 -0.000115763 -4.47948e-17)
(0.999397 -0.000559262 3.16358e-17)
(0.999476 -0.000992904 2.25414e-16)
(0.999614 -0.00140359 3.76409e-16)
(0.999806 -0.00177523 3.07262e-16)
(1.00005 -0.00209337 3.3567e-16)
(1.00035 -0.00234609 -2.14121e-16)
(1.00069 -0.00252076 6.97371e-20)
(1.00105 -0.00261087 2.32167e-16)
(1.00143 -0.00261175 4.5709e-17)
(1.00181 -0.00252003 2.51975e-16)
(1.00218 -0.00234462 2.02408e-16)
(1.00251 -0.00207436 -5.3001e-16)
(1.00282 -0.00169454 -3.47481e-16)
(0.999358 0.000341191 9.92213e-18)
(0.999331 -0.000118734 -8.09626e-17)
(0.99936 -0.000577003 -1.61937e-16)
(0.999445 -0.00102448 -1.58944e-16)
(0.999592 -0.00144766 1.46065e-17)
(0.999796 -0.00182983 -1.73468e-16)
(1.00006 -0.00215615 -3.77653e-16)
(1.00037 -0.00241423 2.88214e-16)
(1.00072 -0.00259136 2.34375e-16)
(1.0011 -0.00268088 -5.16709e-16)
(1.00149 -0.00267828 4.23771e-16)
(1.00188 -0.00258049 -3.08846e-16)
(1.00226 -0.00239634 -1.4231e-16)
(1.00261 -0.00211633 -1.24357e-16)
(1.00292 -0.00172585 1.48047e-16)
(0.999315 0.000353648 3.77699e-17)
(0.999289 -0.000121639 1.73723e-17)
(0.999322 -0.000594813 8.75854e-17)
(0.999413 -0.00105626 4.06819e-17)
(0.999568 -0.00149203 4.78579e-17)
(0.999784 -0.0018848 3.0001e-16)
(1.00006 -0.00221932 -1.3554e-16)
(1.00038 -0.00248277 1.48089e-16)
(1.00075 -0.00266231 8.50156e-17)
(1.00114 -0.00275118 5.92401e-17)
(1.00155 -0.00274497 1.97307e-16)
(1.00196 -0.00264101 -4.20553e-17)
(1.00235 -0.00244817 9.34363e-18)
(1.00271 -0.00215853 8.67423e-16)
(1.00303 -0.00175791 2.75465e-18)
(0.999271 0.000366226 -3.66611e-17)
(0.999246 -0.000124497 -1.26606e-17)
(0.999282 -0.000612709 5.72625e-17)
(0.999379 -0.00108824 -1.74576e-16)
(0.999544 -0.00153667 -2.79597e-16)
(0.999771 -0.00194007 -2.67867e-16)
(1.00006 -0.00228279 2.26937e-16)
(1.0004 -0.0025516 -8.299e-17)
(1.00078 -0.00273353 9.67535e-18)
(1.00119 -0.00282171 -5.00988e-18)
(1.00161 -0.00281191 -2.72541e-16)
(1.00203 -0.00270186 -2.46243e-16)
(1.00244 -0.00250055 -1.58732e-16)
(1.0028 -0.00220154 2.40712e-17)
(1.00313 -0.00179109 -5.42351e-17)
(0.999226 0.000378897 -1.83025e-17)
(0.999201 -0.000127333 4.84354e-17)
(0.99924 -0.000630719 4.76506e-17)
(0.999344 -0.00112045 7.75373e-17)
(0.999518 -0.00158164 1.06043e-16)
(0.999757 -0.00199571 1.67558e-18)
(1.00006 -0.00234666 2.26833e-16)
(1.00041 -0.00262084 -5.05727e-16)
(1.00081 -0.0028052 2.57849e-16)
(1.00124 -0.00289277 2.62931e-16)
(1.00167 -0.00287951 -3.76073e-16)
(1.00211 -0.00276355 7.02154e-16)
(1.00252 -0.00255403 3.69485e-16)
(1.0029 -0.00224587 -6.88103e-16)
(1.00324 -0.00182566 -2.04511e-16)
(0.99918 0.000391645 3.78483e-17)
(0.999155 -0.000130171 2.93862e-17)
(0.999197 -0.000648876 4.58846e-18)
(0.999308 -0.00115296 -3.47584e-17)
(0.999491 -0.00162702 2.01606e-17)
(0.999742 -0.00205186 2.84427e-16)
(1.00006 -0.00241112 -4.58415e-17)
(1.00043 -0.00269076 3.24539e-16)
(1.00084 -0.00287765 -4.80176e-17)
(1.00128 -0.00296477 -2.90825e-16)
(1.00173 -0.00294823 6.0164e-16)
(1.00218 -0.00282656 -3.60965e-16)
(1.00261 -0.00260901 -4.88492e-16)
(1.003 -0.00229173 2.06376e-16)
(1.00334 -0.00186143 3.44694e-16)
(0.999132 0.000404451 -3.14741e-17)
(0.999107 -0.00013304 -1.32672e-17)
(0.999153 -0.000667215 -1.72995e-16)
(0.99927 -0.00118583 -8.45373e-17)
(0.999463 -0.00167291 5.2057e-17)
(0.999726 -0.00210868 -2.87137e-16)
(1.00005 -0.00247641 -8.43983e-17)
(1.00044 -0.00276167 2.82848e-16)
(1.00087 -0.00295126 -2.39176e-16)
(1.00133 -0.00303811 7.01288e-17)
(1.00179 -0.00301846 -3.35017e-16)
(1.00226 -0.0028912 1.05354e-17)
(1.0027 -0.00266564 2.64403e-16)
(1.0031 -0.00233902 1.39044e-16)
(1.00344 -0.00189806 -5.41316e-17)
(0.999083 0.000417307 3.00254e-17)
(0.999058 -0.000135959 -9.74092e-17)
(0.999107 -0.000685765 8.17632e-17)
(0.99923 -0.00121909 5.351e-17)
(0.999433 -0.00171941 -4.03421e-17)
(0.999708 -0.00216632 -1.72477e-16)
(1.00005 -0.00254271 5.2289e-17)
(1.00045 -0.0028338 -1.29677e-16)
(1.00089 -0.00302628 -2.18608e-16)
(1.00137 -0.003113 -2.73152e-17)
(1.00185 -0.00309033 -4.84141e-16)
(1.00233 -0.00295746 4.95332e-16)
(1.00278 -0.00272371 3.84865e-17)
(1.00319 -0.00238737 -7.93814e-17)
(1.00355 -0.00193503 -7.71577e-18)
(0.999033 0.000430205 -3.68273e-17)
(0.999007 -0.000138953 1.00276e-16)
(0.999059 -0.000704546 -2.30337e-17)
(0.999189 -0.00125277 -2.09808e-16)
(0.999401 -0.00176655 -9.99574e-17)
(0.999688 -0.00222483 1.16106e-16)
(1.00004 -0.00261011 -1.70346e-16)
(1.00046 -0.00290723 -1.90785e-16)
(1.00092 -0.00310276 3.24632e-16)
(1.00141 -0.00318944 1.12941e-16)
(1.00191 -0.00316374 5.08e-16)
(1.0024 -0.0030251 -3.81986e-16)
(1.00287 -0.00278289 1.37216e-16)
(1.00329 -0.0024364 -1.54416e-16)
(1.00366 -0.00197211 5.14388e-18)
(0.998982 0.000443142 2.2794e-17)
(0.998955 -0.000142036 -5.80282e-17)
(0.99901 -0.000723569 7.2076e-17)
(0.999146 -0.00128688 3.12611e-16)
(0.999367 -0.00181432 1.32647e-16)
(0.999666 -0.00228418 8.22859e-17)
(1.00004 -0.00267857 3.38343e-16)
(1.00047 -0.00298189 1.60767e-16)
(1.00095 -0.00318056 -2.64752e-16)
(1.00145 -0.00326723 4.51025e-16)
(1.00197 -0.00323839 2.50765e-16)
(1.00247 -0.00309377 -2.12182e-16)
(1.00295 -0.00284281 -4.05721e-16)
(1.00339 -0.00248577 -1.57583e-16)
(1.00376 -0.00200916 6.07865e-17)
(0.998929 0.000456115 4.68026e-18)
(0.998901 -0.000145224 -1.23629e-16)
(0.998959 -0.000742839 -9.17417e-17)
(0.999102 -0.0013214 -2.15249e-16)
(0.999332 -0.00186268 3.45723e-17)
(0.999644 -0.00234432 -3.34163e-16)
(1.00003 -0.00274797 -3.59201e-16)
(1.00048 -0.00305761 -1.44467e-16)
(1.00097 -0.00325948 3.07721e-16)
(1.00149 -0.0033461 -3.26807e-16)
(1.00203 -0.00331399 1.1553e-16)
(1.00255 -0.00316317 2.14719e-16)
(1.00304 -0.00290323 3.25869e-16)
(1.00349 -0.00253541 1.98766e-16)
(1.00387 -0.0020464 1.68628e-17)
(0.998874 0.000469127 3.28978e-17)
(0.998845 -0.000148528 2.02061e-16)
(0.998907 -0.000762358 9.40367e-17)
(0.999056 -0.00135631 1.80701e-16)
(0.999296 -0.00191158 1.08258e-16)
(0.999619 -0.00240513 4.5634e-17)
(1.00002 -0.00281816 5.26337e-17)
(1.00048 -0.0031342 -1.2091e-16)
(1.00099 -0.00333929 -1.22589e-16)
(1.00153 -0.00342581 1.43633e-17)
(1.00208 -0.00339032 -7.8945e-16)
(1.00262 -0.00323316 -3.08244e-16)
(1.00313 -0.00296413 3.24024e-16)
(1.00359 -0.00258544 -7.22312e-17)
(1.00398 -0.00208403 -1.99888e-16)
(0.998819 0.000482173 -4.42163e-17)
(0.998788 -0.000151962 -1.29486e-16)
(0.998853 -0.000782131 -1.8595e-16)
(0.999008 -0.0013916 6.10824e-17)
(0.999258 -0.00196098 -2.05386e-16)
(0.999594 -0.00246654 3.82556e-17)
(1.00001 -0.00288905 -4.73444e-17)
(1.00049 -0.00321155 -8.6404e-18)
(1.00102 -0.00341987 -1.46485e-16)
(1.00157 -0.00350627 -7.6793e-17)
(1.00214 -0.00346736 2.7191e-17)
(1.00269 -0.00330381 2.67692e-16)
(1.00321 -0.0030257 -1.34885e-16)
(1.00369 -0.00263614 2.6616e-16)
(1.00408 -0.00212245 9.39969e-17)
(0.998761 0.000495256 2.36321e-17)
(0.99873 -0.000155536 1.24046e-16)
(0.998798 -0.000802167 2.36244e-16)
(0.998959 -0.00142726 -6.82559e-17)
(0.999219 -0.00201087 -1.6558e-17)
(0.999567 -0.00252855 2.5068e-16)
(0.999996 -0.00296061 2.13129e-16)
(1.00049 -0.00328963 -1.46011e-16)
(1.00104 -0.00350123 3.91111e-16)
(1.00161 -0.00358754 3.54758e-16)
(1.0022 -0.00354524 3.7715e-16)
(1.00277 -0.00337534 -1.74122e-17)
(1.0033 -0.00308819 -2.99021e-16)
(1.00379 -0.0026878 -3.13919e-16)
(1.00419 -0.0021618 -3.02289e-17)
(0.998702 0.000508374 -2.02501e-17)
(0.99867 -0.00015926 -6.55057e-17)
(0.998741 -0.000822479 -1.95809e-16)
(0.998909 -0.00146332 1.26005e-16)
(0.999178 -0.00206128 1.20893e-16)
(0.999539 -0.00259118 -1.67846e-16)
(0.999983 -0.0030329 -8.47253e-17)
(1.0005 -0.00336854 8.37679e-18)
(1.00106 -0.00358351 -1.7382e-16)
(1.00165 -0.00366982 -3.03959e-16)
(1.00225 -0.00362422 -5.60714e-16)
(1.00284 -0.00344804 6.05397e-17)
(1.00339 -0.00315192 3.65079e-16)
(1.00389 -0.00274067 3.30424e-16)
(1.0043 -0.00220222 -6.94546e-17)
(0.998641 0.000521527 -1.61144e-17)
(0.998608 -0.000163141 -1.31764e-17)
(0.998682 -0.000843086 1.71352e-16)
(0.998857 -0.00149982 -1.61662e-16)
(0.999136 -0.00211225 -3.19424e-16)
(0.99951 -0.00265453 1.55001e-16)
(0.999969 -0.00310604 8.79446e-17)
(1.0005 -0.00344845 4.07175e-16)
(1.00108 -0.00366692 5.82059e-17)
(1.00169 -0.00375336 2.83015e-16)
(1.00231 -0.00370455 8.4022e-16)
(1.00291 -0.00352216 -2.3045e-16)
(1.00348 -0.00321705 -9.77838e-17)
(1.00399 -0.0027948 -1.15383e-17)
(1.00441 -0.00224354 -2.76623e-17)
(0.998579 0.000534713 4.50669e-17)
(0.998545 -0.000167183 4.92285e-17)
(0.998622 -0.000864005 -1.47371e-16)
(0.998804 -0.00153678 1.36889e-16)
(0.999093 -0.00216387 -9.21253e-17)
(0.99948 -0.0027187 -2.96566e-16)
(0.999954 -0.00318019 1.30306e-17)
(1.0005 -0.00352953 -3.50231e-17)
(1.0011 -0.00375167 -2.15874e-16)
(1.00173 -0.00383836 1.81931e-16)
(1.00237 -0.00378644 -7.84281e-16)
(1.00299 -0.00359784 -1.42701e-17)
(1.00357 -0.00328364 -1.74661e-16)
(1.00409 -0.00285017 3.26076e-17)
(1.00452 -0.00228569 -8.1946e-17)
(0.998514 0.000547934 -1.15001e-17)
(0.99848 -0.000171387 -1.17297e-17)
(0.99856 -0.00088525 2.03923e-17)
(0.998749 -0.00157425 -1.52226e-16)
(0.999048 -0.00221619 -2.7326e-17)
(0.999448 -0.00278378 3.6212e-16)
(0.999938 -0.00325546 -2.63876e-16)
(1.0005 -0.00361194 -3.26788e-16)
(1.00112 -0.00383791 3.49849e-16)
(1.00177 -0.00392498 -3.16474e-16)
(1.00242 -0.00386997 4.00446e-16)
(1.00306 -0.00367509 3.78749e-16)
(1.00365 -0.00335163 2.72711e-16)
(1.00419 -0.00290662 -1.81381e-16)
(1.00463 -0.00232844 -6.17669e-17)
(0.998448 0.000561189 -1.24025e-17)
(0.998414 -0.000175752 -7.19736e-17)
(0.998497 -0.000906835 -9.69087e-17)
(0.998692 -0.00161225 7.11184e-17)
(0.999001 -0.00226927 1.80226e-16)
(0.999414 -0.00284984 6.32066e-17)
(0.99992 -0.00333194 2.45234e-16)
(1.0005 -0.00369577 5.35942e-17)
(1.00114 -0.00392572 -4.59973e-16)
(1.00181 -0.00401323 1.60927e-16)
(1.00248 -0.00395512 -2.2743e-16)
(1.00313 -0.00375384 -1.88855e-16)
(1.00374 -0.0034209 -2.54303e-16)
(1.00429 -0.00296403 4.01685e-17)
(1.00474 -0.00237177 1.49184e-16)
(0.99838 0.000574481 -1.90369e-17)
(0.998346 -0.00018027 3.42814e-17)
(0.998432 -0.000928762 4.13851e-17)
(0.998634 -0.00165081 -1.42545e-16)
(0.998953 -0.00232313 6.95563e-17)
(0.999379 -0.00291693 -2.11016e-16)
(0.9999 -0.00340967 -2.58463e-17)
(1.0005 -0.00378102 3.17285e-16)
(1.00115 -0.00401507 -2.02344e-16)
(1.00184 -0.00410306 -2.67431e-16)
(1.00253 -0.0040418 2.29655e-16)
(1.0032 -0.00383396 -6.81553e-17)
(1.00383 -0.00349131 -7.20583e-16)
(1.00439 -0.00302228 7.34931e-17)
(1.00485 -0.00241555 1.0732e-16)
(0.99831 0.000587809 -9.79872e-18)
(0.998276 -0.000184935 3.34385e-17)
(0.998365 -0.000951035 1.25968e-17)
(0.998573 -0.00168993 1.90019e-17)
(0.998903 -0.00237778 1.2003e-16)
(0.999342 -0.00298504 6.66905e-17)
(0.99988 -0.00348863 -2.19624e-16)
(1.0005 -0.00386768 -2.00529e-17)
(1.00117 -0.00410592 6.06058e-16)
(1.00188 -0.00419441 -1.94354e-16)
(1.00259 -0.00412992 -5.71394e-18)
(1.00328 -0.00391536 2.87326e-17)
(1.00392 -0.0035628 2.77432e-17)
(1.00449 -0.00308137 -5.0888e-17)
(1.00496 -0.00245994 1.69408e-17)
(0.998238 0.000601178 2.58216e-17)
(0.998204 -0.000189736 -6.82083e-17)
(0.998297 -0.000973651 -7.79043e-17)
(0.998512 -0.00172961 1.49573e-19)
(0.998851 -0.00243323 -1.81242e-16)
(0.999304 -0.00305417 -2.894e-17)
(0.999858 -0.00356881 4.2645e-17)
(1.00049 -0.00395569 -4.82831e-17)
(1.00119 -0.00419822 -4.10318e-16)
(1.00191 -0.00428721 5.46246e-16)
(1.00264 -0.00421942 -3.11696e-17)
(1.00335 -0.00399802 -5.7064e-17)
(1.00401 -0.00363538 3.36285e-16)
(1.0046 -0.00314134 -3.7701e-16)
(1.00507 -0.00250496 7.95547e-18)
(0.998165 0.000614592 2.73977e-18)
(0.998131 -0.000194667 8.18265e-17)
(0.998226 -0.000996611 2.19891e-16)
(0.998448 -0.00176986 -5.54472e-17)
(0.998798 -0.00248947 1.17787e-16)
(0.999264 -0.00312431 -1.83011e-16)
(0.999834 -0.00365019 -2.19146e-16)
(1.00049 -0.00404505 5.262e-18)
(1.0012 -0.00429193 2.38903e-16)
(1.00195 -0.00438144 -4.76763e-16)
(1.0027 -0.00431031 1.18738e-16)
(1.00342 -0.00408197 -2.06346e-17)
(1.0041 -0.00370913 2.59788e-16)
(1.0047 -0.00320231 8.02544e-17)
(1.00519 -0.00255081 -1.24905e-16)
(0.99809 0.000628055 1.05285e-18)
(0.998056 -0.000199719 -8.88093e-17)
(0.998154 -0.00101992 -1.25499e-16)
(0.998383 -0.00181069 2.07688e-17)
(0.998743 -0.00254652 -2.18829e-17)
(0.999223 -0.00319547 1.66122e-16)
(0.99981 -0.00373277 3.59806e-16)
(1.00048 -0.00413576 -3.19122e-16)
(1.00122 -0.00438709 3.62958e-16)
(1.00198 -0.00447715 3.20815e-17)
(1.00275 -0.00440265 7.11844e-17)
(1.0035 -0.0041673 -1.37461e-16)
(1.00419 -0.00378414 2.65345e-16)
(1.00481 -0.00326437 1.50337e-16)
(1.0053 -0.00259743 1.96226e-16)
(0.998013 0.000641573 -8.61082e-18)
(0.997979 -0.000204891 8.4715e-17)
(0.99808 -0.00104357 1.54578e-16)
(0.998316 -0.00185211 5.3402e-17)
(0.998687 -0.00260439 1.56179e-16)
(0.999181 -0.00326768 1.19935e-16)
(0.999784 -0.0038166 -3.23112e-16)
(1.00048 -0.00422786 6.47288e-16)
(1.00123 -0.00448375 -2.03591e-16)
(1.00202 -0.00457441 -6.77188e-17)
(1.00281 -0.00449655 -2.45079e-16)
(1.00357 -0.00425413 -1.07613e-16)
(1.00428 -0.00386052 -2.953e-16)
(1.00491 -0.00332759 -1.0877e-16)
(1.00541 -0.00264494 4.71945e-17)
(0.997935 0.000655155 -3.05795e-17)
(0.9979 -0.000210177 -9.0596e-17)
(0.998005 -0.00106758 -1.08407e-17)
(0.998247 -0.00189413 1.06235e-16)
(0.998629 -0.00266312 -1.42133e-16)
(0.999136 -0.00334097 -1.0436e-16)
(0.999757 -0.00390172 4.04332e-16)
(1.00047 -0.00432144 -1.20753e-16)
(1.00124 -0.00458199 -5.15833e-16)
(1.00205 -0.00467332 7.09861e-17)
(1.00286 -0.00459209 -1.24435e-16)
(1.00365 -0.00434253 2.3019e-16)
(1.00437 -0.00393832 3.68651e-16)
(1.00502 -0.003392 3.2831e-16)
(1.00553 -0.00269324 -2.75043e-16)
(0.997855 0.000668806 1.83384e-18)
(0.997819 -0.000215582 -1.74754e-17)
(0.997927 -0.00109197 -7.23323e-17)
(0.998176 -0.00193679 4.50826e-17)
(0.998569 -0.00272273 -7.88104e-17)
(0.999091 -0.0034154 1.34403e-16)
(0.999728 -0.0039882 -1.16185e-16)
(1.00046 -0.00441656 3.98663e-17)
(1.00125 -0.00468192 -1.08116e-16)
(1.00209 -0.00477398 2.75044e-16)
(1.00292 -0.00468937 3.3649e-16)
(1.00372 -0.00443257 1.94441e-18)
(1.00446 -0.00401759 -5.86719e-16)
(1.00512 -0.00345759 -3.9919e-16)
(1.00565 -0.0027424 2.72114e-16)
(0.997773 0.000682538 4.09636e-17)