1.275 	2.15223e-18 	-2.76991e-20 	-0.0329665 	-0.000661687 	-2.07026e-22
1.825 	2.15223e-18 	-1.39322e-20 	0.00439379 	-0.00397869 	1.7014e-21
2.375 	2.15223e-18 	-2.66896e-23 	0.18693 	-0.00548073 	-6.66508e-22
