1.45 	0 	0 	0.0114569 	-0.00465197 	3.89303e-21
2.35 	0 	0 	0.147968 	-0.00953081 	1.55633e-21
