1.45 	0 	0 	-0.291692
2.35 	0 	0 	-0.127013
