/*--------------------------------*- C++ -*----------------------------------*\
  =========                 |
  \\      /  F ield         | OpenFOAM: The Open Source CFD Toolbox
   \\    /   O peration     | Website:  https://openfoam.org
    \\  /    A nd           | Version:  6.0
     \\/     M anipulation  |
\*---------------------------------------------------------------------------*/
FoamFile
{
    version     2.0;
    format      ascii;
    class       volScalarField;
    location    "0.5";
    object      p;
}
// * * * * * * * * * * * * * * * * * * * * * * * * * * * * * * * * * * * * * //

dimensions      [0 2 -2 0 0 0 0];

internalField   nonuniform List<scalar> 
200
(
1.30417e-06
-0.0182295
-0.0267187
-0.019435
0.00218372
0.0355036
0.0779349
0.127379
0.182377
0.242001
0.305621
0.372574
0.441736
0.510994
0.576711
0.633463
0.674516
0.693393
0.686972
0.664348
0.0183717
-0.0013261
-0.00680628
0.00226874
0.0229709
0.0536509
0.0927236
0.138661
0.190198
0.246334
0.306211
0.368913
0.433172
0.496998
0.557279
0.609607
0.648722
0.66938
0.66647
0.642008
0.0277152
0.00155581
-0.003853
0.00685636
0.028193
0.0585306
0.0966363
0.141211
0.191098
0.245311
0.302989
0.363273
0.425107
0.486914
0.546182
0.599116
0.640823
0.665413
0.663708
0.631615
0.0159944
-0.0159134
-0.0202633
-0.00621946
0.0180479
0.0505798
0.0901616
0.135516
0.185523
0.239267
0.296028
0.35523
0.416299
0.478372
0.539784
0.597456
0.646596
0.679857
0.682925
0.645286
-0.0261111
-0.0590002
-0.0571784
-0.0355068
-0.00473507
0.0329674
0.0764276
0.12442
0.17593
0.23021
0.28681
0.345585
0.406632
0.470058
0.535442
0.600972
0.662557
0.711687
0.728421
0.693247
-0.111203
-0.134611
-0.116216
-0.0794213
-0.0369163
0.00956358
0.0592954
0.111456
0.165429
0.220864
0.277747
0.33649
0.397969
0.463434
0.534092
0.610199
0.689629
0.764167
0.80924
0.79293
-0.260492
-0.250022
-0.196034
-0.132931
-0.0720792
-0.0132112
0.0444467
0.101348
0.157866
0.214399
0.271558
0.330386
0.392563
0.46055
0.537494
0.626649
0.729618
0.841333
0.937753
0.974154
-0.523004
-0.412213
-0.287312
-0.184156
-0.0991583
-0.0262748
0.0386965
0.098948
0.156624
0.21317
0.269875
0.328347
0.390964
0.461343
0.544832
0.648674
0.780346
0.943356
1.13178
1.30053
-1.03737
-0.621063
-0.350519
-0.198187
-0.0939933
-0.0142941
0.0511572
0.109319
0.164223
0.21802
0.272199
0.328426
0.389227
0.458828
0.54442
0.657734
0.815261
1.04287
1.40699
1.92653
-1.93852
-0.817646
-0.313347
-0.129259
-0.0327597
0.0334882
0.0858205
0.133215
0.179912
0.227407
0.276307
0.327368
0.382212
0.444236
0.520367
0.624467
0.783372
1.06349
1.68559
2.92266
)
;

boundaryField
{
    movingWall
    {
        type            zeroGradient;
    }
    fixedWalls
    {
        type            zeroGradient;
    }
    frontAndBack
    {
        type            empty;
    }
}


// ************************************************************************* //
