1.45 	0 	0 	0.0578697 	-0.00823142 	3.5236e-21
2.35 	0 	0 	0.287818 	-0.0123913 	2.8387e-22
