/*--------------------------------*- C++ -*----------------------------------*\
  =========                 |
  \\      /  F ield         | OpenFOAM: The Open Source CFD Toolbox
   \\    /   O peration     | Website:  https://openfoam.org
    \\  /    A nd           | Version:  6.0
     \\/     M anipulation  |
\*---------------------------------------------------------------------------*/
FoamFile
{
    version     2.0;
    format      ascii;
    class       surfaceScalarField;
    location    "36";
    object      phi;
}
// * * * * * * * * * * * * * * * * * * * * * * * * * * * * * * * * * * * * * //

dimensions      [0 3 -1 0 0 0 0];

internalField   nonuniform List<scalar> 
68636
(
3.02265e-05
0.00310562
-1.32501e-09
6.08267e-05
0.0030708
9.10688e-05
0.00300258
0.000120469
0.00290138
0.000148621
0.0027683
0.000175174
0.00260492
0.000199817
0.00241302
0.000222268
0.00219469
0.000242271
0.00195229
0.000259599
0.00168852
0.000274053
0.00140627
0.000285474
0.00110853
0.000293756
0.00079868
0.00029872
0.000479513
0.000150337
0.000298435
2.99391e-05
0.00307567
8.61282e-09
6.02622e-05
0.00304048
9.02346e-05
0.00297261
0.000119373
0.00287225
0.000147271
0.00274041
0.000173579
0.00257862
0.000197996
0.00238862
0.000220241
0.00217246
0.000240061
0.00193249
0.00025723
0.00167137
0.000271554
0.00139197
0.000282867
0.00109724
0.000291114
0.000790461
0.000295792
0.000474878
0.000150506
0.000295701
2.96558e-05
0.003046
2.00721e-08
5.97081e-05
0.00301043
8.9414e-05
0.0029429
0.000118289
0.00284337
0.000145933
0.00271277
0.000172
0.00255255
0.000196193
0.00236442
0.000218235
0.00215041
0.000237875
0.00191285
0.000254887
0.00165436
0.00026908
0.00137777
0.000280284
0.00108603
0.000288456
0.000782281
0.000293205
0.000470114
0.000150067
0.0002936
2.93775e-05
0.00301659
3.12427e-08
5.91626e-05
0.00298065
8.86034e-05
0.00291345
0.000117216
0.00281476
0.000144605
0.00268538
0.000170434
0.00252672
0.000194406
0.00234046
0.000216247
0.00212858
0.000235708
0.0018934
0.000252564
0.00163751
0.000266628
0.00136372
0.000277725
0.00107495
0.000285803
0.00077422
0.000290588
0.000465355
0.000149416
0.000291287
2.91035e-05
0.00298744
4.27748e-08
5.86239e-05
0.00295113
8.78005e-05
0.00288427
0.000116151
0.00278641
0.000143288
0.00265824
0.00016888
0.00250113
0.000192634
0.0023167
0.000214277
0.00210693
0.00023356
0.00187411
0.000250262
0.0016208
0.000264196
0.00134978
0.00027519
0.00106395
0.00028317
0.00076623
0.000287936
0.000460572
0.000148465
0.00028884
2.88333e-05
0.00295855
5.32226e-08
5.80904e-05
0.00292187
8.70037e-05
0.00285536
0.000115094
0.00275832
0.000141981
0.00263135
0.000167339
0.00247577
0.000190877
0.00229317
0.000212323
0.00208549
0.00023143
0.00185501
0.000247979
0.00160426
0.000261786
0.00133598
0.000272679
0.00105306
0.000280564
0.000758356
0.000285294
0.000455862
0.000147451
0.000286346
2.85664e-05
0.00292993
6.20168e-08
5.75614e-05
0.00289288
8.62125e-05
0.0028267
0.000114045
0.00273049
0.000140685
0.0026047
0.000165812
0.00245064
0.000189136
0.00226984
0.000210387
0.00206423
0.00022932
0.00183607
0.000245718
0.00158785
0.000259399
0.00132229
0.000270192
0.00104226
0.00027799
0.000750549
0.000282677
0.000451158
0.000146255
0.000283828
2.83024e-05
0.00290156
6.91151e-08
5.70362e-05
0.00286415
8.54266e-05
0.00279831
0.000113003
0.00270291
0.000139399
0.00257831
0.000164297
0.00242574
0.000187411
0.00224673
0.000208469
0.00204317
0.00022723
0.00181731
0.000243478
0.00157161
0.000257033
0.00130874
0.000267728
0.00103158
0.000275444
0.000742844
0.000280087
0.000446533
0.000145065
0.000281309
2.80408e-05
0.00287344
7.41341e-08
5.65145e-05
0.00283567
8.46461e-05
0.00277018
0.000111969
0.00267559
0.000138125
0.00255215
0.000162797
0.00240106
0.000185701
0.00222382
0.000206568
0.0020223
0.000225158
0.00179872
0.000241258
0.00155551
0.000254688
0.00129531
0.000265287
0.00102097
0.000272926
0.000735197
0.000277524
0.00044192
0.000143749
0.000278799
2.77815e-05
0.00284558
7.74606e-08
5.59964e-05
0.00280746
8.3871e-05
0.0027423
0.000110944
0.00264851
0.000136861
0.00252623
0.00016131
0.00237661
0.000184007
0.00220113
0.000204684
0.00200163
0.000223105
0.0017803
0.000239058
0.00153956
0.000252365
0.00128201
0.000262868
0.00101048
0.000270433
0.000727643
0.000274989
0.00043738
0.000142464
0.000276303
2.75243e-05
0.00281798
7.95228e-08
5.54819e-05
0.0027795
8.31018e-05
0.00271468
0.000109928
0.00262169
0.00013561
0.00250055
0.000159838
0.00235238
0.000182328
0.00217864
0.000202817
0.00198114
0.00022107
0.00176205
0.000236877
0.00152375
0.000250063
0.00126882
0.000260472
0.00100006
0.000267966
0.00072014
0.00027248
0.000432851
0.00014108
0.000273826
2.7269e-05
0.00279063
8.11164e-08
5.49712e-05
0.0027518
8.23387e-05
0.00268731
0.000108921
0.0025951
0.00013437
0.0024751
0.000158379
0.00232838
0.000180665
0.00215635
0.000200968
0.00196083
0.000219055
0.00174396
0.000234717
0.00150809
0.000247782
0.00125576
0.000258096
0.000989754
0.000265521
0.000712725
0.000269996
0.000428392
0.000139736
0.000271367
2.70158e-05
0.00276353
8.30726e-08
5.44646e-05
0.00272435
8.15822e-05
0.0026602
0.000107923
0.00256876
0.000133142
0.00244988
0.000156933
0.00230458
0.000179018
0.00213427
0.000199136
0.00194071
0.000217057
0.00172604
0.000232577
0.00149256
0.000245522
0.00124281
0.000255743
0.000979527
0.0002631
0.000705359
0.000267535
0.000423944
0.000138311
0.000268923
2.67645e-05
0.00273668
8.61094e-08
5.39624e-05
0.00269715
8.08326e-05
0.00263332
0.000106934
0.00254266
0.000131925
0.00242489
0.000155501
0.00228101
0.000177386
0.00211238
0.00019732
0.00192078
0.000215078
0.00170828
0.000230457
0.00147719
0.000243283
0.00122999
0.000253411
0.000969407
0.000260702
0.000698076
0.000265096
0.000419563
0.000136942
0.00026649
2.65154e-05
0.00271007
9.06973e-08
5.34647e-05
0.0026702
8.00901e-05
0.0026067
0.000105955
0.00251679
0.00013072
0.00240012
0.000154082
0.00225764
0.000175768
0.0020907
0.000195521
0.00190102
0.000213117
0.00169069
0.000228355
0.00146195
0.000241065
0.00121727
0.000251101
0.000959364
0.000258326
0.000690842
0.000262679
0.000415196
0.000135517
0.000264069
2.62685e-05
0.0026837
9.68231e-08
5.29719e-05
0.00264349
7.93548e-05
0.00258031
0.000104985
0.00249116
0.000129525
0.00237558
0.000152676
0.00223449
0.000174164
0.00206921
0.000193738
0.00188145
0.000211174
0.00167325
0.000226273
0.00144685
0.000238867
0.00120468
0.000248811
0.000949426
0.000255972
0.000683688
0.000260285
0.000410894
0.000134158
0.000261666
2.60239e-05
0.00265757
1.04028e-07
5.24838e-05
0.00261703
7.86267e-05
0.00255417
0.000104024
0.00246576
0.000128342
0.00235126
0.000151283
0.00221155
0.000172575
0.00204791
0.00019197
0.00186205
0.000209247
0.00165597
0.000224209
0.00143189
0.000236688
0.0011922
0.000246542
0.000939565
0.00025364
0.000676581
0.000257913
0.000406608
0.000132751
0.000259286
2.57817e-05
0.00263168
1.11461e-07
5.20005e-05
0.00259081
7.79057e-05
0.00252826
0.000103073
0.00244059
0.00012717
0.00232716
0.000149901
0.00218881
0.000171
0.00202681
0.000190218
0.00184283
0.000207338
0.00163885
0.000222164
0.00141706
0.000234529
0.00117984
0.000244294
0.000929805
0.000251328
0.000669553
0.000255563
0.000402383
0.000131404
0.000256931
2.55418e-05
0.00260602
1.18081e-07
5.15218e-05
0.00256483
7.71916e-05
0.00250259
0.00010213
0.00241566
0.000126009
0.00230328
0.000148533
0.00216629
0.000169439
0.00200591
0.000188482
0.00182379
0.000205446
0.00162189
0.000220137
0.00140237
0.00023239
0.00116758
0.000242066
0.000920123
0.000249038
0.000662573
0.000253235
0.000398173
0.000130008
0.000254599
2.53044e-05
0.00258059
1.22949e-07
5.10478e-05
0.00253909
7.64842e-05
0.00247715
0.000101196
0.00239094
0.000124858
0.00227962
0.000147177
0.00214397
0.000167892
0.00198519
0.000186762
0.00180492
0.000203571
0.00160508
0.000218129
0.00138781
0.000230271
0.00115544
0.000239859
0.000910538
0.000246768
0.000655668
0.000250928
0.000394021
0.000128673
0.000252284
2.50694e-05
0.0025554
1.25506e-07
5.05782e-05
0.00251358
7.57832e-05
0.00245195
0.000100271
0.00236645
0.000123717
0.00225617
0.000145834
0.00212185
0.00016636
0.00196466
0.000185057
0.00178622
0.000201713
0.00158842
0.000216139
0.00137338
0.000228171
0.0011434
0.000237672
0.000901031
0.00024452
0.000648813
0.000248642
0.000389887
0.000127302
0.000249984
2.48369e-05
0.00253043
1.25759e-07
5.01132e-05
0.0024883
7.50887e-05
0.00242697
9.93538e-05
0.00234218
0.000122587
0.00223293
0.000144502
0.00209993
0.000164841
0.00194432
0.000183368
0.00176769
0.000199873
0.00157191
0.000214168
0.00135909
0.00022609
0.00113148
0.000235505
0.000891619
0.000242292
0.00064203
0.000246377
0.00038581
0.000125998
0.000247699
2.46068e-05
0.0025057
1.24347e-07
4.96526e-05
0.00246325
7.44006e-05
0.00240222
9.84448e-05
0.00231814
0.000121467
0.00220991
0.000143182
0.00207822
0.000163336
0.00192417
0.000181695
0.00174933
0.000198049
0.00155556
0.000212214
0.00134492
0.000224029
0.00111967
0.000233359
0.000882285
0.000240086
0.000635297
0.000244133
0.000381753
0.000124672
0.000245433
2.43791e-05
0.0024812
1.22372e-07
4.91965e-05
0.00243843
7.37189e-05
0.0023777
9.7544e-05
0.00229431
0.000120357
0.0021871
0.000141874
0.0020567
0.000161845
0.0019042
0.000180036
0.00173114
0.000196242
0.00153935
0.000210279
0.00133088
0.000221986
0.00110796
0.000231232
0.000873042
0.000237899
0.000628634
0.00024191
0.000377749
0.000123411
0.000243191
2.41537e-05
0.00245693
1.21132e-07
4.87448e-05
0.00241384
7.30435e-05
0.0023534
9.66512e-05
0.00227071
0.000119256
0.00216449
0.000140578
0.00203538
0.000160367
0.00188441
0.000178393
0.00171311
0.000194452
0.00152329
0.000208361
0.00131697
0.000219962
0.00109636
0.000229124
0.000863877
0.000235732
0.000622019
0.000239709
0.000373764
0.000122122
0.000240975
2.39305e-05
0.00243287
1.21729e-07
4.82974e-05
0.00238948
7.23743e-05
0.00232932
9.57666e-05
0.00224731
0.000118166
0.00214209
0.000139293
0.00201425
0.000158902
0.0018648
0.000176764
0.00169525
0.000192677
0.00150738
0.00020646
0.00130319
0.000217956
0.00108486
0.000227034
0.000854801
0.000233585
0.000615474
0.000237529
0.000369827
0.000120884
0.000238787
2.37094e-05
0.00240904
1.24746e-07
4.78542e-05
0.00236533
7.17113e-05
0.00230547
9.489e-05
0.00222413
0.000117085
0.0021199
0.00013802
0.00199331
0.00015745
0.00184537
0.00017515
0.00167755
0.000190919
0.00149161
0.000204577
0.00128953
0.000215968
0.00107347
0.000224964
0.000845803
0.000231456
0.000608978
0.00023537
0.000365906
0.000119605
0.000236628
2.34902e-05
0.00238542
1.30048e-07
4.74151e-05
0.00234141
7.10544e-05
0.00228183
9.40215e-05
0.00220116
0.000116014
0.00209791
0.000136758
0.00197257
0.000156011
0.00182612
0.00017355
0.00166001
0.000189176
0.00147598
0.00020271
0.001276
0.000213998
0.00106218
0.000222912
0.000836893
0.000229346
0.000602549
0.00023323
0.000362032
0.000118363
0.000234494
2.32729e-05
0.00236201
1.36805e-07
4.69799e-05
0.0023177
7.04035e-05
0.00225841
9.31609e-05
0.00217841
0.000114952
0.00207612
0.000135508
0.00195201
0.000154586
0.00180704
0.000171966
0.00164263
0.00018745
0.0014605
0.000200861
0.00126259
0.000212046
0.001051
0.000220879
0.000828059
0.000227256
0.00059617
0.00023111
0.00035817
0.000117071
0.000232382
2.30575e-05
0.00233881
1.4372e-07
4.65485e-05
0.00229421
6.97584e-05
0.0022352
9.23082e-05
0.00215586
0.000113901
0.00205452
0.000134269
0.00193165
0.000153174
0.00178813
0.000170396
0.00162541
0.000185739
0.00144516
0.000199029
0.0012493
0.000210113
0.00103992
0.000218865
0.000819312
0.000225184
0.000589858
0.000229009
0.000354356
0.000115815
0.000230289
2.28439e-05
0.00231582
1.49397e-07
4.61208e-05
0.00227094
6.91192e-05
0.0022122
9.14633e-05
0.00213352
0.000112859
0.00203313
0.000133042
0.00191147
0.000151775
0.00176941
0.00016884
0.00160835
0.000184044
0.00142996
0.000197213
0.00123613
0.000208197
0.00102893
0.000216869
0.000810639
0.000223131
0.000583593
0.000226926
0.000350554
0.00011451
0.000228211
2.26323e-05
0.00229303
1.52746e-07
4.56969e-05
0.00224787
6.84856e-05
0.00218941
9.06261e-05
0.00211138
0.000111827
0.00201193
0.000131826
0.00189147
0.000150389
0.00175084
0.0001673
0.00159144
0.000182366
0.00141489
0.000195415
0.00122309
0.000206298
0.00101806
0.000214892
0.000802052
0.000221098
0.000577396
0.000224861
0.000346803
0.00011325
0.000226147
2.24225e-05
0.00227046
1.5328e-07
4.52767e-05
0.00222502
6.78578e-05
0.00216684
8.97965e-05
0.00208944
0.000110804
0.00199093
0.000130622
0.00187165
0.000149016
0.00173245
0.000165773
0.00157468
0.000180702
0.00139997
0.000193633
0.00121016
0.000204418
0.00100727
0.000212934
0.000793535
0.000219084
0.000571243
0.000222814
0.000343065
0.000111948
0.000224096
2.22148e-05
0.00224809
1.5126e-07
4.48603e-05
0.00220238
6.72356e-05
0.00214446
8.89745e-05
0.00206771
0.000109791
0.00197012
0.000129428
0.00185202
0.000147655
0.00171423
0.000164261
0.00155808
0.000179055
0.00138518
0.000191868
0.00119735
0.000202554
0.000996592
0.000210993
0.000785104
0.000217088
0.000565158
0.000220785
0.000339379
0.000110702
0.000222057
2.2009e-05
0.00222594
1.47581e-07
4.44477e-05
0.00217994
6.66191e-05
0.00212229
8.816e-05
0.00204617
0.000108787
0.00194949
0.000128246
0.00183257
0.000146308
0.00169617
0.000162762
0.00154163
0.000177422
0.00137052
0.000190118
0.00118466
0.000200708
0.000986002
0.000209071
0.00077674
0.000215111
0.000559114
0.000218774
0.000335708
0.000109422
0.000220033
2.18053e-05
0.00220399
1.43545e-07
4.40389e-05
0.00215771
6.60082e-05
0.00210033
8.73531e-05
0.00202483
0.000107793
0.00192905
0.000127075
0.00181329
0.000144972
0.00167828
0.000161278
0.00152533
0.000175804
0.001356
0.000188385
0.00117208
0.000198878
0.000975516
0.000207165
0.000768461
0.000213152
0.000553137
0.000216781
0.000332089
0.000108202
0.000218025
2.16035e-05
0.00218225
1.40468e-07
4.3634e-05
0.00213568
6.54031e-05
0.00207856
8.65536e-05
0.00200368
0.000106807
0.0019088
0.000125914
0.00179418
0.000143649
0.00166055
0.000159806
0.00150917
0.000174201
0.00134161
0.000186667
0.00115961
0.000197065
0.000965117
0.000205277
0.000760247
0.00021121
0.0005472
0.000214806
0.000328484
0.000106955
0.000216033
2.14038e-05
0.0021607
1.39377e-07
4.3233e-05
0.00211385
6.48036e-05
0.00205699
8.57614e-05
0.00198272
0.000105831
0.00188874
0.000124764
0.00177525
0.000142338
0.00164298
0.000158349
0.00149317
0.000172612
0.00132735
0.000184965
0.00114727
0.000195268
0.00095482
0.000203406
0.000752116
0.000209286
0.000541328
0.000212849
0.00032493
0.000105766
0.00021406
2.1206e-05
0.00213936
1.40741e-07
4.28359e-05
0.00209222
6.42097e-05
0.00203562
8.49766e-05
0.00196196
0.000104864
0.00186885
0.000123625
0.00175649
0.000141039
0.00162556
0.000156904
0.0014773
0.000171037
0.00131322
0.000183278
0.00113502
0.000193487
0.000944608
0.000201552
0.000744048
0.00020738
0.000535494
0.00021091
0.000321391
0.00010455
0.000212105
2.10101e-05
0.0021182
1.44417e-07
4.24425e-05
0.00207079
6.36213e-05
0.00201444
8.41991e-05
0.00194138
0.000103905
0.00184915
0.000122496
0.00173791
0.000139751
0.00160831
0.000155472
0.00146159
0.000169476
0.00129922
0.000181606
0.0011229
0.000191722
0.000934496
0.000199714
0.000736063
0.00020549
0.000529724
0.000208989
0.0003179
0.000103387
0.00021017
2.0816e-05
0.00209724
1.4971e-07
4.20529e-05
0.00204955
6.30384e-05
0.00199345
8.34287e-05
0.00192099
0.000102955
0.00182962
0.000121377
0.00171949
0.000138475
0.00159121
0.000154052
0.00144601
0.000167929
0.00128534
0.000179948
0.00111088
0.000189973
0.000924468
0.000197893
0.00072814
0.000203618
0.000523993
0.000207086
0.000314423
0.000102197
0.000208256
2.06238e-05
0.00207646
1.55595e-07
4.1667e-05
0.00202851
6.2461e-05
0.00197266
8.26653e-05
0.00190079
0.000102014
0.00181027
0.000120268
0.00170123
0.000137211
0.00157427
0.000152646
0.00143058
0.000166396
0.00127159
0.000178306
0.00109897
0.00018824
0.000914538
0.000196088
0.000720296
0.000201763
0.000518324
0.0002052
0.000310992
0.000101054
0.000206361
2.04334e-05
0.00205586
1.60957e-07
4.12846e-05
0.00200766
6.18888e-05
0.00195205
8.19089e-05
0.00188077
0.000101081
0.0017911
0.000119169
0.00168315
0.000135957
0.00155748
0.000151252
0.00141528
0.000164877
0.00125796
0.000176678
0.00108717
0.000186522
0.000904691
0.000194299
0.000712515
0.000199924
0.000512694
0.000203332
0.000307574
9.98823e-05
0.000204485
2.02448e-05
0.00203545
1.64858e-07
4.09057e-05
0.001987
6.13219e-05
0.00193164
8.11595e-05
0.00186093
0.000100157
0.0017721
0.00011808
0.00166522
0.000134715
0.00154085
0.00014987
0.00140013
0.000163371
0.00124446
0.000175065
0.00107548
0.00018482
0.000894939
0.000192527
0.000704811
0.000198102
0.000507123
0.000201482
0.000304201
9.8752e-05
0.000202628
2.00579e-05
0.00201523
1.66703e-07
4.05303e-05
0.00196652
6.07601e-05
0.00191141
8.04167e-05
0.00184127
9.92412e-05
0.00175328
0.000117
0.00164746
0.000133484
0.00152436
0.000148501
0.00138511
0.000161879
0.00123108
0.000173466
0.00106389
0.000183133
0.00088527
0.000190771
0.000697169
0.000196298
0.000501592
0.000199649
0.00030084
9.75929e-05
0.00020079
1.98728e-05
0.00199519
1.66335e-07
4.01583e-05
0.00194624
6.02034e-05
0.00189136
7.96807e-05
0.00182179
9.83335e-05
0.00173462
0.000115931
0.00162987
0.000132264
0.00150803
0.000147144
0.00137023
0.0001604
0.00121783
0.000171883
0.00105241
0.000181462
0.000875692
0.000189032
0.000689602
0.00019451
0.000496119
0.000197833
0.000297522
9.64716e-05
0.000198971
1.96894e-05
0.00197534
1.6401e-07
3.97896e-05
0.00192614
5.96518e-05
0.0018715
7.89513e-05
0.00180249
9.74339e-05
0.00171614
0.000114871
0.00161243
0.000131055
0.00149184
0.0001458
0.00135548
0.000158935
0.00120469
0.000170313
0.00104103
0.000179807
0.000866197
0.000187309
0.000682097
0.000192739
0.000490684
0.000196035
0.000294217
9.53224e-05
0.000197168
1.95077e-05
0.00195567
1.60309e-07
3.94242e-05
0.00190622
5.9105e-05
0.00185182
7.82285e-05
0.00178337
9.65424e-05
0.00169783
0.00011382
0.00159515
0.000129857
0.00147581
0.000144467
0.00134087
0.000157484
0.00119168
0.000168759
0.00102975
0.000178167
0.000856792
0.000185602
0.000674664
0.000190984
0.000485307
0.000194254
0.000290953
9.42091e-05
0.000195383
1.93277e-05
0.00193619
1.55984e-07
3.9062e-05
0.00188649
5.85632e-05
0.00183232
7.75121e-05
0.00176442
9.5659e-05
0.00167968
0.000112779
0.00157803
0.00012867
0.00145992
0.000143147
0.00132639
0.000156045
0.00117878
0.000167219
0.00101858
0.000176542
0.000847467
0.000183912
0.000667292
0.000189247
0.000479967
0.00019249
0.000287703
9.30695e-05
0.000193615
1.91493e-05
0.00191689
1.51812e-07
3.87032e-05
0.00186693
5.80262e-05
0.00181299
7.68022e-05
0.00174564
9.47835e-05
0.0016617
0.000111747
0.00156107
0.000127493
0.00144417
0.000141839
0.00131205
0.000154621
0.001166
0.000165693
0.00100751
0.000174933
0.000838229
0.000182238
0.000659991
0.000187526
0.000474683
0.000190742
0.000284492
9.1965e-05
0.000191863
1.89726e-05
0.00189777
1.48457e-07
3.83475e-05
0.00184756
5.74941e-05
0.00179385
7.60987e-05
0.00172704
9.39159e-05
0.00164388
0.000110725
0.00154426
0.000126328
0.00142857
0.000140543
0.00129783
0.000153209
0.00115333
0.000164182
0.000996534
0.00017334
0.00082907
0.000180579
0.000652749
0.000185822
0.000469437
0.000189012
0.000281295
9.08358e-05
0.000190127
1.87974e-05
0.00187882
1.46386e-07
3.79951e-05
0.00182836
5.69668e-05
0.00177487
7.54015e-05
0.0017086
9.30562e-05
0.00162623
0.000109712
0.0015276
0.000125173
0.00141311
0.00013926
0.00128375
0.000151811
0.00114078
0.000162686
0.000985662
0.000171761
0.000819997
0.000178937
0.000645577
0.000184135
0.000464245
0.000187298
0.000278138
8.97418e-05
0.000188408
1.86239e-05
0.00186005
1.45821e-07
3.76459e-05
0.00180934
5.64442e-05
0.00175608
7.47107e-05
0.00169034
9.22044e-05
0.00160873
0.000108709
0.0015111
0.000124029
0.00139779
0.000137988
0.00126979
0.000150427
0.00112834
0.000161204
0.000974884
0.000170199
0.000811002
0.000177311
0.000638462
0.000182463
0.000459089
0.000185601
0.000274993
8.8625e-05
0.000186704
1.84519e-05
0.00184146
1.46759e-07
3.72998e-05
0.00179049
5.59264e-05
0.00173745
7.40262e-05
0.00167224
9.13605e-05
0.0015914
0.000107715
0.00149474
0.000122896
0.00138261
0.000136729
0.00125596
0.000149055
0.00111602
0.000159736
0.000964206
0.000168651
0.00080209
0.000175701
0.000631416
0.000180808
0.000453987
0.000183919
0.000271889
8.75434e-05
0.000185017
1.82815e-05
0.00182303
1.49006e-07
3.6957e-05
0.00177182
5.54134e-05
0.001719
7.3348e-05
0.0016543
9.05244e-05
0.00157422
0.00010673
0.00147854
0.000121774
0.00136756
0.000135482
0.00124225
0.000147697
0.0011038
0.000158282
0.00095362
0.000167118
0.000793253
0.000174106
0.000624426
0.000179169
0.000448921
0.000182254
0.000268796
8.64408e-05
0.000183345
1.81126e-05
0.00180476
1.52249e-07
3.66173e-05
0.00175331
5.49051e-05
0.00170071
7.26762e-05
0.00163653
8.96962e-05
0.0015572
0.000105755
0.00146248
0.000120662
0.00135266
0.000134246
0.00122867
0.000146352
0.0010917
0.000156843
0.000943132
0.000165601
0.000784499
0.000172527
0.000617504
0.000177546
0.000443907
0.000180605
0.000265744
8.53735e-05
0.000181688
1.79452e-05
0.00178666
1.56118e-07
3.62808e-05
0.00173498
5.44015e-05
0.00168259
7.20106e-05
0.00161893
8.88757e-05
0.00154034
0.000104788
0.00144657
0.000119561
0.00133789
0.000133023
0.00121521
0.00014502
0.0010797
0.000155418
0.000932735
0.000164098
0.000775818
0.000170963
0.000610636
0.000175939
0.000438928
0.000178972
0.000262704
8.42869e-05
0.000180047
1.77793e-05
0.00176872
1.60255e-07
3.59474e-05
0.00171681
5.39027e-05
0.00166463
7.13513e-05
0.00160148
8.80631e-05
0.00152363
0.000103831
0.0014308
0.000118471
0.00132325
0.000131812
0.00120187
0.000143702
0.00106781
0.000154006
0.000922432
0.00016261
0.000767218
0.000169415
0.000603835
0.000174347
0.000434002
0.000177354
0.000259703
8.32355e-05
0.000178421
1.76149e-05
0.00175095
1.6435e-07
3.56172e-05
0.00169881
5.34086e-05
0.00164684
7.06983e-05
0.00158419
8.72582e-05
0.00150707
0.000102884
0.00141518
0.000117391
0.00130874
0.000130612
0.00118865
0.000142396
0.00105603
0.000152609
0.000912219
0.000161136
0.000758691
0.000167881
0.000597088
0.00017277
0.000429109
0.000175752
0.000256715
8.21662e-05
0.00017681
1.7452e-05
0.00173333
1.68173e-07
3.52901e-05
0.00168097
5.29192e-05
0.00162922
7.00515e-05
0.00156706
8.64612e-05
0.00149066
0.000101945
0.0013997
0.000116322
0.00129437
0.000129424
0.00117555
0.000141103
0.00104435
0.000151225
0.0009021
0.000159676
0.000750243
0.000166363
0.000590406
0.000171209
0.000424269
0.000174164
0.000253766
8.11322e-05
0.000175213
1.72907e-05
0.00171587
1.71576e-07
3.4966e-05
0.0016633
5.24345e-05
0.00161175
6.9411e-05
0.00155008
8.56718e-05
0.0014744
0.000101016
0.00138435
0.000115263
0.00128012
0.000128248
0.00116256
0.000139822
0.00103278
0.000149855
0.000892068
0.000158231
0.000741865
0.000164858
0.000583777
0.000169662
0.000419462
0.000172592
0.000250829
8.00817e-05
0.000173631
1.71308e-05
0.00169856
1.74495e-07
3.46451e-05
0.00164579
5.19545e-05
0.00159444
6.87766e-05
0.00153326
8.48901e-05
0.00145829
0.000100096
0.00136915
0.000114215
0.001266
0.000127083
0.0011497
0.000138554
0.00102131
0.000148497
0.000882127
0.0001568
0.000733566
0.000163369
0.000577213
0.00016813
0.000414706
0.000171034
0.000247931
7.90662e-05
0.000172064
1.69725e-05
0.00168141
1.76922e-07
3.43273e-05
0.00162843
5.14791e-05
0.00157729
6.81485e-05
0.00151659
8.41161e-05
0.00144233
9.91847e-05
0.00135408
0.000113177
0.00125201
0.00012593
0.00113694
0.000137299
0.00100994
0.000147153
0.000872273
0.000155382
0.000725337
0.000161893
0.000570701
0.000166612
0.000409983
0.000169491
0.000245046
7.80356e-05
0.000170511
1.68156e-05
0.00166442
1.78901e-07
3.40125e-05
0.00161124
5.10083e-05
0.0015603
6.75264e-05
0.00150008
8.33496e-05
0.0014265
9.82824e-05
0.00133915
0.000112149
0.00123815
0.000124788
0.00112431
0.000136055
0.000998678
0.000145822
0.000862508
0.000153978
0.000717184
0.000160431
0.000564252
0.000165109
0.000405311
0.000167961
0.000242199
7.70396e-05
0.000168971
1.66602e-05
0.00164758
1.80496e-07
3.37008e-05
0.0015942
5.05421e-05
0.00154346
6.69105e-05
0.00148371
8.25907e-05
0.00141082
9.7389e-05
0.00132435
0.000111131
0.00122441
0.000123657
0.00111178
0.000134824
0.000987511
0.000144504
0.000852828
0.000152587
0.0007091
0.000158983
0.000557854
0.000163619
0.000400671
0.000166446
0.000239365
7.60298e-05
0.000167446
1.65063e-05
0.00163089
1.81785e-07
3.33921e-05
0.00157731
5.00805e-05
0.00152677
6.63006e-05
0.00146749
8.18391e-05
0.00139529
9.65042e-05
0.00130969
0.000110123
0.00121079
0.000122537
0.00109937
0.000133604
0.000976446
0.000143198
0.000843237
0.00015121
0.000701092
0.000157548
0.00055152
0.000162143
0.000396082
0.000164945
0.00023657
7.50541e-05
0.000165934
1.63539e-05
0.00161436
1.82838e-07
3.30864e-05
0.00156058
4.96233e-05
0.00151023
6.56966e-05
0.00145142
8.1095e-05
0.00137989
9.56281e-05
0.00129516
0.000109125
0.00119729
0.000121428
0.00108707
0.000132396
0.000965478
0.000141905
0.000833729
0.000149845
0.000693151
0.000156127
0.000545235
0.000160681
0.000391524
0.000163457
0.000233787
7.40656e-05
0.000164435
1.62029e-05
0.00159797
1.83724e-07
3.27836e-05
0.001544
4.91706e-05
0.00149385
6.50985e-05
0.00143549
8.0358e-05
0.00136463
9.47605e-05
0.00128076
0.000108136
0.00118392
0.000120329
0.00107487
0.000131199
0.00095461
0.000140623
0.000824307
0.000148492
0.000685285
0.000154719
0.000539013
0.000159231
0.000387017
0.000161982
0.000231042
7.31108e-05
0.00016295
1.60534e-05
0.00158173
1.8449e-07
3.24838e-05
0.00152757
4.87224e-05
0.00147761
6.45063e-05
0.00141971
7.96282e-05
0.00134951
9.39013e-05
0.00126649
0.000107157
0.00117067
0.000119241
0.00106279
0.000130014
0.000943837
0.000139354
0.000814968
0.000147153
0.000677485
0.000153323
0.000532841
0.000157795
0.000382541
0.000160521
0.00022831
7.2144e-05
0.000161477
1.59053e-05
0.00156564
1.85181e-07
3.21868e-05
0.00151129
4.82784e-05
0.00146152
6.39198e-05
0.00140407
7.89054e-05
0.00133453
9.30502e-05
0.00125234
0.000106187
0.00115753
0.000118163
0.00105082
0.00012884
0.000933162
0.000138096
0.000805714
0.000145825
0.000669759
0.00015194
0.00052673
0.000156372
0.000378114
0.000159072
0.000225616
7.12103e-05
0.000160018
1.57585e-05
0.0015497
1.85819e-07
3.18927e-05
0.00149516
4.78388e-05
0.00144557
6.33389e-05
0.00138857
7.81896e-05
0.00131968
9.22073e-05
0.00123833
0.000105226
0.00114451
0.000117095
0.00103895
0.000127676
0.000922581
0.000136849
0.000796541
0.00014451
0.000662097
0.00015057
0.000520667
0.000154961
0.000373719
0.000157637
0.000222934
7.02653e-05
0.000158572
1.56132e-05
0.0015339
1.86425e-07
3.16015e-05
0.00147917
4.74034e-05
0.00142977
6.27636e-05
0.00137321
7.74806e-05
0.00130496
9.13723e-05
0.00122444
0.000104274
0.00113161
0.000116037
0.00102719
0.000126523
0.000912096
0.000135614
0.000787453
0.000143206
0.000654509
0.000149212
0.000514666
0.000153563
0.000369372
0.000156214
0.000220289
6.93527e-05
0.000157138
1.54693e-05
0.00151825
1.87009e-07
3.1313e-05
0.00146333
4.69721e-05
0.00141411
6.21938e-05
0.00135799
7.67782e-05
0.00129038
9.05451e-05
0.00121067
0.000103331
0.00111883
0.000114988
0.00101553
0.000125381
0.000901704
0.000134391
0.000778443
0.000141914
0.000646985
0.000147865
0.000508712
0.000152178
0.000365056
0.000154803
0.000217657
6.84294e-05
0.000155717
1.53267e-05
0.00150273
1.87579e-07
3.10272e-05
0.00144763
4.65449e-05
0.0013986
6.16293e-05
0.00134291
7.60825e-05
0.00127593
8.97257e-05
0.00119703
0.000102397
0.00110616
0.000113949
0.00100398
0.000124249
0.000891406
0.000133178
0.000769517
0.000140633
0.000639532
0.000146531
0.000502818
0.000150804
0.000360788
0.000153405
0.000215062
6.75375e-05
0.000154308
1.51855e-05
0.00148736
1.88137e-07
3.07442e-05
0.00143207
4.61218e-05
0.00138322
6.10702e-05
0.00132796
7.53932e-05
0.0012616
8.89138e-05
0.00118351
0.000101471
0.0010936
0.00011292
0.000992533
0.000123127
0.000881199
0.000131976
0.000760668
0.000139364
0.000632143
0.000145209
0.000496971
0.000149443
0.00035655
0.000152019
0.000212479
6.66355e-05
0.000152912
1.50456e-05
0.00147213
1.88685e-07
3.04637e-05
0.00141665
4.57026e-05
0.00136798
6.05162e-05
0.00131315
7.47103e-05
0.00124741
8.81093e-05
0.00117011
0.000100554
0.00108116
0.0001119
0.000981189
0.000122016
0.000871086
0.000130784
0.000751902
0.000138106
0.000624824
0.000143898
0.000491183
0.000148093
0.00035236
0.000150645
0.000209933
6.57639e-05
0.000151528
1.4907e-05
0.00145703
1.89224e-07
3.01859e-05
0.00140138
4.52873e-05
0.00135288
5.99674e-05
0.00129847
7.40337e-05
0.00123335
8.73121e-05
0.00115683
9.96451e-05
0.00106882
0.000110889
0.000969946
0.000120914
0.000861062
0.000129604
0.000743212
0.00013686
0.000617567
0.000142599
0.000485442
0.000146756
0.000348199
0.000149284
0.000207398
6.48826e-05
0.000150156
1.47697e-05
0.00144207
1.89757e-07
2.99107e-05
0.00138624
4.48758e-05
0.00133792
5.94235e-05
0.00128392
7.33631e-05
0.00121941
8.65221e-05
0.00114368
9.87442e-05
0.0010566
0.000109887
0.000958805
0.000119821
0.000851129
0.000128433
0.000734602
0.000135624
0.000610379
0.000141311
0.000479759
0.00014543
0.000344084
0.000147934
0.000204899
6.40307e-05
0.000148796
1.46336e-05
0.00142725
1.90281e-07
2.96379e-05
0.00137123
4.4468e-05
0.00132309
5.88846e-05
0.0012695
7.26987e-05
0.00120559
8.57392e-05
0.00113064
9.78513e-05
0.00104449
0.000108894
0.000947763
0.000118739
0.000841285
0.000127273
0.000726068
0.000134399
0.000603253
0.000140034
0.000474121
0.000144116
0.000339999
0.000146596
0.000202412
6.31693e-05
0.000147448
1.44988e-05
0.00141256
1.908e-07
2.93677e-05
0.00135636
4.4064e-05
0.00130839
5.83506e-05
0.00125522
7.20402e-05
0.00119191
8.49632e-05
0.00111772
9.69664e-05
0.00103249
0.00010791
0.000936821
0.000117666
0.000831531
0.000126123
0.000717613
0.000133184
0.000596195
0.000138769
0.00046854
0.000142813
0.00033596
0.00014527
0.00019996
6.23362e-05
0.000146113
1.43652e-05
0.00139801
1.91313e-07
2.90999e-05
0.00134163
4.36635e-05
0.00129383
5.78214e-05
0.00124106
7.13875e-05
0.00117834
8.41942e-05
0.00110491
9.60892e-05
0.0010206
0.000106934
0.000925977
0.000116602
0.000821862
0.000124983
0.000709232
0.000131981
0.000589196
0.000137515
0.000463004
0.000141522
0.000331949
0.000143956
0.000197519
6.1494e-05
0.000144789
1.42328e-05
0.00138358
1.91822e-07
2.88345e-05
0.00132703
4.32667e-05
0.0012794
5.72968e-05
0.00122703
7.07406e-05
0.0011649
8.34319e-05
0.00109222
9.52198e-05
0.00100881
0.000105967
0.000915232
0.000115548
0.000812283
0.000123853
0.000700929