1.275 	2.15223e-18 	-2.76991e-20 	-0.0324465 	-0.00048701 	-2.03763e-22
1.825 	2.15223e-18 	-1.39322e-20 	-0.00741553 	-0.00294805 	1.81512e-21
2.375 	2.15223e-18 	-2.66896e-23 	0.128893 	-0.0036883 	-7.51701e-22
