/*--------------------------------*- C++ -*----------------------------------*\
  =========                 |
  \\      /  F ield         | OpenFOAM: The Open Source CFD Toolbox
   \\    /   O peration     | Website:  https://openfoam.org
    \\  /    A nd           | Version:  6.0
     \\/     M anipulation  |
\*---------------------------------------------------------------------------*/
FoamFile
{
    version     2.0;
    format      ascii;
    class       volScalarField;
    location    "167";
    object      p;
}
// * * * * * * * * * * * * * * * * * * * * * * * * * * * * * * * * * * * * * //

dimensions      [0 2 -2 0 0 0 0];

internalField   nonuniform List<scalar> 
34500
(
1.00582
1.0059
1.00579
1.00553
1.00515
1.00468
1.00416
1.00361
1.00306
1.00253
1.00202
1.0016
1.00116
1.00096
1.00095
1.00582
1.00593
1.00588
1.0057
1.0054
1.00502
1.00456
1.00407
1.00354
1.00301
1.00247
1.00201
1.00149
1.00133
1.00123
1.00582
1.00592
1.00584
1.00563
1.00529
1.00486
1.00436
1.00383
1.00328
1.00274
1.0022
1.00176
1.00128
1.00121
1.0011
1.00582
1.00591
1.00582
1.00558
1.0052
1.00474
1.00422
1.00367
1.0031
1.00256
1.00204
1.00162
1.00119
1.00119
1.00117
1.00583
1.00592
1.00583
1.00559
1.00523
1.00477
1.00425
1.00371
1.00315
1.00261
1.0021
1.00168
1.00126
1.00128
1.0013
1.00584
1.00593
1.00585
1.00563
1.00527
1.00483
1.00432
1.00377
1.00322
1.00268
1.00216
1.00174
1.00132
1.00134
1.00137
1.00584
1.00594
1.00586
1.00564
1.00529
1.00485
1.00434
1.0038
1.00324
1.0027
1.00218
1.00176
1.00135
1.00137
1.00142
1.00585
1.00595
1.00587
1.00566
1.00531
1.00487
1.00436
1.00381
1.00325
1.00271
1.00219
1.00177
1.00137
1.00139
1.00146
1.00586
1.00596
1.00589
1.00567
1.00533
1.00489
1.00438
1.00384
1.00328
1.00274
1.00221
1.0018
1.00139
1.00141
1.00148
1.00587
1.00598
1.0059
1.00569
1.00535
1.00492
1.00441
1.00387
1.00331
1.00276
1.00224
1.00182
1.00142
1.00142
1.0015
1.00589
1.00599
1.00592
1.00571
1.00537
1.00494
1.00444
1.00389
1.00333
1.00278
1.00225
1.00183
1.00143
1.00142
1.0015
1.0059
1.00601
1.00593
1.00573
1.00539
1.00496
1.00446
1.00391
1.00334
1.00279
1.00226
1.00183
1.00143
1.00142
1.0015
1.00592
1.00602
1.00595
1.00575
1.00541
1.00498
1.00447
1.00392
1.00335
1.0028
1.00226
1.00183
1.00144
1.00141
1.00149
1.00593
1.00604
1.00597
1.00576
1.00543
1.00499
1.00449
1.00393
1.00336
1.0028
1.00227
1.00183
1.00144
1.0014
1.00148
1.00595
1.00606
1.00599
1.00578
1.00545
1.00501
1.0045
1.00395
1.00337
1.00281
1.00227
1.00184
1.00145
1.0014
1.00146
1.00597
1.00608
1.00601
1.0058
1.00547
1.00503
1.00452
1.00396
1.00338
1.00282
1.00228
1.00184
1.00145
1.00139
1.00144
1.00599
1.0061
1.00603
1.00583
1.00549
1.00506
1.00454
1.00398
1.0034
1.00283
1.00229
1.00185
1.00146
1.00137
1.00142
1.00601
1.00613
1.00606
1.00585
1.00552
1.00508
1.00457
1.00401
1.00342
1.00285
1.0023
1.00185
1.00146
1.00136
1.00139
1.00604
1.00615
1.00608
1.00588
1.00554
1.00511
1.00459
1.00403
1.00344
1.00286
1.00231
1.00186
1.00146
1.00135
1.00136
1.00606
1.00618
1.00611
1.00591
1.00557
1.00513
1.00461
1.00405
1.00345
1.00287
1.00232
1.00186
1.00146
1.00133
1.00133
1.00609
1.00621
1.00614
1.00594
1.0056
1.00516
1.00464
1.00407
1.00347
1.00289
1.00232
1.00186
1.00146
1.00131
1.0013
1.00611
1.00624
1.00617
1.00597
1.00563
1.00519
1.00466
1.00409
1.00349
1.0029
1.00233
1.00186
1.00146
1.00129
1.00127
1.00614
1.00627
1.0062
1.006
1.00566
1.00522
1.00469
1.00411
1.0035
1.00291
1.00233
1.00186
1.00145
1.00127
1.00123
1.00617
1.0063
1.00624
1.00604
1.00569
1.00525
1.00472
1.00413
1.00352
1.00292
1.00234
1.00186
1.00144
1.00125
1.0012
1.0062
1.00633
1.00627
1.00607
1.00573
1.00528
1.00474
1.00416
1.00354
1.00293
1.00235
1.00185
1.00143
1.00122
1.00116
1.00623
1.00636
1.0063
1.00611
1.00576
1.00531
1.00477
1.00418
1.00356
1.00294
1.00235
1.00185
1.00142
1.0012
1.00112
1.00626
1.0064
1.00634
1.00614
1.0058
1.00535
1.0048
1.0042
1.00357
1.00295
1.00235
1.00185
1.00141
1.00117
1.00108
1.0063
1.00644
1.00638
1.00618
1.00584
1.00538
1.00483
1.00423
1.00359
1.00296
1.00236
1.00184
1.0014
1.00114
1.00104
1.00633
1.00647
1.00641
1.00622
1.00587
1.00541
1.00486
1.00425
1.00361
1.00297
1.00236
1.00183
1.00138
1.00111
1.00099
1.00637
1.00651
1.00645
1.00625
1.00591
1.00545
1.00489
1.00427
1.00362
1.00298
1.00236
1.00182
1.00137
1.00108
1.00095
1.00641
1.00655
1.00649
1.00629
1.00594
1.00548
1.00492
1.0043
1.00364
1.00298
1.00236
1.00181
1.00135
1.00105
1.0009
1.00645
1.00659
1.00653
1.00633
1.00598
1.00551
1.00495
1.00432
1.00365
1.00299
1.00235
1.0018
1.00133
1.00102
1.00086
1.00649
1.00664
1.00658
1.00637
1.00602
1.00555
1.00497
1.00434
1.00367
1.00299
1.00235
1.00179
1.00131
1.00098
1.00081
1.00653
1.00668
1.00662
1.00642
1.00606
1.00558
1.005
1.00436
1.00368
1.003
1.00235
1.00177
1.00128
1.00095
1.00077
1.00658
1.00673
1.00666
1.00646
1.0061
1.00562
1.00503
1.00438
1.00369
1.00301
1.00234
1.00176
1.00126
1.00092
1.00072
1.00662
1.00678
1.00671
1.00651
1.00614
1.00565
1.00506
1.00441
1.00371
1.00301
1.00234
1.00175
1.00124
1.00088
1.00067
1.00667
1.00682
1.00676
1.00655
1.00618
1.00569
1.0051
1.00443
1.00372
1.00302
1.00234
1.00173
1.00122
1.00084
1.00062
1.00672
1.00688
1.00681
1.0066
1.00623
1.00573
1.00513
1.00446
1.00374
1.00302
1.00233
1.00172
1.00119
1.00081
1.00057
1.00677
1.00693
1.00686
1.00665
1.00628
1.00578
1.00517
1.00448
1.00376
1.00303
1.00233
1.0017
1.00116
1.00077
1.00052
1.00682
1.00698
1.00691
1.00671
1.00633
1.00582
1.0052
1.00451
1.00378
1.00304
1.00232
1.00169
1.00114
1.00073
1.00047
1.00687
1.00704
1.00697
1.00676
1.00638
1.00586
1.00524
1.00454
1.00379
1.00304
1.00232
1.00167
1.00111
1.00069
1.00042
1.00692
1.00709
1.00702
1.00681
1.00643
1.00591
1.00528
1.00457
1.00381
1.00305
1.00231
1.00165
1.00108
1.00065
1.00036
1.00698
1.00715
1.00708
1.00687
1.00648
1.00596
1.00531
1.0046
1.00383
1.00306
1.00231
1.00163
1.00105
1.0006
1.00031
1.00704
1.00721
1.00714
1.00693
1.00653
1.006
1.00535
1.00463
1.00385
1.00306
1.0023
1.00161
1.00101
1.00056
1.00025
1.00709
1.00727
1.0072
1.00698
1.00658
1.00605
1.00539
1.00465
1.00386
1.00307
1.00229
1.00159
1.00098
1.00051
1.0002
1.00715
1.00733
1.00726
1.00704
1.00664
1.0061
1.00543
1.00468
1.00388
1.00307
1.00228
1.00157
1.00095
1.00046
1.00014
1.00722
1.0074
1.00733
1.0071
1.00669
1.00615
1.00547
1.00471
1.0039
1.00307
1.00227
1.00154
1.00091
1.00042
1.00008
1.00728
1.00747
1.00739
1.00717
1.00675
1.00619
1.00551
1.00474
1.00391
1.00308
1.00226
1.00152
1.00087
1.00037
1.00002
1.00734
1.00753
1.00746
1.00723
1.00681
1.00625
1.00555
1.00477
1.00393
1.00308
1.00225
1.00149
1.00084
1.00032
0.999957
1.00741
1.0076
1.00752
1.0073
1.00687
1.0063
1.00559
1.0048
1.00395
1.00308
1.00224
1.00147
1.0008
1.00027
0.999895
1.00748
1.00767
1.00759
1.00736
1.00693
1.00635
1.00564
1.00483
1.00397
1.00309
1.00223
1.00144
1.00076
1.00021
0.999831
1.00755
1.00775
1.00767
1.00743
1.007
1.00641
1.00568
1.00487
1.00399
1.00309
1.00222
1.00142
1.00072
1.00016
0.999766
1.00762
1.00782
1.00774
1.0075
1.00706
1.00647
1.00573
1.0049
1.00401
1.00309
1.00221
1.00139
1.00067
1.0001
0.9997
1.00769
1.0079
1.00782
1.00758
1.00713
1.00652
1.00578
1.00493
1.00403
1.0031
1.00219
1.00136
1.00063
1.00005
0.999632
1.00777
1.00798
1.00789
1.00765
1.0072
1.00658
1.00583
1.00497
1.00405
1.0031
1.00218
1.00133
1.00059
0.99999
0.999562
1.00784
1.00806
1.00797
1.00773
1.00727
1.00665
1.00588
1.005
1.00407
1.00311
1.00217
1.0013
1.00054
0.999931
0.999491
1.00792
1.00814
1.00805
1.00781
1.00734
1.00671
1.00593
1.00504
1.00409
1.00311
1.00215
1.00127
1.00049
0.99987
0.999419
1.008
1.00822
1.00813
1.00788
1.00741
1.00677
1.00598
1.00508
1.0041
1.00311
1.00214
1.00124
1.00044
0.999807
0.999345
1.00808
1.00831
1.00822
1.00796
1.00748
1.00683
1.00603
1.00511
1.00412
1.00311
1.00212
1.0012
1.00039
0.999743
0.999269
1.00817
1.0084
1.0083
1.00805
1.00756
1.0069
1.00608
1.00515
1.00414
1.00311
1.0021
1.00117
1.00034
0.999678
0.999192
1.00825
1.00849
1.00839
1.00813
1.00763
1.00697
1.00613
1.00519
1.00416
1.00311
1.00209
1.00113
1.00029
0.999611
0.999113
1.00834
1.00858
1.00848
1.00822
1.00771
1.00703
1.00619
1.00522
1.00418
1.00311
1.00207
1.0011
1.00024
0.999543
0.999033
1.00843
1.00867
1.00857
1.0083
1.00779
1.0071
1.00624
1.00526
1.0042
1.00312
1.00205
1.00106
1.00018
0.999473
0.998951
1.00852
1.00877
1.00866
1.00839
1.00787
1.00717
1.0063
1.0053
1.00422
1.00312
1.00203
1.00102
1.00013
0.999402
0.998867
1.00862
1.00887
1.00876
1.00849
1.00796
1.00725
1.00636
1.00534
1.00425
1.00312
1.00201
1.00098
1.00007
0.999329
0.998782
1.00871
1.00897
1.00886
1.00858
1.00804
1.00732
1.00642
1.00539
1.00427
1.00312
1.00199
1.00094
1.00001
0.999254
0.998694
1.00881
1.00907
1.00896
1.00868
1.00813
1.0074
1.00648
1.00543
1.00429
1.00312
1.00197
1.0009
0.99995
0.999178
0.998605
1.00891
1.00917
1.00906
1.00878
1.00822
1.00747
1.00654
1.00547
1.00432
1.00312
1.00195
1.00086
0.999888
0.9991
0.998513
1.00901
1.00928
1.00917
1.00888
1.00831
1.00755
1.0066
1.00552
1.00434
1.00312
1.00193
1.00081
0.999825
0.99902
0.99842
1.00912
1.00939
1.00927
1.00898
1.00841
1.00764
1.00667
1.00556
1.00436
1.00313
1.00191
1.00077
0.999761
0.998938
0.998324
1.00922
1.0095
1.00938
1.00908
1.0085
1.00772
1.00674
1.00561
1.00439
1.00313
1.00189
1.00073
0.999694
0.998854
0.998226
1.00933
1.00961
1.00949
1.00919
1.0086
1.0078
1.0068
1.00566
1.00441
1.00313
1.00186
1.00068
0.999626
0.998768
0.998126
1.00944
1.00973
1.00961
1.0093
1.0087
1.00789
1.00687
1.00571
1.00444
1.00313
1.00184
1.00063
0.999556
0.99868
0.998024
1.00956
1.00985
1.00972
1.00941
1.0088
1.00798
1.00694
1.00576
1.00446
1.00313
1.00181
1.00058
0.999484
0.99859
0.997919
1.00968
1.00997
1.00984
1.00953
1.00891
1.00807
1.00701
1.00581
1.00449
1.00313
1.00179
1.00053
0.99941
0.998498
0.997812
1.00979
1.01009
1.00996
1.00964
1.00901
1.00816
1.00709
1.00586
1.00451
1.00313
1.00176
1.00048
0.999335
0.998404
0.997703
1.00992
1.01022
1.01009
1.00976
1.00912
1.00825
1.00716
1.00591
1.00454
1.00312
1.00173
1.00042
0.999258
0.998307
0.997591
1.01004
1.01035
1.01021
1.00988
1.00923
1.00835
1.00724
1.00596
1.00457
1.00312
1.0017
1.00037
0.999179
0.998209
0.997477
1.01017
1.01048
1.01034
1.01001
1.00935
1.00845
1.00731
1.00601
1.00459
1.00312
1.00167
1.00031
0.999099
0.998108
0.99736
1.01029
1.01061
1.01047
1.01013
1.00946
1.00855
1.00739
1.00607
1.00462
1.00312
1.00164
1.00025
0.999017
0.998005
0.997241
1.01043
1.01075
1.01061
1.01026
1.00958
1.00865
1.00747
1.00612
1.00465
1.00312
1.00161
1.00019
0.998933
0.9979
0.997119
1.01056
1.01089
1.01074
1.01039
1.0097
1.00875
1.00756
1.00618
1.00468
1.00312
1.00158
1.00013
0.998847
0.997793
0.996995
1.0107
1.01103
1.01088
1.01053
1.00982
1.00886
1.00764
1.00624
1.0047
1.00312
1.00155
1.00007
0.998759
0.997683
0.996867
1.01084
1.01118
1.01103
1.01067
1.00995
1.00897
1.00773
1.0063
1.00473
1.00311
1.00151
1.00001
0.998669
0.99757
0.996737
1.01098
1.01133
1.01117
1.01081
1.01007
1.00908
1.00781
1.00636
1.00476
1.00311
1.00148
0.999946
0.998577
0.997455
0.996604
1.01113
1.01148
1.01132
1.01095
1.01021
1.00919
1.0079
1.00642
1.0048
1.00311
1.00144
0.999879
0.998482
0.997337
0.996467
1.01128
1.01163
1.01147
1.0111
1.01034
1.0093
1.008
1.00648
1.00483
1.00311
1.00141
0.999811
0.998385
0.997216
0.996328
1.01143
1.01179
1.01163
1.01124
1.01048
1.00942
1.00809
1.00655
1.00486
1.0031
1.00137
0.999741
0.998286
0.997093
0.996185
1.01158
1.01195
1.01179
1.0114
1.01061
1.00954
1.00818
1.00661
1.00489
1.0031
1.00133
0.999669
0.998184
0.996966
0.996039
1.01174
1.01212
1.01195
1.01155
1.01076
1.00967
1.00828
1.00668
1.00492
1.0031
1.00129
0.999595
0.99808
0.996837
0.99589
1.0119
1.01228
1.01211
1.01171
1.0109
1.00979
1.00838
1.00674
1.00495
1.00309
1.00125
0.999519
0.997973
0.996704
0.995738
1.01207
1.01245
1.01228
1.01187
1.01105
1.00992
1.00848
1.00681
1.00499
1.00309
1.00121
0.999442
0.997864
0.996569
0.995582
1.01224
1.01263
1.01245
1.01204
1.0112
1.01005
1.00858
1.00688
1.00502
1.00308
1.00116
0.999362
0.997752
0.996431
0.995423
1.01241
1.01281
1.01263
1.01221
1.01135
1.01018
1.00869
1.00695
1.00505
1.00308
1.00112
0.999281
0.997638
0.99629
0.995261
1.01258
1.01299
1.01281
1.01238
1.01151
1.01032
1.00879
1.00703
1.00509
1.00307
1.00107
0.999197
0.997522
0.996145
0.995094
1.01276
1.01317
1.01299
1.01255
1.01167
1.01045
1.0089
1.0071
1.00512
1.00306
1.00103
0.999112
0.997402
0.995997
0.994924
1.01294
1.01336
1.01318
1.01273
1.01184
1.01059
1.00901
1.00717
1.00516
1.00306
1.00098
0.999025
0.99728
0.995846
0.99475
1.01313
1.01355
1.01336
1.01292
1.012
1.01074
1.00913
1.00725
1.00519
1.00305
1.00093
0.998935
0.997155
0.995692
0.994573
1.01332
1.01375
1.01356
1.0131
1.01217
1.01089
1.00924
1.00733
1.00523
1.00304
1.00088
0.998843
0.997026
0.995533
0.994391
1.01351
1.01395
1.01376
1.01329
1.01235
1.01104
1.00936
1.00741
1.00527
1.00303
1.00082
0.998749
0.996895
0.995371
0.994205
1.01371
1.01415
1.01396
1.01349
1.01253
1.01119
1.00948
1.00749
1.0053
1.00302
1.00077
0.998652
0.99676
0.995205
0.994015
1.01391
1.01436
1.01416
1.01369
1.01271
1.01135
1.0096
1.00757
1.00534
1.00301
1.00071
0.998552
0.996622
0.995036
0.993821
1.01411
1.01457
1.01437
1.01389
1.01289
1.01151
1.00973
1.00766
1.00538
1.003
1.00066
0.99845
0.996481
0.994862
0.993623
1.01432
1.01479
1.01459
1.0141
1.01308
1.01167
1.00986
1.00774
1.00542
1.00299
1.0006
0.998345
0.996336
0.994685
0.99342
1.01453
1.01501
1.01481
1.01431
1.01328
1.01183
1.00999
1.00783
1.00545
1.00298
1.00053
0.998237
0.996188
0.994503
0.993213
1.01475
1.01524
1.01503
1.01452
1.01347
1.012
1.01012
1.00792
1.00549
1.00297
1.00047
0.998127
0.996037
0.994318
0.993001
1.01497
1.01547
1.01526
1.01474
1.01367
1.01218
1.01025
1.00801
1.00553
1.00295
1.0004
0.998013
0.995881
0.994128
0.992785
1.0152
1.0157
1.01549
1.01497
1.01388
1.01235
1.01039
1.0081
1.00557
1.00294
1.00034
0.997897
0.995723
0.993934
0.992564
1.01543
1.01594
1.01573
1.0152
1.01409
1.01253
1.01053
1.00819
1.00561
1.00292
1.00027
0.997778
0.99556
0.993736
0.992338
1.01566
1.01619
1.01597
1.01543
1.0143
1.01272
1.01067
1.00828
1.00565
1.00291
1.0002
0.997657
0.995394
0.993533
0.992107
1.0159
1.01644
1.01622
1.01567
1.01452
1.0129
1.01082
1.00838
1.00569
1.00289
1.00012
0.997531
0.995223
0.993326
0.991871
1.01615
1.01669
1.01647
1.01591
1.01474
1.01309
1.01097
1.00848
1.00573
1.00287
1.00005
0.997403
0.995049
0.993113
0.99163
1.01639
1.01695
1.01673
1.01616
1.01497
1.01329
1.01112
1.00858
1.00577
1.00285
0.99997
0.997271
0.99487
0.992896
0.991383
1.01665
1.01721
1.01699
1.01641
1.0152
1.01349
1.01128
1.00868
1.00581
1.00283
0.99989
0.997135
0.994686
0.992674
0.991131
1.01691
1.01748
1.01726
1.01667
1.01544
1.01369
1.01143
1.00878
1.00585
1.00281
0.999806
0.996996
0.994498
0.992446
0.990873
1.01717
1.01776
1.01753
1.01694
1.01568
1.0139
1.01159
1.00888
1.0059
1.00279
0.99972
0.996853
0.994305
0.992213
0.99061
1.01744
1.01804
1.01781
1.01721
1.01593
1.01411
1.01176
1.00899
1.00594
1.00276
0.999631
0.996705
0.994108
0.991975
0.990341
1.01771
1.01833
1.0181
1.01748
1.01618
1.01433
1.01192
1.0091
1.00598
1.00273
0.999539
0.996554
0.993905
0.991732
0.990066
1.01799
1.01862
1.01839
1.01777
1.01644
1.01455
1.01209
1.0092
1.00602
1.00271
0.999443
0.996398
0.993698
0.991482
0.989786
1.01828
1.01892
1.01869
1.01805
1.0167
1.01477
1.01226
1.00931
1.00606
1.00268
0.999345
0.996238
0.993486
0.991228
0.989499
1.01857
1.01922
1.01899
1.01835
1.01697
1.015
1.01244
1.00942
1.0061
1.00264
0.999244
0.996074
0.993268
0.990967
0.989206
1.01887
1.01953
1.0193
1.01864
1.01724
1.01523
1.01262
1.00954
1.00614
1.00261
0.999139
0.995906
0.993046
0.990701
0.988907
1.01917
1.01985
1.01961
1.01895
1.01752
1.01547
1.0128
1.00965
1.00618
1.00257
0.999032
0.995733
0.992818
0.990429
0.988601
1.01948
1.02017
1.01994
1.01926
1.01781
1.01571
1.01298
1.00977
1.00622
1.00254
0.99892
0.995556
0.992584
0.99015
0.988289
1.0198
1.0205
1.02027
1.01958
1.0181
1.01596
1.01317
1.00988
1.00626
1.0025
0.998806
0.995374
0.992344
0.989865
0.98797
1.02012
1.02084
1.0206
1.01991
1.0184
1.01621
1.01337
1.01
1.0063
1.00246
0.998687
0.995186
0.992099
0.989573
0.987644
1.02045
1.02118
1.02095
1.02024
1.0187
1.01647
1.01356
1.01013
1.00634
1.00241
0.998564
0.994994
0.991847
0.989275
0.98731
1.02078
1.02153
1.0213
1.02058
1.01901
1.01674
1.01376
1.01025
1.00638
1.00237
0.998437
0.994795
0.991589
0.98897
0.98697
1.02112
1.02189
1.02166
1.02093
1.01933
1.017
1.01396
1.01037
1.00641
1.00232
0.998306
0.994591
0.991324
0.988657
0.986622
1.02147
1.02226
1.02202
1.02128
1.01965
1.01728
1.01417
1.0105
1.00645
1.00226
0.99817
0.994381
0.991053
0.988338
0.986267
1.02183
1.02263
1.02239
1.02164
1.01998
1.01756
1.01438
1.01062
1.00649
1.00221
0.998029
0.994165
0.990775
0.988011
0.985904
1.02219
1.02301
1.02278
1.02201
1.02032
1.01784
1.01459
1.01075
1.00652
1.00215
0.997883
0.993943
0.990489
0.987676
0.985534
1.02256
1.0234
1.02317
1.02239
1.02066
1.01813
1.01481
1.01088
1.00655
1.00209
0.997732
0.993715
0.990197
0.987334
0.985156
1.02294
1.02379
1.02356
1.02277
1.02101
1.01843
1.01503
1.01101
1.00658
1.00202
0.997576
0.99348
0.989897
0.986984
0.984769
1.02333
1.0242
1.02397
1.02317
1.02137
1.01873
1.01526
1.01114
1.00661
1.00195
0.997414
0.993238
0.98959
0.986626
0.984375
1.02372
1.02461
1.02439
1.02357
1.02174
1.01904
1.01548
1.01127
1.00664
1.00188
0.997246
0.992989
0.989275
0.98626
0.983972
1.02413
1.02503
1.02481
1.02398
1.02211
1.01935
1.01571
1.0114
1.00667
1.0018
0.997073
0.992733
0.988951
0.985885
0.98356
1.02454
1.02547
1.02524
1.0244
1.0225
1.01967
1.01595
1.01154
1.0067
1.00172
0.996894
0.992469
0.98862
0.985502
0.98314
1.02496
1.02591
1.02569
1.02483
1.02289
1.02
1.01619
1.01167
1.00672
1.00163
0.996707
0.992198
0.98828
0.985109
0.98271
1.02538
1.02636
1.02614
1.02527
1.02329
1.02033
1.01643
1.01181
1.00674
1.00154
0.996515
0.991918
0.987931
0.984708
0.982272
1.02582
1.02681
1.0266
1.02572
1.02369
1.02067
1.01668
1.01195
1.00676
1.00145
0.996315
0.991631
0.987573
0.984297
0.981824
1.02627
1.02728
1.02707
1.02617
1.02411
1.02102
1.01693
1.01208
1.00677
1.00134
0.996107
0.991334
0.987206
0.983877
0.981368
1.02672
1.02776
1.02756
1.02664
1.02454
1.02137
1.01718
1.01222
1.00679
1.00124
0.995893
0.991029
0.986829
0.983448
0.980901
1.02719
1.02825
1.02805
1.02712
1.02497
1.02173
1.01744
1.01236
1.0068
1.00112
0.99567
0.990715
0.986443
0.983008
0.980425
1.02766
1.02875
1.02856
1.02761
1.02541
1.0221
1.0177
1.01249
1.0068
1.001
0.995439
0.990391
0.986047
0.982559
0.979939
1.02815
1.02926
1.02907
1.02811
1.02587
1.02247
1.01797
1.01263
1.00681
1.00088
0.9952
0.990058
0.98564
0.982099
0.979443
1.02864
1.02978
1.0296
1.02862
1.02633
1.02285
1.01824
1.01277
1.0068
1.00075
0.994952
0.989715
0.985224
0.981629
0.978936
1.02915
1.03032
1.03014
1.02914
1.0268
1.02324
1.01851
1.0129
1.0068
1.00061
0.994694
0.989361
0.984796
0.981148
0.978419
1.02967
1.03086
1.03069
1.02968
1.02729
1.02364
1.01878
1.01304
1.00679
1.00046
0.994428
0.988997
0.984357
0.980655
0.977891
1.0302
1.03142
1.03126
1.03023
1.02778
1.02404
1.01906
1.01317
1.00677
1.0003
0.994151
0.988622
0.983907
0.980152
0.977353
1.03074
1.03199
1.03183
1.03079
1.02829
1.02445
1.01934
1.01331
1.00675
1.00014
0.993864
0.988235
0.983445
0.979636
0.976803
1.03129
1.03257
1.03243
1.03136
1.0288
1.02487
1.01963
1.01344
1.00673
0.999968
0.993566
0.987836
0.982971
0.979109
0.976241
1.03185
1.03317
1.03303
1.03194
1.02933
1.02529
1.01992
1.01357
1.0067
0.999786
0.993256
0.987425
0.982484
0.97857
0.975668
1.03243
1.03378
1.03365
1.03254
1.02987
1.02573
1.02021
1.0137
1.00666
0.999594
0.992934
0.987001
0.981984
0.978018
0.975083
1.03302
1.0344
1.03428
1.03316
1.03042
1.02617
1.0205
1.01382
1.00661
0.999392
0.992601
0.986564
0.981471
0.977453
0.974486
1.03362
1.03504
1.03493
1.03378
1.03098
1.02662
1.0208
1.01394
1.00656
0.999179
0.992254
0.986113
0.980945
0.976875
0.973877
1.03423
1.03569
1.03559
1.03443
1.03155
1.02707
1.0211
1.01406
1.0065
0.998954
0.991893
0.985648
0.980404
0.976284
0.973255
1.03486
1.03636
1.03627
1.03508
1.03214
1.02754
1.0214
1.01418
1.00643
0.998717
0.991519
0.985168
0.97985
0.97568
0.972621
1.03551
1.03704
1.03696
1.03575
1.03274
1.02801
1.0217
1.01429
1.00635
0.998467
0.99113
0.984674
0.979281
0.975061
0.971974
1.03616
1.03774
1.03768
1.03644
1.03335
1.02849
1.02201
1.01439
1.00626
0.998204
0.990727
0.984164
0.978697
0.974429
0.971313
1.03684
1.03845
1.0384
1.03715
1.03398
1.02898
1.02231
1.01449
1.00616
0.997928
0.990308
0.983639
0.978097
0.973782
0.97064
1.03752
1.03918
1.03915
1.03787
1.03461
1.02948
1.02262
1.01458
1.00604
0.997636
0.989873
0.983097
0.977482
0.973121
0.969953
1.03823
1.03993
1.03991
1.03861
1.03527
1.02998
1.02292
1.01467
1.00592
0.99733
0.989421
0.982539
0.976851
0.972445
0.969252
1.03895
1.0407
1.0407
1.03936
1.03594
1.03049
1.02323
1.01475
1.00578
0.997008
0.988952
0.981963
0.976204
0.971753
0.968538
1.03968
1.04149
1.0415
1.04014
1.03662
1.03101
1.02354
1.01483
1.00563
0.996668
0.988465
0.981369
0.975539
0.971046
0.967809
1.04044
1.04229
1.04232
1.04093
1.03731
1.03154
1.02384
1.01489
1.00547
0.996311
0.987959
0.980757
0.974857
0.970323
0.967066
1.04121
1.04311
1.04316
1.04175
1.03802
1.03208
1.02415
1.01494
1.00529
0.995936
0.987433
0.980125
0.974157
0.969583
0.966308
1.042
1.04396
1.04403
1.04258
1.03875
1.03262
1.02445
1.01499
1.0051
0.995541
0.986887
0.979474
0.973439
0.968827
0.965536
1.0428
1.04482
1.04491
1.04343
1.03949
1.03317
1.02475
1.01502
1.00488
0.995126
0.98632
0.978802
0.972701
0.968054
0.964749
1.04363
1.04571
1.04582
1.04431
1.04025
1.03372
1.02504
1.01504
1.00465
0.994689
0.985731
0.978109
0.971945
0.967264
0.963946
1.04448
1.04662
1.04675
1.0452
1.04102
1.03428
1.02533
1.01505
1.0044
0.99423
0.985119
0.977395
0.971169
0.966456
0.963129
1.04535
1.04755
1.04771
1.04612
1.04181
1.03485
1.02562
1.01504
1.00413
0.993747
0.984483
0.976658
0.970372
0.965631
0.962296
1.04623
1.04851
1.04869
1.04706
1.04262
1.03542
1.02589
1.01501
1.00383
0.993239
0.983823
0.975898
0.969555
0.964787
0.961447
1.04714
1.04949
1.0497
1.04803
1.04344
1.036
1.02616
1.01497
1.00351
0.992706
0.983137
0.975114
0.968717
0.963925
0.960582
1.04808
1.05049
1.05073
1.04902
1.04427
1.03658
1.02643
1.01491
1.00317
0.992146
0.982425
0.974307
0.967857
0.963045
0.959702
1.04903
1.05152
1.05179
1.05003
1.04513
1.03716
1.02668
1.01482
1.0028
0.991557
0.981685
0.973474
0.966976
0.962146
0.958806
1.05001
1.05258
1.05288
1.05107
1.046
1.03775
1.02692
1.01472
1.00241
0.99094
0.980918
0.972616
0.966072
0.961227
0.957893
1.05102
1.05367
1.054
1.05214
1.04689
1.03834
1.02715
1.01459
1.00198
0.990291
0.980121
0.971732
0.965146
0.96029
0.956964
1.05205
1.05479
1.05515
1.05323
1.04779
1.03893
1.02736
1.01444
1.00152
0.989611
0.979294
0.970821
0.964197
0.959333
0.956019
1.0531
1.05593
1.05633
1.05435
1.04871
1.03952
1.02756
1.01426
1.00103
0.988897
0.978436
0.969882
0.963224
0.958356
0.955057
1.05419
1.05711
1.05754
1.05551
1.04965
1.04011
1.02773
1.01405
1.00051
0.988149
0.977546
0.968916
0.962227
0.957359
0.954078
1.0553
1.05832
1.05879
1.05668
1.0506
1.0407
1.02789
1.0138
0.999946
0.987364
0.976623
0.967921
0.961206
0.956342
0.953083
1.05644
1.05956
1.06007
1.05789
1.05157
1.04128
1.02803
1.01353
0.999346
0.986542
0.975666
0.966896
0.96016
0.955304
0.95207
1.05761
1.06084
1.06139
1.05914
1.05255
1.04185
1.02814
1.01321
0.998706
0.98568
0.974674
0.965841
0.959089
0.954246
0.95104
1.05882
1.06215
1.06275
1.06041
1.05355
1.04242
1.02822
1.01286
0.998023
0.984778
0.973646
0.964756
0.957993
0.953166
0.949993
1.06005
1.0635
1.06415
1.06171
1.05456
1.04297
1.02827
1.01247
0.997296
0.983834
0.972581
0.96364
0.956871
0.952066
0.948928
1.06132
1.0649
1.06559
1.06305
1.05558
1.04352
1.02829
1.01203
0.996521
0.982846
0.971478
0.962492
0.955723
0.950944
0.947846
1.06263
1.06633
1.06707
1.06442
1.05662
1.04404
1.02827
1.01154
0.995697
0.981812
0.970335
0.961311
0.954549
0.9498
0.946746
1.06397
1.0678
1.06859
1.06583
1.05766
1.04455
1.02821
1.011
0.994821
0.980732
0.969153
0.960097
0.953348
0.948635
0.945629
1.06534
1.06932
1.07016
1.06727
1.05872
1.04504
1.0281
1.01041
0.993891
0.979602
0.967929
0.95885
0.952119
0.947448
0.944493
1.06676
1.07088
1.07178
1.06874
1.05978
1.0455
1.02795
1.00976
0.992905
0.978424
0.966665
0.957569
0.950864
0.946239
0.94334
1.06822
1.07249
1.07345
1.07026
1.06084
1.04594
1.02775
1.00905
0.99186
0.977193
0.965357
0.956254
0.949581
0.945008
0.942169
1.06972
1.07415
1.07518
1.0718
1.06191
1.04634
1.02749
1.00827
0.990753
0.97591
0.964006
0.954904
0.948271
0.943755
0.94098
1.07126
1.07586
1.07695
1.07339
1.06298
1.0467
1.02716
1.00743
0.989582
0.974571
0.96261
0.953519
0.946932
0.94248
0.939774
1.07285
1.07763
1.07878
1.07501
1.06405
1.04702
1.02677
1.00651
0.988345
0.973177
0.961169
0.952098
0.945566
0.941182
0.938549
1.07449
1.07946
1.08067
1.07666
1.0651
1.04728
1.02631
1.00552
0.987039
0.971726
0.959683
0.950641
0.944171
0.939863
0.937306
1.07618
1.08134
1.08262
1.07835
1.06615
1.0475
1.02576
1.00444
0.985661
0.970216
0.95815
0.949148
0.942749
0.93852
0.936045
1.07791
1.08329
1.08464
1.08007
1.06718
1.04765
1.02514
1.00328
0.98421
0.968645
0.95657
0.947619
0.941297
0.937156
0.934767
1.07971
1.08531
1.08672
1.08183
1.06818
1.04773
1.02442
1.00204
0.982682
0.967014
0.954943
0.946053
0.939818
0.935769
0.933471
1.08155
1.08739
1.08886
1.08361
1.06916
1.04774
1.02361
1.00069
0.981075
0.96532
0.953267
0.94445
0.93831
0.934361
0.932157
1.08346
1.08955
1.09108
1.08543
1.07011
1.04766
1.02269
0.999255
0.979387
0.963563
0.951543
0.942811
0.936775
0.93293
0.930825
1.08542
1.09178
1.09337
1.08727
1.07101
1.04749
1.02166
0.997714
0.977616
0.961741
0.94977
0.941135
0.935211
0.931477
0.929476
1.08746
1.0941
1.09573
1.08913
1.07186
1.04721
1.02051
0.996068
0.975761
0.959854
0.947949
0.939422
0.933619
0.930003
0.92811
1.08955
1.0965
1.09817
1.09101
1.07265
1.04682
1.01924
0.994311
0.973818
0.957901
0.946078
0.937673
0.931999
0.928507
0.926727
1.09172
1.099
1.10069
1.0929
1.07337
1.04631
1.01784
0.99244
0.971786
0.955882
0.944158
0.935887
0.930352
0.92699
0.925326
1.09396
1.10159
1.10329
1.0948
1.074
1.04566
1.01629
0.990451
0.969664
0.953795
0.942189
0.934065
0.928678
0.925452
0.923909
1.09628
1.10428
1.10597
1.0967
1.07454
1.04486
1.0146
0.988342
0.967451
0.951643
0.940172
0.932208
0.926977
0.923893
0.922476
1.09868
1.10707
1.10873
1.09859
1.07497
1.0439
1.01275
0.986107
0.965145
0.949422
0.938107
0.930316
0.92525
0.922314
0.921026
1.10117
1.10999
1.11158
1.10046
1.07527
1.04276
1.01073
0.983745
0.962746
0.947135
0.935994
0.928389
0.923498
0.920715
0.919561
1.10374
1.11302
1.1145
1.10229
1.07543
1.04144
1.00855
0.981252
0.960253
0.944782
0.933834
0.926428
0.92172
0.919097
0.91808
1.10642
1.11618
1.11751
1.10408
1.07543
1.03991
1.00619
0.978627
0.957666
0.942363
0.931627
0.924434
0.919917
0.917459
0.916584
1.10919
1.11947
1.12059
1.10581
1.07524
1.03817
1.00364
0.975867
0.954986
0.939878
0.929376
0.922408
0.91809
0.915803
0.915074
1.11207
1.12291
1.12375
1.10746
1.07486
1.03619
1.0009
0.972973
0.952212
0.93733
0.927081
0.920351
0.916241
0.914129
0.913549
1.11507
1.1265
1.12697
1.10901
1.07424
1.03397
0.997971
0.969942
0.949347
0.934719
0.924742
0.918263
0.914369
0.912438
0.912011
1.11819
1.13025
1.13026
1.11043
1.07337
1.03148
0.994838
0.966776
0.946391
0.932048
0.922363
0.916147
0.912475
0.910731
0.910459
1.12144
1.13416
1.13359
1.11171
1.07223
1.02872
0.9915
0.963475
0.943346
0.929317
0.919944
0.914002
0.910561
0.909007
0.908894
1.12483
1.13825
1.13696
1.1128
1.07078
1.02568
0.987957
0.960041
0.940215
0.92653
0.917487
0.911832
0.908627
0.907268
0.907317
1.12837
1.14252
1.14036
1.11369
1.069
1.02232
0.984205
0.956477
0.937001
0.923688
0.914994
0.909636
0.906675
0.905514
0.905729
1.13208
1.14699
1.14375
1.11432
1.06685
1.01866
0.980246
0.952785
0.933705
0.920794
0.912467
0.907417
0.904705
0.903746
0.904129
1.13596
1.15165
1.14713
1.11467
1.06431
1.01467
0.97608
0.94897
0.930333
0.917852
0.909909
0.905175
0.902719
0.901966
0.902518
1.14004
1.15651
1.15045
1.11469
1.06135
1.01034
0.971713
0.945037
0.926888
0.914863
0.907322
0.902914
0.900717
0.900173
0.900897
1.14432
1.16158
1.15369
1.11432
1.05794
1.00568
0.967149
0.940992
0.923374
0.911833
0.904709
0.900634
0.898702
0.89837
0.899267
1.14883
1.16685
1.15681
1.11353
1.05404
1.00068
0.962395
0.936842
0.919797
0.908764
0.902071
0.898338
0.896674
0.896556
0.897628
1.15359
1.17233
1.15976
1.11225
1.04963
0.995337
0.95746
0.932593
0.916161
0.905661
0.899413
0.896027
0.894635
0.894733
0.895981
1.15862
1.178
1.16249
1.11043
1.04468
0.989656
0.952357
0.928255
0.912473
0.902527
0.896736
0.893704
0.892587
0.892901
0.894327
1.16394
1.18387
1.16493
1.10801
1.03918
0.983645
0.947097
0.923836
0.908737
0.899367
0.894044
0.89137
0.89053
0.891063
0.892666
1.16959
1.1899
1.16702
1.10492
1.0331
0.977318
0.941697
0.919345
0.904961
0.896186
0.891341
0.889028
0.888466
0.889218
0.890998
1.17559
1.19609
1.16868
1.1011
1.02643
0.97069
0.936173
0.914793
0.90115
0.892989
0.888629
0.88668
0.886397
0.887369
0.889325
1.18199
1.20238
1.16982
1.09648
1.01916
0.963785
0.930543
0.910189
0.897312
0.88978
0.885912
0.884328
0.884325
0.885516
0.887648
1.18881
1.20874
1.17034
1.091
1.01129
0.95663
0.924827
0.905543
0.893454
0.886564
0.883192
0.881974
0.88225
0.883661
0.885967
1.1961
1.21512
1.17014
1.08461
1.00284
0.949258
0.919046
0.900866
0.889582
0.883347
0.880475
0.879621
0.880176
0.881805
0.884282
1.20391
1.22144
1.16909
1.07724
0.993824
0.941705
0.913219
0.896168
0.885704
0.880134
0.877762
0.877272
0.878104
0.879949
0.882596
1.21226
1.22762
1.16707
1.06885
0.984274
0.934015
0.907369
0.891459
0.881828
0.87693
0.875057
0.874928
0.876036
0.878094
0.880907
1.22122
1.23354
1.16395
1.05939
0.974237
0.926233
0.901514
0.88675
0.877962
0.873742
0.872365
0.872594
0.873974
0.876243
0.879217
1.23082
1.23908
1.15959
1.04885
0.963772
0.918406
0.895674
0.882051
0.874113
0.870574
0.869689
0.87027
0.871919
0.874395
0.877527
1.24111
1.24408
1.15383
1.03722
0.952952
0.910584
0.889866
0.87737
0.87029
0.867432
0.867032
0.867961
0.869875
0.872554
0.875836
1.25212
1.24837
1.14653
1.0245
0.941867
0.902816
0.884107
0.872719
0.866501
0.864322
0.864399
0.865669
0.867843
0.870718
0.874146
1.26388
1.25172
1.13753
1.01075
0.930617
0.895149
0.87841
0.868108
0.862755
0.861249
0.861794
0.863398
0.865825
0.868892
0.872457
1.2764
1.25389
1.12671
0.996029
0.919314
0.887624
0.872786
0.863546
0.85906