1.45 	0 	0 	-0.292415
2.35 	0 	0 	-0.127694
