1.45 	0 	0 	-0.30005
2.35 	0 	0 	-0.13338
