/*--------------------------------*- C++ -*----------------------------------*\
  =========                 |
  \\      /  F ield         | OpenFOAM: The Open Source CFD Toolbox
   \\    /   O peration     | Website:  https://openfoam.org
    \\  /    A nd           | Version:  6.0
     \\/     M anipulation  |
\*---------------------------------------------------------------------------*/
FoamFile
{
    version     2.0;
    format      ascii;
    class       volScalarField;
    location    "2.5";
    object      p;
}
// * * * * * * * * * * * * * * * * * * * * * * * * * * * * * * * * * * * * * //

dimensions      [1 -1 -2 0 0 0 0];

internalField   nonuniform List<scalar> 
3000
(
0.669797
0.550707
0.526349
0.529728
0.549243
0.623098
0.902954
1.70088
5.12226
5.083
0.669781
0.550681
0.526251
0.529618
0.54911
0.623124
0.901707
1.70049
5.08175
5.0545
0.669692
0.550646
0.525989
0.529289
0.548526
0.621637
0.89769
1.68075
5.05929
5.03193
0.669535
0.550595
0.525573
0.528774
0.547633
0.61947
0.892173
1.66116
5.03786
4.99821
0.669313
0.550517
0.524973
0.52804
0.546412
0.616768
0.885114
1.64192
4.97762
4.93041
0.668989
0.55041
0.524113
0.526993
0.5447
0.61308
0.875234
1.61354
4.87188
4.82294
0.668529
0.550242
0.522887
0.525525
0.54237
0.608163
0.861574
1.57182
4.72341
4.67337
0.667849
0.549901
0.521166
0.523531
0.539249
0.600899
0.842816
1.50998
4.50869
4.46439
0.666962
0.549263
0.51905
0.521181
0.535916
0.594348
0.82007
1.45236
4.21327
4.1765
0.665806
0.548445
0.516363
0.518182
0.531555
0.58513
0.788968
1.36622
3.78104
3.74401
1.07206
1.07326
1.08161
1.11699
1.219
1.47997
2.15226
4.26692
12.701
12.0777
1.07204
1.07319
1.08145
1.11663
1.21824
1.4781
2.14805
4.24878
12.6508
12.1995
1.07194
1.07301
1.08108
1.11588
1.21669
1.4748
2.1396
4.22348
12.5646
12.1026
1.07176
1.07273
1.0805
1.11472
1.21431
1.4698
2.1274
4.18176
12.4082
11.8792
1.0715
1.0723
1.07964
1.11301
1.21087
1.46249
2.10982
4.12034
12.1694
11.573
1.07113
1.07167
1.07839
1.11058
1.20606
1.4523
2.08533
4.03682
11.8303
11.1846
1.07053
1.07073
1.07663
1.10729
1.1996
1.43851
2.05193
3.9274
11.3822
10.7077
1.06929
1.06916
1.07434
1.10322
1.19136
1.42075
2.0066
3.7841
10.7919
10.1123
1.06725
1.06677
1.07138
1.09823
1.18105
1.39682
1.94672
3.59148
10.0206
9.37884
1.06467
1.0638
1.06771
1.09209
1.16827
1.36691
1.86848
3.33626
8.98139
8.42489
1.09167
1.17978
1.22047
1.30258
1.47627
1.86769
2.84403
5.87107
17.8261
16.9777
1.09167
1.17971
1.22028
1.30216
1.47533
1.86555
2.83868
5.85159
17.7775
16.9283
1.09164
1.17954
1.2199
1.30132
1.47347
1.86131
2.82797
5.81549
17.6523
16.7269
1.09159
1.17923
1.21928
1.3
1.47055
1.85464
2.81096
5.75553
17.3921
16.3218
1.09153
1.17872
1.21833
1.29804
1.46628
1.84486
2.7858
5.66622
17.002
15.8085
1.09144
1.1779
1.21693
1.2953
1.4604
1.83136
2.75091
5.54403
16.4792
15.1965
1.09127
1.17657
1.21517
1.29176
1.45263
1.81326
2.70393
5.38376
15.8084
14.4678
1.09085
1.17444
1.21392
1.28769
1.44259
1.78931
2.6417
5.17736
14.9543
13.6045
1.0901
1.17146
1.21258
1.2827
1.42977
1.75812
2.56032
4.91169
13.8814
12.5774
1.08913
1.16782
1.21108
1.27668
1.41402
1.71934
2.45731
4.57375
12.4996
11.325
1.04947
1.14876
1.19949
1.30101
1.51385
1.98655
3.15566
6.79944
21.0921
19.8802
1.04946
1.1487
1.19933
1.30063
1.51294
1.9844
3.15012
6.78056
21.0445
19.7535
1.04946
1.14855
1.19907
1.29987
1.51105
1.97983
3.13815
6.73874
20.891
19.4276
1.04945
1.14826
1.19875
1.29868
1.50802
1.97243
3.1185
6.66718
20.5633
18.8823
1.04944
1.14775
1.19826
1.29696
1.50361
1.96162
3.08947
6.56045
20.0715
18.2153
1.04942
1.1469
1.1976
1.29462
1.49759
1.94675
3.04922
6.41407
19.4316
17.4487
1.04938
1.1455
1.19694
1.29171
1.48972
1.92692
2.99528
6.2222
18.627
16.5507
1.04926
1.14334
1.19686
1.28857
1.47985
1.90106
2.92476
5.9778
17.6222
15.5199
1.04904
1.14042
1.1971
1.28484
1.46739
1.86793
2.83436
5.67223
16.383
14.3122
1.04876
1.13691
1.19759
1.28037
1.45206
1.82687
2.72178
5.29406
14.847
12.9085
1.01916
1.0973
1.15388
1.26556
1.49646
2.0054
3.26464
7.22091
22.6981
21.2076
1.01915
1.09725
1.15383
1.26525
1.49559
2.00323
3.25909
7.20235
22.6501
21.0551
1.01913
1.09712
1.15379
1.26464
1.49376
1.99852
3.24671
7.15856
22.4818
20.66
1.01908
1.09686
1.15382
1.26373
1.49084
1.99088
3.22607
7.08134
22.1171
20.0341
1.01899
1.0964
1.15391
1.26245
1.48663
1.97981
3.19541
6.96599
21.5781
19.2823
1.01885
1.0956
1.15415
1.2608
1.48093
1.96458
3.15289
6.80778
20.883
18.4337
1.01861
1.09433
1.15477
1.25887
1.47353
1.94432
3.09605
6.60083
20.0239
17.4435
1.01826
1.09245
1.15599
1.25673
1.46421
1.91817
3.02254
6.33959
18.953
16.3303
1.0178
1.08998
1.15788
1.25427
1.4525
1.88486
2.92917
6.01619
17.6371
15.0126
1.01726
1.08706
1.16035
1.25131
1.43801
1.84357
2.81355
5.62252
16.0565
13.5076
1.01917
1.09732
1.1539
1.26558
1.49647
2.0054
3.26457
7.22046
22.6973
21.2077
1.01916
1.09727
1.15384
1.26526
1.4956
2.00322
3.259
7.20183
22.6496
21.0552
1.01913
1.09714
1.15381
1.26465
1.49376
1.99849
3.24657
7.15794
22.4815
20.6602
1.01908
1.09687
1.15384
1.26374
1.49084
1.99085
3.22593
7.08077
22.1173
20.0346
1.019
1.09641
1.15392
1.26246
1.48663
1.97979
3.19532
6.96562
21.5787
19.283
1.01885
1.09561
1.15417
1.26081
1.48094
1.96458
3.15286
6.80765
20.8837
18.4344
1.01861
1.09433
1.15478
1.25888
1.47355
1.94434
3.09608
6.60089
20.0246
17.4441
1.01826
1.09246
1.156
1.25674
1.46423
1.9182
3.0226
6.33975
18.9538
16.3307
1.0178
1.08999
1.15788
1.25428
1.45252
1.8849
2.92924
6.01639
17.6377
15.013
1.01726
1.08707
1.16036
1.25132
1.43803
1.8436
2.81362
5.62269
16.0569
13.5081
1.04948
1.14881
1.19955
1.30108
1.51392
1.98663
3.15566
6.79845
21.0899
19.8808
1.04947
1.14875
1.19939
1.30069
1.51301
1.98447
3.15006
6.77926
21.0426
19.7541
1.04946
1.14859
1.19913
1.29992
1.5111
1.97984
3.1379
6.73683
20.8899
19.4285
1.04946
1.14829
1.1988
1.29873
1.50805
1.97241
3.11821
6.66543
20.5638
18.8843
1.04945
1.14778
1.1983
1.297
1.50364
1.96162
3.0893
6.55946
20.073
18.218
1.04943
1.14693
1.19764
1.29467
1.49764
1.9468
3.04924
6.41393
19.4334
17.4513
1.04938
1.14553
1.19697
1.29175
1.48977
1.927
2.99543
6.22255
18.6289
16.553
1.04926
1.14337
1.19689
1.2886
1.4799
1.90117
2.925
5.97849
17.6241
15.5219
1.04905
1.14045
1.19713
1.28487
1.46745
1.86803
2.8346
5.67293
16.3847
14.3139
1.04876
1.13693
1.19761
1.28039
1.45211
1.82697
2.72198
5.29463
14.8484
12.9098
1.09171
1.17986
1.22057
1.30272
1.47648
1.86806
2.84473
5.87076
17.8238
16.9799
1.0917
1.17978
1.22038
1.3023
1.47555
1.86595
2.83936
5.85065
17.7741
16.931
1.09166
1.17961
1.21999
1.30144
1.47366
1.86164
2.82838
5.81252
17.6497
16.73
1.09162
1.17929
1.21935
1.30009
1.47069
1.85484
2.81111
5.75301
17.3928
16.327
1.09155
1.17878
1.2184
1.29812
1.46639
1.84501
2.78599
5.66527
17.0037
15.8145
1.09146
1.17795
1.21699
1.29537
1.46051
1.83154
2.75125
5.54467
16.4817
15.2019
1.09128
1.17662
1.21522
1.29182
1.45273
1.81344
2.70432
5.38482
15.8111
14.4725
1.09087
1.17448
1.21396
1.28775
1.44268
1.78949
2.64215
5.17906
14.9572
13.6084
1.09012
1.17149
1.21261
1.28275
1.42986
1.75831
2.56077
4.91301
13.884
12.5804
1.08915
1.16785
1.21111
1.27673
1.4141
1.7195
2.45768
4.57472
12.5018
11.3273
1.07217
1.07336
1.08176
1.11723
1.21945
1.48071
2.15439
4.26925
12.7027
12.0825
1.07212
1.07328
1.08159
1.11686
1.21868
1.47905
2.15017
4.25066
12.6476
12.2099
1.072
1.07309
1.08122
1.11611
1.21712
1.47566
2.14188
4.22244
12.5617
12.1123
1.07182
1.0728
1.08062
1.11492
1.21467
1.47038
2.12907
4.18171
12.4087
11.8912
1.07156
1.07237
1.07974
1.11318
1.21116
1.46287
2.11109
4.12176
12.169
11.5834
1.07118
1.07173
1.07847
1.11072
1.20629
1.45262
2.08624
4.03944
11.8329
11.1923
1.07057
1.07078
1.0767
1.1074
1.19979
1.43877
2.05268
3.92952
11.3856
10.7141
1.06933
1.0692
1.0744
1.1033
1.1915
1.42093
2.00712
3.78677
10.7957
10.1171
1.06728
1.06681
1.07142
1.0983
1.18117
1.39704
1.94728
3.59311
10.0244
9.38161
1.0647
1.06383
1.06775
1.09215
1.16838
1.36712
1.86899
3.3374
8.98506
8.42681
0.669886
0.550725
0.526513
0.529941
0.549673
0.624473
0.905202
1.71403
5.12998
5.09593
0.669845
0.550706
0.526398
0.5298
0.54944
0.623939
0.903623
1.71226
5.09949
5.07558
0.66975
0.550667
0.526138
0.52948
0.548892
0.622641
0.899977
1.69879
5.07244
5.04933
0.669593
0.55061
0.525716
0.52896
0.548006
0.620582
0.89427
1.67724
5.03821
5.0054
0.669367
0.550528
0.525102
0.528209
0.546757
0.617844
0.886794
1.65287
4.97563
4.93242
0.669033
0.550422
0.524214
0.527122
0.544951
0.613815
0.876362
1.61843
4.8744
4.82488
0.668566
0.550253
0.522966
0.525626
0.542565
0.608732
0.862398
1.5756
4.72649
4.67489
0.667883
0.54991
0.521226
0.523607
0.539395
0.601343
0.843366
1.51037
4.51124
4.46554
0.666985
0.549274
0.519093
0.521232
0.536002
0.594552
0.82041
1.45329
4.21571
4.17732
0.665824
0.548456
0.516396
0.518222
0.53162
0.585277
0.789283
1.36748
3.78337
3.74488
0.66202
0.545915
0.507667
0.508337
0.516827
0.553724
0.689754
1.1043
2.37831
2.25159
0.657943
0.542107
0.496166
0.49135
0.495274
0.514984
0.585198
0.83727
1.51352
1.49364
0.655062
0.531405
0.482747
0.467528
0.468173
0.474307
0.499571
0.586052
0.799397
1.24976
0.651941
0.529283
0.479844
0.441925
0.433036
0.43363
0.439088
0.461342
0.527736
0.683374
0.652212
0.528696
0.478901
0.44198
0.41761
0.41362
0.414792
0.421407
0.444525
0.509799
0.652997
0.528149
0.478694
0.441844
0.412623
0.406773
0.407091
0.410288
0.423054
0.462005
0.652196
0.528374
0.4785
0.440845
0.41229
0.394316
0.391381
0.391912
0.395372
0.407598
0.651872
0.528532
0.478406
0.440555
0.412429
0.390537
0.386648
0.382285
0.378431
0.372788
0.651889
0.528317
0.478407
0.440492
0.41228
0.391072
0.383321
0.376735
0.3667
0.338958
0.651945
0.52842
0.478433
0.440528
0.41252
0.391422
0.383754
0.376454
0.367555
0.339494
1.05681
1.05474
1.0565
1.07362
1.13072
1.28111
1.65163
2.66998
5.78007
5.40616
1.04765
1.04411
1.0366
1.04537
1.08074
1.17894
1.42459
2.05137
3.82628
3.73345
1.03204
1.02515
1.00671
1.00729
1.01775
1.05401
1.14868
1.37149
1.89513
3.06739
1.02692
1.01993
1.00076
0.961339
0.959626
0.965415
0.985617
1.03682
1.1513
1.32512
1.02667
1.0194
0.999487
0.958752
0.934531
0.936311
0.946163
0.975077
1.04537
1.20314
1.02693
1.01944
0.999193
0.957816
0.926284
0.926603
0.932448
0.952376
1.00355
1.12383
1.02624
1.01882
0.998448
0.956596
0.92433
0.905897
0.906839
0.912802
0.930442
0.973474
1.02601
1.01863
0.9982
0.956281
0.924056
0.900379
0.89881
0.90093
0.909296
0.932296
1.02607
1.01862
0.998132
0.956079
0.923636
0.900657
0.891827
0.891624
0.895089
0.909436
1.02617
1.0187
0.998174
0.955956
0.92379
0.900624
0.892702
0.891953
0.894952
0.907702
1.0862
1.15729
1.20608
1.25846
1.3674
1.60589
2.16271
3.6594
8.13706
7.57667
1.08292
1.14694
1.1929
1.23031
1.30762
1.47489
1.85591
2.82353
5.58022
5.39921
1.07176
1.13871
1.16568
1.19761
1.23219
1.30374
1.45719
1.79965
2.54558
4.30858
1.06813
1.13479
1.16427
1.16957
1.18107
1.20423
1.23979
1.3033
1.41901
1.66229
1.06779
1.13516
1.16256
1.16476
1.1695
1.18059
1.20427
1.25479
1.36251
1.59865
1.06789
1.13521
1.16227
1.16344
1.16606
1.17384
1.19195
1.23108
1.31484
1.49888
1.06776
1.13478
1.16133
1.16188
1.16246
1.16484
1.17178
1.18712
1.21932
1.2869
1.0678
1.13463
1.16072
1.16162
1.16162
1.16269
1.16716
1.17791
1.20083
1.24906
1.06786
1.1346
1.16055
1.16138
1.16127
1.16206
1.16545
1.17442
1.19516
1.24214
1.06784
1.13473
1.16065
1.16129
1.16124
1.16215
1.16587
1.17536
1.19684
1.24498
1.04793
1.12706
1.19827
1.26614
1.4052
1.7028
2.38664
4.22036
9.69545
8.97483
1.0485
1.11825
1.19191
1.24293
1.34573
1.56092
2.03915
3.25247
6.77802
6.52027
1.04173
1.11917
1.16906
1.23013
1.27728
1.37215
1.56952
2.00317
2.92652
5.10172
1.03991
1.11607
1.17322
1.21497
1.25269
1.29045
1.34102
1.41331
1.54464
1.82843
1.03949
1.1173
1.17102
1.21071
1.24584
1.27982
1.31166
1.37561
1.507
1.79131
1.03946
1.11739
1.17067
1.20974
1.24481
1.27706
1.30277
1.35398
1.45905
1.68492
1.03939
1.11743
1.16965
1.20913
1.24276
1.27275
1.29604
1.31739
1.3587
1.44291
1.03939
1.11756
1.16873
1.20902
1.242
1.27223
1.29387
1.31227
1.34252
1.40391
1.03945
1.11752
1.16845
1.20889
1.24186
1.27187
1.29367
1.31181
1.34213
1.40379
1.03942
1.11756
1.16854
1.20888
1.2418
1.27186
1.29367
1.31166
1.34451
1.41129
1.01578
1.07904
1.16668
1.24115
1.39275
1.71636
2.46117
4.46747
10.4729
9.66418
1.01833
1.07167
1.16672
1.22272
1.33536
1.57115
2.09596
3.43454
7.36981
7.0767
1.01566
1.07891
1.14584
1.22189
1.27401
1.37899
1.59771
2.08006
3.09957
5.4924
1.01523
1.07648
1.15339
1.2106
1.26648
1.31319
1.3729
1.45137
1.59195
1.89543
1.01555
1.07838
1.1506
1.2075
1.26084
1.3115
1.34664
1.41623
1.55833
1.86467
1.01555
1.07845
1.15022
1.20676
1.26053
1.31116
1.34093
1.39691
1.51133
1.75605
1.01558
1.07882
1.1492
1.20618
1.26014
1.30791
1.34292
1.3675
1.41279
1.50497
1.01562
1.07917
1.14812
1.20608
1.25954
1.30788
1.34175
1.3649
1.3978
1.46445
1.01562
1.07912
1.14784
1.20604
1.25949
1.30766
1.34131
1.36432
1.39777
1.46533
1.01561
1.07905
1.14793
1.2061
1.25952
1.30757
1.34131
1.36364
1.39973
1.47306
1.01578
1.07904
1.16668
1.24116
1.39277
1.71638
2.46121
4.46757
10.4731
9.66433
1.01833
1.07167
1.16672
1.22272
1.33537
1.57116
2.09596
3.43455
7.36989
7.07672
1.01566
1.07891
1.14584
1.22189
1.27401
1.37898
1.59768
2.07999
3.09936
5.49182
1.01523
1.07648
1.15339
1.2106
1.26648
1.31319
1.37289
1.45138
1.59193
1.89532
1.01555
1.07838
1.1506
1.2075
1.26085
1.31149
1.34662
1.41621
1.5583
1.8646
1.01554
1.07845
1.15022
1.20676
1.26053
1.31115
1.34091
1.39689
1.51131
1.75606
1.01558
1.07882
1.1492
1.20618
1.26013
1.3079
1.3429
1.36749
1.41274
1.50483
1.01563
1.07917
1.1481
1.20606
1.2595
1.30787
1.34172
1.36488
1.39767
1.46409
1.01562
1.07911
1.14787
1.20602
1.25935
1.30763
1.34106
1.36396
1.39684
1.46357
1.0156
1.079
1.14798
1.20612
1.25943
1.30756
1.34111
1.3634
1.39904
1.47158
1.04794
1.12707
1.19829
1.26616
1.40523
1.70286
2.38677
4.22068
9.69635
8.97545
1.04851
1.11826
1.19192
1.24294
1.34574
1.56093
2.03917
3.25251
6.77823
6.52033
1.04174
1.11917
1.16906
1.23014
1.27727
1.37213
1.56946
2.00301
2.92595
5.10014
1.03991
1.11607
1.17322
1.21497
1.25269
1.29045
1.34098
1.41333
1.54453
1.82808
1.03949
1.1173
1.17102
1.2107
1.24584
1.27979
1.31163
1.37556
1.50692
1.79118
1.03946
1.11739
1.17067
1.20973
1.2448
1.27701
1.30271
1.35389
1.45891
1.68473
1.03939
1.1174
1.16963
1.20911
1.24274
1.27273
1.29601
1.31736
1.35855
1.44249
1.03942
1.11752
1.16866
1.20897
1.24191
1.2722
1.2938
1.31221
1.34226
1.40325
1.03942
1.11756
1.16851
1.20877
1.24154
1.27184
1.29319
1.31137
1.34133
1.40239
1.03932
1.1176
1.16865
1.20878
1.24155
1.27191
1.29336
1.31171
1.34453
1.41144
1.08621
1.15731
1.2061
1.25849
1.36745
1.60599
2.16292
3.65996
8.13884
7.57809
1.08292
1.14695
1.19292
1.23033
1.30764
1.47492
1.85597
2.82364
5.58056
5.3994
1.07176
1.13871
1.16568
1.19761
1.23219
1.30372
1.45713
1.79948
2.54498
4.30682
1.06813
1.13479
1.16427
1.16956
1.18106
1.20421
1.23973
1.30326
1.41879
1.66169
1.06779
1.13516
1.16256
1.16476
1.16949
1.18056
1.20422
1.2547
1.36238
1.59844
1.06788
1.13522
1.16227
1.16342
1.16601
1.17376
1.19182
1.23084
1.31443
1.49812
1.06776
1.13475
1.16131
1.16186
1.16244
1.16482
1.17176
1.18708
1.2192
1.28655
1.06782
1.13454
1.16064
1.16155
1.16156
1.16266
1.16725
1.17818
1.20151
1.25075
1.06786
1.13469
1.16058
1.16102
1.16104
1.16212
1.16657
1.17727
1.20032
1.24951
1.06779
1.1349
1.1607
1.1609
1.16102
1.16228
1.16714
1.17874
1.20389
1.25826
1.05683
1.05476
1.05653
1.07365
1.13078
1.28122
1.6519
2.67069
5.78287
5.40827
1.04766
1.04412
1.03662
1.04539
1.08077
1.17899
1.42468
2.05159
3.8268
3.73391
1.03204
1.02515
1.00671
1.0073
1.01775
1.05401
1.14866
1.37142
1.89488
3.06647
1.02692
1.01993
1.00076
0.961341
0.959588
0.965372
0.985552
1.0367
1.15103
1.32442
1.02667
1.0194
0.999486
0.958745
0.934489
0.936264
0.946103
0.974989
1.04522
1.20287
1.02693
1.01944
0.999187
0.957792
0.926163
0.926462
0.932252
0.952064
1.00301
1.12282
1.02621
1.0188
0.998433
0.956588
0.924316
0.905929
0.906875
0.912846
0.930511
0.973593
1.02591
1.01854
0.998145
0.956247
0.92404
0.90035
0.899652
0.902524
0.913406
0.942704
1.02619
1.01871
0.998091
0.955628
0.923783
0.899955
0.898372
0.900881
0.910941
0.937312
1.02649
1.01889
0.998122
0.95538
0.92385
0.899904
0.899161
0.901198
0.909954
0.934004
0.662029
0.545922
0.507685
0.508358
0.51686
0.553792
0.689931
1.10491
2.38027
2.25304
0.657942
0.542115
0.496175
0.491363
0.49529
0.515014
0.585274
0.837459
1.51416
1.49411
0.655062
0.531406
0.482748
0.46753
0.468176
0.474312
0.499585
0.586108
0.799488
1.24971
0.651941
0.529284
0.479842
0.441928
0.433013
0.433604
0.439053
0.461278
0.527561
0.682736
0.652224
0.528694
0.478901
0.441979
0.417581
0.413593
0.414762
0.421367
0.444458
0.509638
0.653025
0.528133
0.478692
0.441835
0.412546
0.406669
0.406975
0.410124
0.422758
0.461393
0.652139
0.528386
0.478513
0.440841
0.412284
0.394374
0.391376
0.391915
0.395407
0.407728
0.651639
0.528556
0.478413
0.440552
0.41244
0.390554
0.386586
0.384371
0.384769
0.386778
0.652059
0.528451
0.478583
0.440489
0.412487
0.39051
0.386009
0.382999
0.381787
0.378219
0.652644
0.528309
0.478588
0.44037
0.412495
0.390669
0.386723
0.381102
0.371464
0.342735
1.16979
0.703006
0.571038
0.561927
0.639143
0.67509
0.699671
0.752298
0.832205
0.845922
1.18775
0.762062
0.664663
0.67091
0.682285
0.693706
0.713437
0.765738
0.830821
0.842189
1.17368
0.901799
0.815968
0.705305
0.683929
0.681082
0.714306
0.794293
0.819986
0.817957
1.11157
1.05202
0.900063
0.752911
0.737785
0.732785
0.746708
0.774059
0.795755
0.812986
0.984182
1.01665
0.983119
0.889849
0.817625
0.790914
0.781076
0.79567
0.81421
0.862231
0.808661
0.962683
0.982596
0.967564
0.931092
0.880038
0.889394
0.904384
0.911037
0.895403
0.506993
0.861717
1.06189
1.1073
1.12763
1.12461
1.11656
1.07744
0.984065
0.872002
0.331888
0.654775
1.31464
1.30515
1.28545
1.26591
1.22322
1.15414
1.01252
0.865998
0.192623
0.617534
1.47125
1.46784
1.453
1.39881
1.32369
1.21758
1.07037
0.892997
0.186868
0.592844
1.47453
1.49691
1.49164
1.46404
1.40136
1.272
1.09661
0.903842
2.78132
1.75692
1.47731
1.48141
1.59319
1.71968
1.78143
1.90753
2.12837
2.15728
2.8463
1.89645
1.67223
1.72235
1.71929
1.73729
1.78353
1.8959
2.1047
2.09024
2.83126
2.22984
2.09074
1.83093
1.76528
1.77681
1.83227
2.00397
2.04401
2.04707
2.69938
2.55323
2.2015
1.90489
1.8876
1.91255
1.97485
1.99073
2.02075
2.03987
2.49472
2.48636
2.40113
2.18578
2.09068
2.0449
2.04624
2.04848
2.0604
2.11477
2.04506
2.41548
2.48006
2.44457
2.35682
2.24662
2.2676
2.26102
2.23015
2.19878
1.24992
2.22542
2.74636
2.9126
2.90496
2.87056
2.78766
2.6384
2.43369
2.17324
1.08001
1.75947
3.32063
3.32665
3.29263
3.19764
3.03207
2.83817
2.54726
2.17689
1.07913
1.73988
3.56165
3.58798
3.5483
3.45099
3.2797
2.98489
2.63018
2.22522
1.06317
1.71532
3.66391
3.79784
3.7679
3.66454
3.44789
3.07155
2.67907
2.25516
3.824
2.47734
2.12903
2.1415
2.2824
2.47403
2.55743
2.72775
3.04215
3.05397
3.92699
2.66466
2.39275
2.47537
2.46593
2.48769
2.55559
2.71685
3.01684
2.99332
3.92802
3.11701
2.96346
2.63297
2.53986
2.55585
2.64771
2.88786
2.92454
2.91863
3.77317
3.56131
3.07043
2.69832
2.68954
2.73756
2.86022
2.86538
2.88968
2.9039
3.4815
3.46964
3.3442
3.03925
2.98853
2.95322
2.94977
2.94276
2.93505
2.97473
2.87653
3.38288
3.50428
3.4622
3.36505
3.22482
3.26027
3.24147
3.15407
3.10239
1.70865
3.15548
3.92462
4.19194
4.1698
4.10505
3.94009
3.70866
3.45373
3.07035
1.53651
2.59049
4.7941
4.77994
4.70547
4.51724
4.24224
3.96983
3.62607
3.10449
1.54351
2.58643
5.04769
5.07074
5.00161
4.8776
4.63903
4.19764
3.70733
3.16864
1.54479
2.59016
5.26951
5.418
5.36959
5.20107
4.85905
4.30286
3.75988
3.20172
4.44468
2.92819
2.55479
2.57314
2.73313
2.96546
3.061
3.25657
3.62883
3.60764
4.57624
3.14381
2.85981
2.96436
2.9498
2.97632
3.05883
3.25657
3.59956
3.57717
4.60166
3.66953
3.50904
3.14604
3.04089
3.05759
3.18341
3.46835
3.49315
3.48014
4.43266
4.17807
3.60345
3.19988
3.19906
3.26465
3.43764
3.43439
3.4523
3.45779
4.08777
4.07387
3.91958
3.55731
3.55751
3.5453
3.53393
3.51959
3.49738
3.51188
3.38043
3.97802
4.14389
4.10164
4.00986
3.87118
3.90723
3.88139
3.75393
3.67027
1.96812
3.72942
4.67967
5.01378
4.98431
4.89182
4.64938
4.37319
4.11932
3.6379
1.77036
3.10063
5.78433
5.74072
5.60823
5.32181
4.98038
4.67001
4.29945
3.69906
1.77573
3.10588
6.04185
6.02309
5.91484
5.7688
5.47942
4.93901
4.3741
3.77256
1.80339
3.18781
6.39082
6.45183
6.38673
6.1743
5.7498
5.06995
4.43037
3.80967
4.73392
3.14509
2.76578
2.78738
2.95638
3.20803
3.3097
3.51825
3.91889
3.86115
4.88079
3.37399
3.0897
3.20486
3.18731
3.21697
3.30744
3.52488
3.88489
3.84797
4.92265
3.93529
3.77187
3.39498
3.28666
3.30339
3.44942
3.75594
3.77033
3.75545
4.7461
4.46959
3.85582
3.44338
3.44608
3.5229
3.72485
3.71704
3.73016
3.73003
4.37676
4.3613
4.19154
3.80339
3.8326
3.83344
3.82284
3.80464
3.77983
3.7687
3.61573
4.25982
4.45025
4.40918
4.32278
4.19944
4.22789
4.19763
4.05966
3.93362
2.08443
4.00067
5.04643
5.41701
5.38312
5.27071
4.98365
4.68861
4.44195
3.91581
1.86627
3.33581
6.2784
6.21697
6.04456
5.70115
5.32731
5.00916
4.61697
3.99193
1.87464
3.34452
6.52114
6.48116
6.36054
6.18123
5.86198
5.28899
4.68523
4.0683
1.91179
3.46384
6.9579
6.95167
6.87346
6.64765
6.19271
5.44498
4.74933
4.1132
4.73359
3.14479
2.76563
2.7873
2.95608
3.20701
3.3085
3.51669
3.91442
3.85528
4.88036
3.37354
3.08938
3.20454
3.18687
3.21629
3.30649
3.52388
3.88879
3.84621
4.92214
3.93444
3.7712
3.39452
3.28621
3.30291
3.44899
3.75526
3.77075
3.75764
4.74547
4.46886
3.85499
3.44239
3.44526
3.5233
3.72713
3.71903
3.73203
3.73273
4.37621
4.36066
4.19055
3.80129
3.83099
3.83366
3.82577
3.80994
3.78985
3.77304
3.61564
4.2582
4.4491
4.40814
4.32176
4.20348
4.23172
4.19879
4.06914
3.91567
2.08369
3.99739
5.04399
5.41893
5.38498
5.27305
4.98896
4.68638
4.43969
3.91852
1.8643
3.32971
6.27237
6.21165
6.04102
5.70317
5.32653
5.01062
4.60763
3.99818
1.87054
3.33632
6.49965
6.46382
6.34897
6.1705
5.84549
5.29546
4.67806
4.07625
1.90667
3.45419
6.95617
6.94874
6.87209
6.64464
6.18915
5.45376
4.74421
4.12297
4.44374
2.92735
2.55437
2.5729
2.73234
2.96259
3.05767
3.25203
3.61594
3.59336
4.57504
3.14256
2.85892
2.96341
2.94861
2.97449
3.05635
3.25409
3.60967
3.57231
4.60034
3.66712
3.50715
3.14466
3.03964
3.05623
3.18241
3.46688
3.49536
3.48566
4.43067
4.1759
3.60107
3.19703
3.19702
3.26539
3.44287
3.43955
3.45782
3.46709
4.08639
4.0721
3.91667
3.55154
3.55291
3.54644
3.54226
3.53415
3.52346
3.52009
3.38071
3.97383
4.14101
4.09904
4.0073
3.8807
3.91381
3.88392
3.77251
3.63459
1.96629
3.72261
4.67478
5.01943
4.98962
4.89838
4.66191
4.3693
4.10962
3.64819
1.76712
3.09196
5.77582
5.73027
5.59875
5.32291
4.97832
4.67581
4.2693
3.71671
1.77191
3.10415
5.99293
5.96875
5.8843
5.74273
5.44755
4.95067
4.35401
3.79417
1.80558
3.20747
6.42525
6.4445
6.38045
6.16527
5.73772
5.08653
4.41612
3.83637
3.82266
2.47619
2.12846
2.14114
2.28136
2.46995
2.55283
2.72082
3.02292
3.03593
3.92538
2.66286
2.3915
2.47394
2.46435
2.48532
2.55262
2.71423
3.02888
2.98629
3.92623
3.11354
2.96072
2.63077
2.53816
2.55396
2.6465
2.88606
2.93069
2.92545
3.77008
3.5582
3.06711
2.69428
2.68735
2.738
2.86515
2.87089
2.90017
2.91449
3.47974
3.46707
3.33988
3.03139
2.9805
2.95793
2.96116
2.96303
2.96681
2.98352
2.87659
3.37873
3.50093
3.45916
3.362
3.23615
3.26507
3.24598
3.16494
3.07328
1.70742
3.15284
3.92076
4.20214
4.17876
4.11458
3.95268
3.70189
3.44529
3.08193
1.54467
2.60475
4.79448
4.76991
4.69153
4.51291
4.23865
3.9738
3.58139
3.13091
1.54951
2.6177
4.98648
4.98223
4.94255
4.84861
4.62708
4.20715
3.68001
3.19757
1.58364
2.70321
5.34271
5.41821
5.36752
5.18887
4.83163
4.30954
3.7407
3.23713
2.77995
1.75585
1.47676
1.48102
1.59229
1.71549
1.77729
1.90169
2.10622
2.14605
2.84484
1.89462
1.67098
1.72094
1.71783
1.73513
1.78122
1.89448
2.10601
2.08627
2.82974
2.2263
2.08825
1.8285
1.7637
1.77523
1.83089
2.00141
2.05414
2.05185
2.69684
2.55035
2.19799
1.90089
1.8857
1.9127
1.97765
1.99348
2.03531
2.04686
2.49271
2.48349
2.39683
2.17869
2.08304
2.05044
2.05814
2.0689
2.09005
2.11939
2.04235
2.41363
2.47743
2.44245
2.35512
2.25669
2.27228
2.26973
2.23055
2.18515
1.25129
2.23113
2.74436
2.92868
2.91491
2.87909
2.79455
2.62715
2.41915
2.17847
1.1341
1.82074
3.3187
3.31226
3.27843
3.19285
3.02472
2.8401
2.51602
2.20672
1.12315
1.82033
3.46724
3.48425
3.46994
3.42303
3.28809
3.00283
2.60737
2.25194
1.137
1.88421
3.71071
3.80627
3.77094
3.65495
3.42326
3.07059
2.6633
2.28584
1.16892
0.702325
0.570635
0.561717
0.638773
0.672359
0.697741
0.753142
0.815896
0.843434
1.18696
0.760948
0.663884
0.67037
0.681489
0.692583
0.712322
0.766288
0.82392
0.835821
1.173
0.899466
0.814948
0.704003
0.682813
0.680924
0.711718
0.79341
0.825168
0.819108
1.11047
1.05068
0.898492
0.751158
0.737128
0.735326
0.74662
0.769781
0.805123
0.816944
0.983059
1.01454
0.98075
0.886602
0.814968
0.79142
0.792791
0.810988
0.833763
0.859814
0.807982
0.959077
0.981855
0.967029
0.931106
0.885827
0.894102
0.911793
0.904464
0.889147
0.506888
0.874682
1.06396
1.12527
1.13124
1.12698
1.11592
1.07008
0.973075
0.873242
0.396795
0.695084
1.30534
1.29938
1.28626
1.26498
1.21676
1.14582
1.01178
0.885457
0.33596
0.695611
1.38985
1.38392
1.38031
1.3699
1.33279
1.24206
1.06861
0.907358
0.180027
0.707212
1.46378
1.48688
1.4857
1.46659
1.40769
1.28187
1.09109
0.912227
)
;

boundaryField
{
    inlet
    {
        type            fixedValue;
        value           uniform 1;
    }
    outlet
    {
        type            waveTransmissive;
        gamma           1.4;
        fieldInf        1;
        lInf            3;
        value           nonuniform List<scalar> 
100
(
0.836163
0.848254
0.827493
0.825412
0.841883
0.863877
0.854652
0.868847
0.892579
0.900795
2.06982
2.04606
2.00831
2.00245
2.02246
2.07408
2.08791
2.1282
2.17362
2.20109
2.91686
2.90186
2.84152
2.82891
2.84286
2.91096
2.94627
3.01992
3.08359
3.11452
3.44285
3.44727
3.37608
3.35764
3.36514
3.43813
3.49258
3.59182
3.66768
3.70219
3.68991
3.69639
3.63659
3.61739
3.62311
3.69612
3.7642
3.87251
3.95435
3.99522
3.68378
3.69207
3.63596
3.62078
3.63448
3.70802
3.77655
3.87744
3.96097
4.00347
3.42525
3.43778
3.3752
3.36574
3.39801
3.4714
3.52605
3.60647
3.68572
3.72493
2.88977
2.88968
2.84145
2.84023
2.88968
2.95704
2.99031
3.04357
3.10758
3.14469
2.04377
2.03672
2.01038
2.01572
2.068
2.11765
2.12842
2.15561
2.19572
2.22646
0.822776
0.838483
0.829838
0.835156
0.864231
0.882284
0.876657
0.886368
0.90404
0.906059
)
;
    }
    top
    {
        type            symmetryPlane;
    }
    bottom
    {
        type            symmetryPlane;
    }
    step
    {
        type            zeroGradient;
    }
    defaultFaces
    {
        type            empty;
    }
}


// ************************************************************************* //
