/*--------------------------------*- C++ -*----------------------------------*\
  =========                 |
  \\      /  F ield         | OpenFOAM: The Open Source CFD Toolbox
   \\    /   O peration     | Website:  https://openfoam.org
    \\  /    A nd           | Version:  6.0
     \\/     M anipulation  |
\*---------------------------------------------------------------------------*/
FoamFile
{
    version     2.0;
    format      ascii;
    class       surfaceScalarField;
    location    "2.5";
    object      phi;
}
// * * * * * * * * * * * * * * * * * * * * * * * * * * * * * * * * * * * * * //

dimensions      [1 0 -1 0 0 0 0];

internalField   nonuniform List<scalar> 
8300
(
0.000641778
7.03368e-09
0.000200884
0.000568691
2.49575e-08
7.30698e-05
0.000529144
7.5307e-08
3.94523e-05
0.000466219
1.48368e-07
6.27643e-05
0.000383383
2.44008e-07
8.25369e-05
0.000267018
2.02512e-07
0.00011631
0.000423739
2.31067e-06
-0.000159704
0.000324833
3.41691e-06
9.49388e-05
0.000350235
0.000131967
-0.000156581
0.000107116
0.000242946
0.000641752
3.96598e-08
0.000200885
0.000568661
5.16026e-08
7.30686e-05
0.000529149
1.97951e-07
3.93796e-05
0.000466109
3.96238e-07
6.27843e-05
0.00038247
8.09487e-07
8.30565e-05
0.000268356
2.13506e-06
0.000112177
0.000415639
6.76771e-06
-0.000151717
0.000308935
2.5741e-05
8.47257e-05
0.000374589
0.000116758
-5.00364e-05
0.000171121
0.000308747
0.000641885
7.17072e-08
0.000200761
0.000568581
8.71991e-08
7.32647e-05
0.000529493
3.21268e-07
3.89621e-05
0.000466641
6.44622e-07
6.25982e-05
0.000383615
1.30216e-06
8.25371e-05
0.000268697
3.33884e-06
0.000113608
0.000419058
9.50959e-06
-0.000152639
0.000312579
2.6368e-05
0.00010625
0.000350024
0.000172976
-9.49517e-05
0.000264492
0.000255112
0.000642111
1.0136e-07
0.00020054
0.000568461
1.31394e-07
7.36047e-05
0.000530016
4.67873e-07
3.82948e-05
0.000467404
9.36136e-07
6.23161e-05
0.000384942
1.84739e-06
8.19215e-05
0.00026878
4.4007e-06
0.000114991
0.0004225
1.29876e-05
-0.00015595
0.00031295
3.29168e-05
0.000102384
0.000326056
0.000289108
-0.000130323
0.000390289
0.000199675
0.000642389
1.48066e-07
0.000200253
0.000568288
1.8635e-07
7.40435e-05
0.000530698
6.74614e-07
3.7379e-05
0.000468265
1.34421e-06
6.20187e-05
0.000385915
2.62604e-06
8.15738e-05
0.000269009
6.17306e-06
0.000115059
0.000418875
1.78205e-05
-0.00015463
0.000308538
4.53972e-05
9.82299e-05
0.000319059
0.000392439
-0.000114709
0.000536981
0.000172075
0.000642796
2.10987e-07
0.000199833
0.000568034
2.77382e-07
7.46713e-05
0.000531646
9.81685e-07
3.60739e-05
0.000469408
1.91428e-06
6.16591e-05
0.000387128
3.6425e-06
8.12555e-05
0.000270085
8.35151e-06
0.000114845
0.000418228
2.43521e-05
-0.000155077
0.000306607
6.28033e-05
9.46051e-05
0.00030406
0.000521461
-0.000127115
0.000696047
0.000144882
0.000643282
3.10765e-07
0.000199315
0.000567662
4.46283e-07
7.5453e-05
0.000532791
1.42287e-06
3.44192e-05
0.000470849
2.64425e-06
6.12016e-05
0.000388753
4.88424e-06
8.08383e-05
0.000272224
1.14199e-05
0.000113467
0.000419396
3.30963e-05
-0.000156296
0.000303153
8.62851e-05
9.30128e-05
0.000292578
0.000667382
-0.000136019
0.000872396
0.000116179
0.000643702
4.05601e-07
0.000198912
0.000567095
6.89366e-07
7.63611e-05
0.000533888
1.84689e-06
3.27731e-05
0.000473115
3.32637e-06
6.00781e-05
0.000394095
5.78136e-06
7.81052e-05
0.000271859
1.21173e-05
0.000121543
0.000414214
3.77882e-05
-0.000147902
0.000296439
9.52403e-05
0.000109387
0.000279228
0.000826084
-0.000141991
0.00106899
8.25895e-05
0.000643695
5.26868e-07
0.000198898
0.000566343
8.91518e-07
7.71495e-05
0.000534361
2.37559e-06
3.14409e-05
0.000474755
4.25375e-06
5.86656e-05
0.000396253
7.42366e-06
7.68397e-05
0.000279991
1.59361e-05
0.000112428
0.000399809
5.00979e-05
-0.000132212
0.000295606
0.000127519
7.20079e-05
0.00026858
0.00100651
-0.000154005
0.00130373
3.37581e-05
0.000643762
0.000198805
6.86379e-07
0.000565358
7.82476e-05
1.04806e-06
0.000535118
2.96959e-05
2.9065e-06
0.000477484
5.6773e-05
5.10057e-06
0.00040181
7.40631e-05
9.01494e-06
0.000290894
0.000107231
1.95949e-05
0.000380722
-0.000106031
6.63346e-05
0.000296578
5.05542e-05
0.000160971
0.000260229
-0.000196325
0.00123853
-6.32001e-05
0.00162697
0.000903067
1.61283e-08
0.000137353
0.000858775
6.29643e-08
0.000117295
0.000787617
1.72024e-07
0.00011043
0.000756575
4.2025e-07
9.33721e-05
0.000754887
9.74038e-07
8.32041e-05
0.00078342
2.46144e-06
8.53599e-05
0.000555115
6.51665e-06
6.22992e-05
0.000598535
2.79899e-05
2.35981e-05
-8.67206e-05
0.000301701
0.000224698
0.000155193
-7.08436e-07
0.000903053
6.25086e-08
0.000137338
0.000858752
1.58961e-07
0.00011727
0.000787505
3.86289e-07
0.000110405
0.000756517
8.9801e-07
9.32838e-05
0.0007555
2.04523e-06
8.29786e-05
0.000780972
4.76751e-06
8.43967e-05
0.000562187
1.26286e-05
6.0884e-05
0.000620334
4.24551e-05
1.20853e-05
0.00037865
0.000381753
0.000109513
0.000628283
0.000211521
0.000902988
1.11189e-07
0.00013728
0.000858941
2.70608e-07
0.000117197
0.000787246
6.3526e-07
0.000110403
0.000756125
1.44341e-06
9.31641e-05
0.000754796
3.22873e-06
8.26797e-05
0.00078175
7.4441e-06
8.39099e-05
0.000562895
1.89309e-05
5.96834e-05
0.000629082
6.80447e-05
1.42468e-05
0.000236018
0.000625615
5.2859e-05
0.000993807
0.000123463
0.00090287
1.59204e-07
0.000137178
0.000859251
4.03019e-07
0.000117089
0.000786771
9.50606e-07
0.000110455
0.000755366
2.1435e-06
9.30128e-05
0.000753465
4.73455e-06
8.23058e-05
0.000781475
1.08806e-05
8.35024e-05
0.00055723
2.75232e-05
5.95686e-05
0.000618646
9.60589e-05
1.26347e-05
0.000224159
0.000887825
5.44385e-07
0.00133745
7.95068e-05
0.000902706
2.37149e-07
0.00013703
0.000859581
6.0151e-07
0.000116969
0.000785939
1.39958e-06
0.000110568
0.000754191
3.09003e-06
9.28113e-05
0.000752018
6.69447e-06
8.17879e-05
0.000779958
1.51881e-05
8.27419e-05
0.000554977
3.82958e-05
5.93899e-05
0.000609347
0.000131041
8.86159e-06
0.000238336
0.00117391
-3.13321e-05
0.00171087
3.67224e-05
0.000902458
3.69857e-07
0.000136805
0.000859942
9.50034e-07
0.000116837
0.000784547
2.09214e-06
0.00011077
0.000752403
4.36685e-06
9.25153e-05
0.000750172
9.16402e-06
8.10085e-05
0.000777951
2.06174e-05
8.15906e-05
0.000549955
5.19337e-05
5.91658e-05
0.000598886
0.000171708
5.09837e-06
0.000230037
0.00147317
-5.92225e-05
0.00208429
1.45535e-06
0.000902074
7.29509e-07
0.000136445
0.00086013
1.62165e-06
0.000116722
0.000782641
3.07047e-06
0.000110923
0.000750289
5.89006e-06
9.20174e-05
0.000748317
1.20416e-05
7.99139e-05
0.000775765
2.66265e-05
7.99861e-05
0.000544104
6.87037e-05
5.85478e-05
0.000589199
0.000216046
3.66653e-06
0.000221217
0.00178598
-8.25937e-05
0.00245192
-3.02974e-05
0.000902433
1.17165e-06
0.000135605
0.000861488
2.44573e-06
0.000116477
0.000783003
4.24041e-06
0.00011008
0.000750048
7.65367e-06
9.12559e-05
0.000745964
1.5264e-05
7.89583e-05
0.000780377
3.45118e-05
7.91884e-05
0.000553747
8.97606e-05
5.75498e-05
0.000596985
0.000277691
4.78841e-06
0.000228896
0.00211647
-0.000106315
0.00282501
-6.18257e-05
0.000903996
1.48054e-06
0.000134171
0.000864488
3.10859e-06
0.000115986
0.000786182
5.36035e-06
0.000108616
0.000752735
9.54405e-06
9.02068e-05
0.000748212
1.88895e-05
7.77121e-05
0.000776469
4.25452e-05
7.60998e-05
0.000566477
0.000112928
5.45207e-05
0.000589484
0.000337229
-1.0463e-05
0.000243498
0.00244689
-0.000140319
0.00319605
-9.41718e-05
0.000905673
0.000132419
1.78286e-06
0.000868051
0.000115379
3.58825e-06
0.000790231
0.000106744
6.11792e-06
0.000756728
8.8879e-05
1.09214e-05
0.000752102
7.61526e-05
2.13983e-05
0.000781873
7.25423e-05
4.74165e-05
0.000613511
4.94997e-05
0.000125685
0.00060321
-3.3527e-05
0.000431609
0.000274731
-0.000177099
0.00275443
-0.000131585
0.0035383
0.000915074
8.03088e-09
6.17036e-05
0.000953131
5.46863e-08
7.918e-05
0.000982993
1.75887e-07
8.03882e-05
0.00099816
4.52143e-07
7.77467e-05
0.000996896
1.11479e-06
8.33398e-05
0.000992073
2.87218e-06
8.72972e-05
0.000956804
8.07531e-06
8.94282e-05
0.00090913
3.17616e-05
3.94532e-05
0.000819173
0.000285015
2.68692e-05
0.000396106
0.000420589
0.000915056
2.38445e-08
6.16985e-05
0.00095308
1.35178e-07
7.91634e-05
0.000982901
3.83062e-07
8.03728e-05
0.000998043
9.34808e-07
7.76526e-05
0.000996739
2.24699e-06
8.31368e-05
0.000991393
5.68296e-06
8.6912e-05
0.000956242
1.57756e-05
8.8271e-05
0.000908069
5.70725e-05
3.49202e-05
0.000732294
0.000583231
-1.5577e-05
0.00109218
0.000245826
0.000915008
3.96935e-08
6.16904e-05
0.000952963
2.4034e-07
7.91342e-05
0.000982858
6.42668e-07
8.02452e-05
0.000997921
1.51668e-06
7.7512e-05
0.00099632
3.58313e-06
8.29317e-05
0.000990444
8.98998e-06
8.64491e-05
0.000953364
2.49408e-05
8.75591e-05
0.000901491
9.21985e-05
3.09668e-05
0.000610299
0.000985291
-6.06441e-05
0.00158702
0.00023713
0.00091492
5.54792e-08
6.16767e-05
0.000952762
3.83343e-07
7.91033e-05
0.000982973
9.99703e-07
7.98838e-05
0.000997918
2.28856e-06
7.72891e-05
0.000995794
5.2977e-06
8.27009e-05
0.000989171
1.31741e-05
8.5915e-05
0.000950585
3.65278e-05
8.65667e-05
0.000894427
0.000133544
2.73836e-05
0.000605209
0.00138245
-0.000110136
0.00208526
0.000184802
0.000914781
8.46859e-08
6.16552e-05
0.000952445
6.15783e-07
7.90716e-05
0.000983183
1.5192e-06
7.93064e-05
0.000998057
3.28517e-06
7.69334e-05
0.000995379
7.40097e-06
8.23487e-05
0.000987859
1.82278e-05
8.5175e-05
0.000948257
5.05269e-05
8.49477e-05
0.000885886
0.000181148
2.35621e-05
0.000585076
0.00178092
-0.000131718
0.00256026
0.000145324
0.000914554
1.53868e-07
6.1618e-05
0.00095195
1.02244e-06
7.90318e-05
0.000983653
2.18312e-06
7.83994e-05
0.000998668
4.38493e-06
7.63922e-05
0.000995409
9.78743e-06
8.18654e-05
0.000986746
2.42497e-05
8.41986e-05
0.000945863
6.76337e-05
8.28845e-05
0.000877487
0.000235018
1.9531e-05
0.000561941
0.0021889
-0.000154389
0.00301238
0.000109939
0.000914173
3.33164e-07
6.153e-05
0.000951241
1.7082e-06
7.89632e-05
0.000984591
2.6148e-06
7.71384e-05
0.000999926
5.42568e-06
7.56335e-05
0.000995881
1.25138e-05
8.12133e-05
0.000985649
3.15337e-05
8.28976e-05
0.000942788
8.8697e-05
8.02722e-05
0.000867848
0.00029819
1.53456e-05
0.000542058
0.00260236
-0.000173042
0.00344512
7.77924e-05
0.000913483
5.65391e-07
6.13281e-05
0.000950418
2.46187e-06
7.87778e-05
0.000983266
3.45601e-06
7.63887e-05
0.000998
6.84848e-06
7.50889e-05
0.000993524
1.57995e-05
8.01276e-05
0.000983165
4.02328e-05
8.08017e-05
0.000937985
0.000114213
7.70977e-05
0.000858654
0.000371721
1.04507e-05
0.000525298
0.00302294
-0.000196353
0.00385877
4.86373e-05
0.000912468
7.33596e-07
6.09774e-05
0.000949342
3.07444e-06
7.8485e-05
0.000981705
4.25058e-06
7.54535e-05
0.000996045
8.38497e-06
7.43181e-05
0.00099169
1.93356e-05
7.85054e-05
0.000980584
4.92902e-05
7.80974e-05
0.000936228
0.000141217
7.17781e-05
0.000850331
0.000445363
1.64955e-06
0.000515273
0.00343506
-0.000220175
0.00426399
1.47016e-05
0.000911213
6.05262e-05
8.61957e-07
0.000948058
7.81161e-05
3.47162e-06
0.0009799
7.43554e-05
4.79026e-06
0.000994127
7.3413e-05
9.60918e-06
0.000991048
7.65709e-05
2.1966e-05
0.00098301
7.47037e-05
5.51082e-05
0.000950285
6.50511e-05
0.000158299
0.000852861
-1.13064e-05
0.000520378
0.000487855
-0.000250768
0.00387095
-3.73895e-05
0.00465638
0.000887841
2.4875e-09
1.35339e-05
0.000922898
4.02061e-08
4.40813e-05
0.000959987
1.45434e-07
4.3152e-05
0.000985594
3.8725e-07
5.1748e-05
0.0010206
1.02869e-06
4.72979e-05
0.00105739
2.80134e-06
4.76958e-05
0.00108523
8.18394e-06
5.3357e-05
0.00106175
3.2622e-05
3.05226e-05
0.00080451
0.000309731
-2.99723e-05
0.000855476
0.000367156
0.000887826
4.76927e-09
1.35444e-05
0.000922852
1.01352e-07
4.40753e-05
0.000960056
2.78183e-07
4.30333e-05
0.000985658
7.71719e-07
5.16623e-05
0.0010205
2.10223e-06
4.72101e-05
0.00105683
5.78209e-06
4.75925e-05
0.00108347
1.69548e-05
5.28215e-05
0.00105557
6.71933e-05
2.84497e-05
0.000629623
0.0007702
-5.42931e-05
0.00151141
0.000217208
0.000887784
6.35528e-09
1.35789e-05
0.000922767
1.93618e-07
4.40581e-05
0.000960001
4.28382e-07
4.28593e-05
0.000985571
1.21855e-06
5.14912e-05
0.00102019
3.3585e-06
4.70483e-05
0.0010557
9.27214e-06
4.74277e-05
0.00108079
2.73354e-05
5.20708e-05
0.00104325
0.000110684
2.51311e-05
0.000546238
0.00128231
-7.9969e-05
0.00212615
0.00016642
0.000887699
8.70395e-09
1.365e-05
0.000922643
3.31094e-07
4.40202e-05
0.000959595
6.84164e-07
4.26752e-05
0.000985071
1.82217e-06
5.12052e-05
0.00101945
4.91981e-06
4.67457e-05
0.00105398
1.35114e-05
4.71276e-05
0.0010767
3.99735e-05
5.12084e-05
0.00102945
0.000162151
2.31034e-05
0.000537745
0.00174741
-8.7852e-05
0.00270792
0.000139122
0.000887552
1.59482e-08
1.37712e-05
0.00092244
5.58537e-07
4.39539e-05
0.000959008
1.04384e-06
4.23777e-05
0.000984435
2.56751e-06
5.07568e-05
0.00101865
6.77556e-06
4.62668e-05
0.00105212
1.85497e-05
4.66467e-05
0.00107152
5.50955e-05
5.04148e-05
0.00101647
0.000219688
2.09881e-05
0.000517609
0.00221776
-0.00010732
0.00325043
0.000118838
0.000887304
3.84864e-08
1.39666e-05
0.000922121
9.27664e-07
4.38422e-05
0.000958223
1.43588e-06
4.19045e-05
0.000983782
3.29679e-06
5.00994e-05
0.00101806
8.75417e-06
4.55922e-05
0.00105041
2.43439e-05
4.6036e-05
0.00106583
7.30978e-05
4.94468e-05
0.0010023
0.000283868
1.87669e-05
0.000496373
0.00268385
-0.000118402
0.00375578
9.95089e-05
0.000886894
8.94075e-08
1.42611e-05
0.000921686
1.46611e-06
4.36261e-05
0.000957299
1.63547e-06
4.13271e-05
0.000983127
3.81648e-06
4.92813e-05
0.00101762
1.07744e-05
4.46906e-05
0.00104856
3.10297e-05
4.52367e-05
0.00105923
9.45187e-05
4.81578e-05
0.000987284
0.000355095
1.59267e-05
0.000482035
0.00315354
-0.000141135
0.00422314
9.10189e-05
0.000886236
1.59504e-07
1.46987e-05
0.00092123
2.01492e-06
4.32241e-05
0.000956465
2.00738e-06
4.0784e-05
0.000982652
4.59133e-06
4.81232e-05
0.00101643
1.32928e-05
4.38161e-05
0.00104516
3.8944e-05
4.41183e-05
0.00105102
0.000119694
4.60216e-05
0.000972484
0.000432669
1.12447e-05
0.000463281
0.00361302
-0.000150067
0.00465998
7.37713e-05
0.000885333
2.11199e-07
1.52716e-05
0.000920699
2.4507e-06
4.26674e-05
0.000955596
2.35846e-06
4.02083e-05
0.000982307
5.50714e-06
4.66866e-05
0.00101517
1.61891e-05
4.27238e-05
0.0010418
4.7636e-05
4.27359e-05
0.00104294
0.000147044
4.32269e-05
0.000958392
0.000511689
6.97864e-06
0.000460323
0.00405831
-0.000170783
0.00505039
8.32981e-05
0.000884235
1.5943e-05
2.39852e-07
0.00092011
4.19802e-05
2.689e-06
0.000954657
3.95681e-05
2.60158e-06
0.000982056
4.50242e-05
6.49048e-06
0.00101443
4.1486e-05
1.88761e-05
0.00104105
4.1168e-05
5.44968e-05
0.00104369
4.00486e-05
0.000169341
0.000954253
-4.4714e-07
0.000590008
0.00041072
-0.00027397
0.00462172
9.72692e-05
0.00532507
0.000853388
5.72668e-09
4.5896e-10
0.000897427
3.8917e-08
2.67258e-09
0.000940494
8.20013e-08
1.94081e-09
0.000991956
2.74464e-07
9.36886e-09
0.00103836
8.67382e-07
1.84498e-08
0.00108338
2.60673e-06
5.309e-08
0.00112861
7.9656e-06
1.53586e-07
0.00112668
3.218e-05
4.43014e-07
0.000763752
0.000327365
1.04943e-06
0.0011275
9.65424e-07
0.000853396
1.4723e-08
4.95615e-11
0.000897407
9.97594e-08
1.88232e-09
0.000940381
1.40167e-07
1.29093e-09
0.000991776
5.2781e-07
1.13493e-08
0.00103805
1.77316e-06
2.44442e-08
0.00108271
5.45889e-06
6.542e-08
0.00112638
1.69276e-05
1.72009e-07
0.00111641
7.04119e-05
3.47936e-07
0.000509187
0.000876164
-3.44594e-07
0.00185114
4.1774e-07
0.000853425
2.93055e-08
-1.21432e-10
0.000897381
1.97811e-07
1.99283e-09
0.000940177
2.0568e-07
-1.22943e-09
0.000991382
8.02758e-07
9.66021e-09
0.00103738
2.79393e-06
2.52955e-08
0.00108145
8.72936e-06
6.80318e-08
0.00112281
2.74692e-05
1.53849e-07
0.00110026
0.000118163
3.9178e-08
0.000453729
0.00143891
-4.74276e-07
0.00246871
3.85196e-07
0.000853488
5.19068e-08
-1.84699e-10
0.000897353
3.49692e-07
2.23414e-09
0.000939895
3.42169e-07
-2.22426e-09
0.000990728
1.16639e-06
6.45236e-09
0.00103623
4.01497e-06
1.87387e-08
0.00107943
1.25849e-05
5.02575e-08
0.00111784
4.01184e-05
1.25164e-07
0.00108541
0.000173695
9.80233e-08
0.000484385
0.00194778
7.70556e-08
0.00308957
5.66866e-07
0.000853597
8.81772e-08
-2.70413e-10
0.0008973
5.94883e-07
2.08691e-09
0.000939517
5.07197e-07
-2.072e-09
0.000989869
1.56575e-06
4.06927e-09
0.00103472
5.41198e-06
1.25215e-08
0.00107675
1.71481e-05
3.57185e-08
0.00111202
5.51387e-05
9.56743e-08
0.00107083
0.000235778
1.51661e-07
0.000454376
0.00245301
-1.79473e-07
0.00366047
3.96858e-07
0.000853775
1.41526e-07
-2.71631e-10
0.000897256
9.50815e-07
1.6171e-09
0.000939018
6.53618e-07
-1.65412e-09
0.000988772
1.90794e-06
2.46888e-09
0.00103287
6.88673e-06
7.61544e-09
0.00107362
2.23895e-05
2.34926e-08
0.00110523
7.2873e-05
7.06758e-08
0.00105531
0.000304348
1.84286e-07
0.000438937
0.00294734
-3.26771e-07
0.00419677
3.28518e-07
0.000854058
2.08034e-07
-1.46742e-10
0.000897233
1.39312e-06
1.11565e-09
0.000938492
7.28763e-07
-1.24558e-09
0.00098752
2.15964e-06
9.47609e-10
0.00103065
8.43542e-06
2.92666e-09
0.00106989
2.83464e-05
1.12876e-08
0.00109749
9.33721e-05
3.82704e-08
0.0010374
0.000380086
1.1143e-07
0.000392741
0.00344726
-3.00063e-07
0.00467854
2.91782e-07
0.000854497
2.74071e-07
1.56659e-10
0.000897275
1.82873e-06
6.89489e-10
0.000938025
7.70829e-07
-7.85447e-10
0.000985871
2.43854e-06
-1.86352e-09
0.00102782
1.0289e-05
-2.04343e-09
0.00106483
3.54158e-05
2.96137e-09
0.0010867
0.00011747
2.42771e-08
0.00101845
0.000459226
1.16421e-07
0.000386623
0.00392567
-3.07361e-07
0.0051371
2.44858e-07
0.000855086
3.24988e-07
3.98962e-10
0.000897406
2.16221e-06
1.37507e-10
0.000937619
7.76888e-07
-5.86143e-10
0.000983902
2.84248e-06
-1.63142e-09
0.00102433
1.25716e-05
-1.94806e-09
0.00105889
4.35493e-05
1.42756e-09
0.00107496
0.000144558
1.24214e-08
0.00100103
0.000539823
4.07357e-08
0.00036838
0.00438409
-1.63203e-07
0.00558726
5.02474e-08
0.000855779
4.58981e-10
3.5453e-07
0.00089764
-1.47144e-10
2.2617e-06
0.000937236
-5.9357e-10
7.61625e-07
0.000981518
-1.60521e-09
3.5843e-06
0.00102035
-2.14494e-09
1.52033e-05
0.00105399
-3.17089e-10
5.10286e-05
0.001068
3.6078e-09
0.000170523
0.000989478
3.25477e-09
0.000617585
-1.33738e-05
-6.20263e-08
0.00510951
-2.46489e-08
0.00566957
0.000853379
5.85377e-09
-1.35239e-05
0.000897434
3.99332e-08
-4.40936e-05
0.000940501
8.36729e-08
-4.31489e-05
0.000991953
2.77048e-07
-5.17214e-05
0.00103839
8.72398e-07
-4.73018e-05
0.00108345
2.61898e-06
-4.7638e-05
0.00112867
7.9974e-06
-5.30751e-05
0.00112666
3.22377e-05
-2.96106e-05
0.000763222
0.000326343
3.3621e-05
0.00112789
-0.000366146
0.000853388
1.49615e-08
-1.35368e-05
0.000897414
1.01411e-07
-4.40869e-05
0.000940387
1.41116e-07
-4.3029e-05
0.000991772
5.31068e-07
-5.16303e-05
0.00103809
1.78183e-06
-4.72072e-05
0.00108278
5.48017e-06
-4.75022e-05
0.00112644
1.69796e-05
-5.24858e-05
0.00111635
7.04615e-05
-2.76372e-05
0.000509106
0.000875008
5.37748e-05
0.0018509
-0.000215816
0.000853418
2.95233e-08
-1.35721e-05
0.000897389
1.99288e-07
-4.40682e-05
0.000940183
2.08487e-07
-4.28624e-05
0.000991372
8.06893e-07
-5.14571e-05
0.0010374
2.80022e-06
-4.70319e-05
0.00108152
8.7374e-06
-4.73174e-05
0.00112283
2.7472e-05
-5.16704e-05
0.00110017
0.000118064
-2.4783e-05
0.000453614
0.00143747
7.93017e-05
0.00246814
-0.00016545
0.000853481
5.20643e-08
-1.36432e-05
0.000897359
3.50833e-07
-4.40293e-05
0.0009399
3.44909e-07
-4.26784e-05
0.000990719
1.16976e-06
-5.11778e-05
0.00103624
4.01716e-06
-4.67295e-05
0.00107948
1.25794e-05
-4.70439e-05
0.00111788
4.00771e-05
-5.09059e-05
0.00108529
0.000173441
-2.25984e-05
0.000484242
0.00194636
8.80243e-05
0.003089
-0.000138153
0.00085359
8.82719e-08
-1.37649e-05
0.000897306
5.95687e-07
-4.39622e-05
0.000939522
5.09295e-07
-4.23807e-05
0.000989863
1.56788e-06
-5.07369e-05
0.00103473
5.41119e-06
-4.62583e-05
0.00107678
1.71354e-05
-4.65949e-05
0.00111206
5.50786e-05
-5.02076e-05
0.00107075
0.000235498
-2.05453e-05
0.000454377
0.00245215
0.000106328
0.00366023
-0.000118393
0.00085377
1.41574e-07
-1.39615e-05
0.000897261
9.51264e-07
-4.38498e-05
0.000939023
6.55459e-07
-4.19073e-05
0.000988768
1.90983e-06
-5.00862e-05
0.00103288
6.88603e-06
-4.55932e-05
0.00107365
2.23785e-05
-4.60084e-05
0.00110528
7.28227e-05
-4.93341e-05
0.00105529
0.000304119
-1.83928e-05
0.000438455
0.00294676
0.000117946
0.00419674
-9.95728e-05
0.000854053
2.08062e-07
-1.42566e-05
0.000897238
1.39343e-06
-4.3633e-05
0.000938496
7.3025e-07
-4.13295e-05
0.000987518
2.16092e-06
-4.92732e-05
0.00103066
8.43482e-06
-4.46979e-05
0.00106991
2.83385e-05
-4.52283e-05
0.00109752
9.33366e-05
-4.81116e-05
0.00103743
0.000379943
-1.57907e-05
0.000392217
0.00344688
0.000140891
0.00467871
-9.11897e-05
0.000854493
2.74103e-07
-1.46948e-05
0.000897279
1.82912e-06
-4.32302e-05
0.00093803
7.71939e-07
-4.0786e-05
0.00098588
2.44023e-06
-4.81325e-05
0.00102783
1.02906e-05
-4.3825e-05
0.00106485
3.54158e-05
-4.4126e-05
0.00108674
0.00011746
-4.60246e-05
0.0010185
0.000459164
-1.11056e-05
0.000385884
0.00392555
0.000149988
0.00513726
-7.40499e-05
0.000855084
3.25056e-07
-1.52689e-05
0.000897409
2.16276e-06
-4.26725e-05
0.000937623
7.77924e-07
-4.02102e-05
0.000983912
2.84426e-06
-4.66953e-05
0.00102434
1.25743e-05
-4.27323e-05
0.0010589
4.35533e-05
-4.27372e-05
0.00107498
0.000144563
-4.32274e-05
0.00100108
0.000539823
-6.99549e-06
0.000368122
0.00438412
0.000170636
0.00558743
-8.34895e-05
0.000855778
-1.5941e-05
3.54622e-07
0.000897643
-4.19845e-05
2.26235e-06
0.00093724
-3.95702e-05
7.62727e-07
0.000981526
-4.50321e-05
3.58617e-06
0.00102036
-4.14939e-05
1.52063e-05
0.001054
-4.11688e-05
5.1034e-05
0.00106802
-4.00514e-05
0.000170533
0.000989524
3.93242e-07
0.000617608
-1.33993e-05
0.00027384
0.00510963
-9.74001e-05
0.00566976
0.00088786
3.53349e-09
-6.17126e-05
0.000922925
4.4734e-08
-7.92053e-05
0.000960034
1.52366e-07
-8.0412e-05
0.000985686
3.95152e-07
-7.77725e-05
0.00102067
1.03903e-06
-8.33283e-05
0.00105756
2.82239e-06
-8.73709e-05
0.00108555
8.24803e-06
-8.93327e-05
0.00106224
3.29114e-05
-3.89982e-05
0.000804997
0.000308008
-2.1471e-05
0.000856684
-0.000420338
0.000887843
5.89408e-09
-6.17074e-05
0.000922876
1.06711e-07
-7.9184e-05
0.000960109
2.84268e-07
-8.0396e-05
0.000985772
7.85707e-07
-7.76876e-05
0.00102062
2.13217e-06
-8.31555e-05
0.00105703
5.85166e-06
-8.69559e-05
0.00108389
1.71545e-05
-8.82794e-05
0.0010555
6.77868e-05
-3.39248e-05
0.000628332
0.000766823
1.79217e-05
0.0015103
-0.000243433
0.000887799
7.21206e-09
-6.16976e-05
0.000922791
1.98054e-07
-7.91536e-05
0.000960026
4.38046e-07
-8.02527e-05
0.000985655
1.23556e-06
-7.75399e-05
0.0010203
3.38924e-06
-8.29414e-05
0.00105596
9.33033e-06
-8.6476e-05
0.00108125
2.74328e-05
-8.72568e-05
0.00104295
0.000110438
-2.90494e-05
0.000545337
0.00127726
6.21946e-05
0.00212402
-0.00023603
0.000887712
9.39967e-09
-6.16825e-05
0.000922665
3.34996e-07
-7.91216e-05
0.000959616
6.92838e-07
-7.98857e-05
0.000985136
1.8354e-06
-7.73026e-05
0.00101954
4.93676e-06
-8.26881e-05
0.00105421
1.3525e-05
-8.59311e-05
0.00107707
3.9928e-05
-8.62748e-05
0.00102909
0.00016141
-2.56395e-05
0.000537903
0.00174384
0.000108304
0.00270632
-0.000184195
0.000887563
1.63604e-08
-6.16602e-05
0.000922459
5.61729e-07
-7.90879e-05
0.000959027
1.05057e-06
-7.93077e-05
0.000984484
2.57608e-06
-7.69405e-05
0.0010187
6.78108e-06
-8.23302e-05
0.00105228
1.85352e-05
-8.52089e-05
0.00107176
5.49755e-05
-8.47556e-05
0.00101624
0.000218874
-2.25716e-05
0.000517387
0.0022155
0.000129424
0.00324986
-0.000146185
0.000887315
3.85652e-08
-6.16228e-05
0.000922138
9.29499e-07
-7.90455e-05
0.000958241
1.4415e-06
-7.84028e-05
0.000983821
3.30403e-06
-7.64003e-05
0.00101809
8.75905e-06
-8.18568e-05
0.0010505
2.43333e-05
-8.42348e-05
0.00106597
7.30109e-05
-8.28699e-05
0.00100229
0.00028332
-1.92881e-05
0.000495834
0.00268234
0.000153751
0.00375561
-0.000111048
0.000886903
8.92054e-08
-6.15347e-05
0.0009217
1.46724e-06
-7.8975e-05
0.000957315
1.63968e-06
-7.71415e-05
0.000983159
3.82276e-06
-7.56408e-05
0.00101763
1.07791e-05
-8.12074e-05
0.00104862
3.10216e-05
-8.29318e-05
0.00105931
9.44483e-05
-8.02803e-05
0.000987377
0.000354706
-1.54008e-05
0.00048158
0.00315263
0.000172798
0.00422332
-7.88839e-05
0.000886245
1.59404e-07
-6.13328e-05
0.000921242
2.01655e-06
-7.87884e-05
0.000956479
2.01092e-06
-7.63918e-05
0.000982657
4.59618e-06
-7.50879e-05
0.00101642
1.32983e-05
-8.0128e-05
0.00104519
3.8949e-05
-8.08509e-05
0.00105108
0.00011969
-7.72021e-05
0.000972656
0.000432602
-1.07734e-05
0.000463003
0.00361271
0.000196172
0.00466042
-4.95642e-05
0.00088534
2.11421e-07
-6.09825e-05
0.000920709
2.45272e-06
-7.84935e-05
0.000955608
2.362e-06
-7.54572e-05
0.000982312
5.51284e-06
-7.43216e-05
0.00101518
1.61983e-05
-7.8517e-05
0.00104182
4.76526e-05
-7.81292e-05
0.00104299
0.000147077
-7.18408e-05
0.000958548
0.000511759
-1.93161e-06
0.000459926
0.0040584
0.00022023
0.00505102
-1.5584e-05
0.000884242
-6.05309e-05
2.40233e-07
0.00092012
-7.81232e-05
2.69117e-06
0.000954668
-7.43591e-05
2.60531e-06
0.000982062
-7.3417e-05
6.49642e-06
0.00101444
-7.65823e-05
1.88861e-05
0.00104108
-7.47278e-05
5.4516e-05
0.00104374
-6.50809e-05
0.000169382
0.000954375
1.11511e-05
0.000590091
0.000410172
0.000251007
0.00462214
3.66493e-05
0.00532567
0.000915107
1.38294e-08
-0.000137401
0.00095318
6.62914e-08
-0.000117347
0.000983025
1.90472e-07
-0.00011045
0.000998229
4.66864e-07
-9.34503e-05
0.000997136
1.12398e-06
-8.33715e-05
0.000992161
2.8553e-06
-8.52709e-05
0.000958319
8.06294e-06
-6.36062e-05
0.000908521
3.2555e-05
-2.17373e-05
0.000825204
0.00029172
-0.000232745
0.000398958
3.91291e-06
0.000915084
2.76724e-08
-0.000137372
0.000953123
1.45467e-07
-0.000117305
0.000982937
4.00286e-07
-0.000110423
0.000998116
9.6205e-07
-9.33682e-05
0.000996948
2.29483e-06
-8.31717e-05
0.000991851
5.78993e-06
-8.48144e-05
0.000958105
1.60917e-05
-6.26124e-05
0.000908056
5.89892e-05
-1.03191e-05
0.000729975
0.000577759
-9.27641e-05
0.00109039
-0.000206903
0.000915032
4.15313e-08
-0.00013731
0.000953002
2.4781e-07
-0.000117228
0.000982908
6.59469e-07
-0.000110422
0.00099802
1.55039e-06
-9.32474e-05
0.000996581
3.65451e-06
-8.28755e-05
0.000990985
9.1656e-06
-8.42766e-05
0.000956286
2.53559e-05
-6.18439e-05
0.000902029
9.1587e-05
-7.42173e-06
0.000607707
0.000977374
-4.58135e-05
0.00158151
-0.000121281
0.000914943
5.77441e-08
-0.000137208
0.000952797
3.90941e-07
-0.000117121
0.000983021
1.01501e-06
-0.00011047
0.000998025
2.31646e-06
-9.30798e-05
0.000996078
5.34936e-06
-8.24498e-05
0.000989573
1.32783e-05
-8.35573e-05
0.000952726
3.6695e-05
-6.07883e-05
0.000894366
0.000132437
-8.16907e-06
0.000602292
0.00137923
-4.30086e-06
0.00208387
-8.59843e-05
0.000914802
8.70212e-08
-0.000137057
0.000952476
6.23001e-07
-0.000116997
0.000983224
1.53189e-06
-0.000110578
0.000998149
3.30552e-06
-9.28622e-05
0.000995607
7.4318e-06
-8.1886e-05
0.000987997
1.82691e-05
-8.26137e-05
0.000949465
5.05423e-05
-6.01056e-05
0.000885897
0.000179938
-6.56448e-06
0.000582625
0.0017779
3.12323e-05
0.00256082
-4.21193e-05
0.000914572
1.54906e-07
-0.000136827
0.000951977
1.02661e-06
-0.000116859
0.000983685
2.1928e-06
-0.000110777
0.000998735
4.40092e-06
-9.25545e-05
0.000995561
9.8128e-06
-8.108e-05
0.000986793
2.42886e-05
-8.15135e-05
0.000946242
6.76778e-05
-5.94826e-05
0.000877535
0.000234608
-5.33206e-06
0.000561103
0.00218681
5.84841e-05
0.00301327
-3.91529e-06
0.000914189
3.33122e-07
-0.000136465
0.000951264
1.71041e-06
-0.000116741
0.000984621
2.62152e-06
-0.000110931
0.000999981
5.43745e-06
-9.20467e-05
0.000995997
1.25329e-05
-7.99635e-05
0.000985649
3.1561e-05
-7.98902e-05
0.000943004
8.87051e-05
-5.871e-05
0.000867923
0.000297682
-3.49799e-06
0.000542295
0.00260115
8.13134e-05
0.00344661
2.86346e-05
0.000913497
5.6641e-07
-0.000135626
0.000950439
2.46555e-06
-0.000116495
0.000983291
3.46242e-06
-0.000110089
0.000998046
6.85793e-06
-9.12734e-05
0.000993601
1.5812e-05
-7.89825e-05
0.000983048
4.02433e-05
-7.90296e-05
0.000937667
0.00011423
-5.74395e-05
0.000858614
0.000371994
-6.16412e-06
0.000526031
0.0030225
0.000104659
0.00386027
6.14231e-05
0.00091248
7.34996e-07
-0.000134189
0.000949359
3.07874e-06
-0.000115999
0.000981727
4.25753e-06
-0.000108626
0.000996078
8.39642e-06
-9.02223e-05
0.000991732
1.93553e-05
-7.77399e-05
0.000980592
4.93283e-05
-7.61239e-05
0.00093632
0.000141309
-5.47185e-05
0.000850417
0.000445629
1.01929e-05
0.000516729
0.00343518
0.000138518
0.00426504
9.50425e-05
0.000911224
-0.000132435
8.63405e-07
0.000948074
-0.00011539
3.47582e-06
0.00097992
-0.000106752
4.79713e-06
0.000994156
-8.88913e-05
9.62042e-06
0.000991089
-7.61763e-05
2.19859e-05
0.000983064
-7.25813e-05
5.5148e-05
0.000950508
-4.9683e-05
0.00015839
0.000852984
3.36096e-05
0.000520512
0.000489296
0.000175281
0.00387191
0.000132469
0.00465709
0.000903134
3.20685e-08
-0.000201014
0.000858575
8.18037e-08
-7.28729e-05
0.000787735
1.94368e-07
-3.98106e-05
0.000756859
4.4827e-07
-6.30333e-05
0.000755862
1.02374e-06
-8.3416e-05
0.000781179
2.42572e-06
-0.000113029
0.000564979
6.5315e-06
0.000145965
0.000598073
2.92223e-05
-8.41073e-05
-9.60679e-05
0.000322783
0.000136442
0.000169851
-0.000263241
0.000903101
6.96766e-08
-0.000200957
0.00085866
1.7311e-07
-7.29586e-05
0.000787649
4.0688e-07
-3.96309e-05
0.000756734
9.27755e-07
-6.29437e-05
0.000755657
2.09165e-06
-8.31799e-05
0.000781372
4.90736e-06
-0.000113029
0.000572224
1.26541e-05
0.000140315
0.000624278
4.58987e-05
-7.9051e-05
0.000404055
0.000384556
6.34904e-05
0.00062526
-0.000260147
0.000903029
1.13017e-07
-0.000200828
0.000858849
2.79421e-07
-7.31579e-05
0.000787399
6.55528e-07
-3.92264e-05
0.00075635
1.48568e-06
-6.27668e-05
0.000755072
3.32145e-06
-8.28487e-05
0.000780936
7.74149e-06
-0.000112987
0.000569648
1.98488e-05
0.00014223
0.000626313
6.73884e-05
-8.57018e-05
0.000256509
0.000624839
8.20721e-05
0.000985665
-0.000226363
0.000902912
1.6348e-07
-0.000200615
0.000859137
4.13061e-07
-7.34841e-05
0.000786919
9.71532e-07
-3.85733e-05
0.000755647
2.18643e-06
-6.25184e-05
0.000754138
4.82675e-06
-8.24676e-05
0.000780113
1.11392e-05
-0.000112931
0.00056451
2.81629e-05
0.000146525
0.000619764
9.67939e-05
-9.28289e-05
0.000241366
0.000891916
0.000105062
0.00133817
-0.000197325
0.000902743
2.43247e-07
-0.000200323
0.000859473
6.12184e-07
-7.39295e-05
0.00078608
1.42014e-06
-3.76398e-05
0.000754476
3.13093e-06
-6.22123e-05
0.000752819
6.78146e-06
-8.22013e-05
0.000778078
1.53572e-05
-0.000112108
0.000558271