1.275 	2.15223e-18 	-2.76991e-20 	-0.0329337 	-0.000495595 	-2.02025e-22
1.825 	2.15223e-18 	-1.39322e-20 	-0.00727264 	-0.00289069 	1.81278e-21
2.375 	2.15223e-18 	-2.66896e-23 	0.122483 	-0.00344649 	-7.55137e-22
