1.45 	0 	0 	-0.306827
2.35 	0 	0 	-0.119353
