/*--------------------------------*- C++ -*----------------------------------*\
  =========                 |
  \\      /  F ield         | OpenFOAM: The Open Source CFD Toolbox
   \\    /   O peration     | Website:  https://openfoam.org
    \\  /    A nd           | Version:  6.0
     \\/     M anipulation  |
\*---------------------------------------------------------------------------*/
FoamFile
{
    version     2.0;
    format      ascii;
    class       volVectorField;
    location    "102";
    object      U;
}
// * * * * * * * * * * * * * * * * * * * * * * * * * * * * * * * * * * * * * //

dimensions      [0 1 -1 0 0 0 0];

internalField   nonuniform List<vector> 
34500
(
(0.999994 2.36764e-05 -4.64449e-17)
(0.999953 5.96899e-06 -8.15934e-18)
(0.999871 -3.27114e-05 1.4266e-16)
(0.999755 -0.000104617 -1.08015e-16)
(0.999616 -0.000218864 3.37114e-17)
(0.999467 -0.000381333 -1.01898e-16)
(0.99932 -0.000597646 -1.01381e-16)
(0.99919 -0.000871384 8.71725e-17)
(0.999091 -0.00120287 1.07682e-16)
(0.999032 -0.00159703 -6.86399e-16)
(0.999025 -0.00205334 -1.04672e-15)
(0.999066 -0.00264888 1.28036e-16)
(0.999167 -0.00329453 4.39073e-16)
(1.00006 -0.0047313 -2.11442e-16)
(0.986447 -0.0122413 8.372e-17)
(0.999986 7.28241e-05 3.25265e-17)
(0.999908 2.95462e-05 9.79106e-17)
(0.999759 -5.18868e-05 7.19819e-17)
(0.999549 -0.000191214 -3.03242e-16)
(0.9993 -0.000404497 -5.07754e-16)
(0.999034 -0.0007038 -5.52775e-17)
(0.998774 -0.00110006 2.56627e-16)
(0.998547 -0.00159958 -6.80419e-16)
(0.998376 -0.00220026 -1.7957e-16)
(0.998283 -0.00290791 6.85404e-16)
(0.998285 -0.00371085 1.27055e-15)
(0.998394 -0.00474154 -6.34494e-16)
(0.998483 -0.00580528 -9.95643e-16)
(1.0006 -0.00785927 -4.03266e-16)
(0.986534 -0.0156352 5.661e-16)
(0.999981 0.000121591 1.04934e-17)
(0.999905 5.92283e-05 -1.23262e-16)
(0.99977 -3.78642e-05 -1.25558e-16)
(0.999585 -0.000184236 4.57223e-16)
(0.999369 -0.000392439 -2.87024e-17)
(0.999141 -0.00067423 -1.64639e-16)
(0.998921 -0.00104061 9.82033e-17)
(0.998729 -0.00149973 3.86374e-16)
(0.998588 -0.00204942 2.77929e-19)
(0.998518 -0.00269669 -3.95242e-16)
(0.998529 -0.00342238 -7.32878e-16)
(0.998663 -0.00435696 4.17205e-16)
(0.998583 -0.00531889 2.27499e-16)
(1.00091 -0.00698015 1.67852e-16)
(0.991499 -0.0116828 -2.62948e-16)
(0.999974 0.000169737 -1.73977e-17)
(0.999904 8.79028e-05 -9.04904e-18)
(0.999789 -2.39579e-05 4.84717e-17)
(0.999634 -0.000175128 -3.0642e-16)
(0.999458 -0.000374287 3.73574e-16)
(0.999276 -0.000632537 3.31205e-16)
(0.999103 -0.000959656 -4.01116e-16)
(0.998955 -0.00136511 -4.21763e-16)
(0.998849 -0.00184771 4.37082e-16)
(0.998802 -0.00241768 -4.73073e-16)
(0.998815 -0.00305613 -2.45976e-16)
(0.998959 -0.00388987 -3.88532e-16)
(0.998719 -0.00481227 5.4878e-16)
(1.00073 -0.00621976 -4.9062e-17)
(0.994038 -0.0101571 2.30724e-17)
(0.999964 0.000217922 -1.70855e-17)
(0.999892 0.000115435 1.53749e-16)
(0.999778 -1.68889e-05 6.9773e-17)
(0.999626 -0.000186702 1.70331e-16)
(0.999456 -0.000401611 4.69159e-17)
(0.999285 -0.000673534 -1.58861e-16)
(0.999124 -0.00101081 1.02945e-16)
(0.998991 -0.00142273 2.67477e-16)
(0.9989 -0.00190765 -4.19717e-16)
(0.998866 -0.00247771 -2.3229e-16)
(0.998882 -0.00311526 1.0131e-15)
(0.999045 -0.00394424 6.39575e-16)
(0.998731 -0.00492573 -2.93227e-16)
(1.00032 -0.00625019 6.04906e-16)
(0.9951 -0.00991987 -6.26035e-16)
(0.999952 0.000266566 1.83975e-17)
(0.999874 0.000143893 -9.50789e-17)
(0.999755 -9.83954e-06 -1.86926e-16)
(0.999598 -0.000202104 -5.31193e-17)
(0.999424 -0.000440625 1.09838e-16)
(0.99925 -0.000738635 -1.09283e-16)
(0.99909 -0.00110304 1.48806e-16)
(0.998961 -0.0015421 1.3179e-16)
(0.998877 -0.00205266 2.92473e-16)
(0.998855 -0.00264692 -1.00889e-16)
(0.998878 -0.00330677 2.97542e-18)
(0.999066 -0.00414725 -3.92633e-16)
(0.998742 -0.00517466 1.85475e-17)
(0.999939 -0.00641508 -4.7913e-16)
(0.995768 -0.00954752 7.87077e-17)
(0.999939 0.000315694 3.26355e-18)
(0.999857 0.000173928 -3.56888e-17)
(0.999737 8.00076e-07 -2.91116e-17)
(0.99958 -0.000210707 1.76353e-16)
(0.999408 -0.000468275 -2.21282e-16)
(0.999237 -0.000786146 2.76558e-16)
(0.999083 -0.00117002 -6.21925e-16)
(0.998962 -0.00162708 -3.7159e-16)
(0.998888 -0.0021529 -1.52382e-16)
(0.998877 -0.00275922 6.75287e-16)
(0.998906 -0.00342736 -7.73653e-16)
(0.999112 -0.00425943 3.00766e-16)
(0.998807 -0.00529641 4.62295e-16)
(0.999685 -0.00643461 -9.80579e-17)
(0.996281 -0.00906108 -1.27956e-16)
(0.999924 0.000365214 1.51538e-17)
(0.99984 0.000205079 3.2378e-17)
(0.999721 1.40115e-05 2.51078e-17)
(0.99957 -0.000214212 -1.51393e-16)
(0.999405 -0.000486919 3.30111e-16)
(0.999243 -0.000818896 -1.4016e-16)
(0.9991 -0.00121481 2.02422e-16)
(0.998992 -0.00168095 -1.4698e-16)
(0.998929 -0.00221211 3.99688e-16)
(0.998931 -0.00281983 1.78838e-16)
(0.998964 -0.00348598 2.46533e-16)
(0.999179 -0.00429927 -5.70263e-17)
(0.998904 -0.00533209 -5.11508e-16)
(0.999531 -0.00638538 1.16443e-15)
(0.996681 -0.00865675 1.97109e-16)
(0.999907 0.000415091 -1.12436e-17)
(0.999821 0.000236898 9.92349e-17)
(0.999704 2.81705e-05 1.51276e-16)
(0.999559 -0.000216594 1.12309e-16)
(0.999402 -0.000504246 -4.90525e-16)
(0.99925 -0.000849726 1.41544e-16)
(0.999119 -0.00125669 3.22139e-16)
(0.999024 -0.00173061 7.76254e-16)
(0.998974 -0.00226569 -3.87494e-16)
(0.998986 -0.00287341 9.0617e-17)
(0.999024 -0.00353725 4.52444e-16)
(0.999242 -0.00433291 -3.26851e-16)
(0.999002 -0.00535988 -1.56222e-16)
(0.999445 -0.0063525 -3.89612e-16)
(0.997014 -0.00835334 8.86447e-17)
(0.999889 0.000465313 4.07861e-17)
(0.9998 0.000269211 -8.99905e-17)
(0.999683 4.26528e-05 8.88094e-18)
(0.999543 -0.000219383 -1.10566e-16)
(0.999393 -0.000523201 4.12207e-16)
(0.999251 -0.00088362 7.99408e-17)
(0.999131 -0.00130323 2.71466e-16)
(0.999048 -0.00178666 -5.75924e-16)
(0.999009 -0.00232757 4.18188e-17)
(0.999033 -0.00293725 -7.91748e-17)
(0.999076 -0.00360125 -1.40704e-16)
(0.999292 -0.00438249 4.45556e-17)
(0.99909 -0.00540091 6.00833e-16)
(0.999403 -0.0063456 -8.2328e-16)
(0.997315 -0.00811252 -2.8381e-16)
(0.999869 0.000515859 -2.62867e-17)
(0.999776 0.000301958 3.53494e-17)
(0.99966 5.74229e-05 -1.47998e-16)
(0.999523 -0.000222493 2.50836e-16)
(0.99938 -0.000543419 -3.62972e-16)
(0.999247 -0.000919839 -3.0436e-16)
(0.999137 -0.00135322 -3.40411e-16)
(0.999065 -0.0018473 3.93054e-17)
(0.999038 -0.00239523 -8.18763e-17)
(0.999073 -0.00300786 -4.27286e-16)
(0.999121 -0.0036729 -7.26799e-16)
(0.999336 -0.00444088 2.88723e-16)
(0.99917 -0.00544521 -3.33186e-16)
(0.999393 -0.00634606 9.28666e-16)
(0.997595 -0.00790677 5.64849e-17)
(0.999848 0.000566671 -2.46143e-17)
(0.999751 0.000335046 -1.04529e-16)
(0.999634 7.24712e-05 1.51222e-16)
(0.999501 -0.000225648 -2.34997e-16)
(0.999364 -0.000564087 7.71713e-17)
(0.999239 -0.000956814 4.5614e-16)
(0.99914 -0.0014041 5.56564e-17)
(0.99908 -0.00190881 -6.77081e-17)
(0.999064 -0.00246352 1.82606e-16)
(0.999111 -0.0030785 -1.57984e-16)
(0.999166 -0.00374358 -9.58667e-17)
(0.999377 -0.00449779 -6.7462e-17)
(0.999244 -0.0054824 -2.91458e-16)
(0.999404 -0.00634198 -6.36294e-16)
(0.997852 -0.00772658 1.30162e-17)
(0.999824 0.000617678 -2.18194e-18)
(0.999724 0.000368361 1.40897e-16)
(0.999607 8.77237e-05 -2.22236e-16)
(0.999477 -0.000228741 8.37098e-17)
(0.999346 -0.000584771 -9.39391e-17)
(0.999231 -0.000993667 -1.55433e-16)
(0.999142 -0.00145447 -3.90798e-17)
(0.999094 -0.00196915 3.66987e-16)
(0.999091 -0.00252978 -6.34027e-16)
(0.999148 -0.00314587 4.23166e-16)
(0.999211 -0.0038094 2.22327e-16)
(0.999419 -0.00454921 1.86048e-16)
(0.999315 -0.00551054 7.60959e-16)
(0.999429 -0.00633289 7.47756e-16)
(0.998082 -0.00757144 5.76087e-16)
(0.999799 0.000668786 8.32355e-18)
(0.999695 0.000401766 5.30287e-17)
(0.999578 0.000103054 1.76638e-16)
(0.999452 -0.000231788 5.59747e-17)
(0.999328 -0.000605328 1.71328e-16)
(0.999221 -0.00103009 1.68802e-16)
(0.999144 -0.00150393 -1.19045e-17)
(0.999108 -0.00202792 4.95657e-17)
(0.999117 -0.0025937 9.43422e-16)
(0.999186 -0.00321 -1.14714e-16)
(0.999257 -0.00387097 5.46779e-16)
(0.999461 -0.0045967 -7.47059e-16)
(0.999381 -0.00553365 1.39162e-16)
(0.999464 -0.00632397 -1.37752e-15)
(0.998287 -0.00744286 -6.46822e-16)
(0.999773 0.000719899 9.96423e-18)
(0.999665 0.000435127 -1.1802e-16)
(0.999548 0.000118318 1.55301e-16)
(0.999425 -0.000234891 -2.24927e-16)
(0.999308 -0.000625817 1.57476e-16)
(0.999211 -0.00106615 2.0815e-17)
(0.999145 -0.00155264 1.95981e-16)
(0.999122 -0.00208556 -2.61428e-16)
(0.999142 -0.00265621 -8.44214e-16)
(0.999222 -0.00327251 2.51052e-16)
(0.999302 -0.00393081 -5.65018e-16)
(0.999502 -0.0046437 1.14036e-16)
(0.999444 -0.00555662 -4.97891e-16)
(0.999504 -0.00631961 2.72137e-16)
(0.998469 -0.00733896 -1.13818e-16)
(0.999745 0.000770908 3.33203e-17)
(0.999634 0.000468301 7.20946e-17)
(0.999516 0.00013334 -3.6014e-16)
(0.999397 -0.000238243 2.89448e-16)
(0.999288 -0.000646472 -2.81101e-16)
(0.9992 -0.00110217 -3.74648e-16)
(0.999146 -0.00160109 -3.84833e-16)
(0.999134 -0.00214282 3.39462e-16)
(0.999166 -0.00271843 7.23346e-16)
(0.999256 -0.00333507 1.64213e-16)
(0.999344 -0.00399109 9.55266e-17)
(0.999542 -0.00469273 7.08456e-17)
(0.999502 -0.00558237 -7.44556e-16)
(0.999548 -0.00632136 6.59374e-17)
(0.998633 -0.00725606 6.62981e-16)
(0.999715 0.000821719 -8.98807e-17)
(0.999601 0.000501165 -9.2665e-17)
(0.999483 0.000147955 3.43972e-17)
(0.999368 -0.00024207 -2.6532e-16)
(0.999265 -0.000667615 -1.80425e-17)
(0.999187 -0.00113861 4.83831e-16)
(0.999144 -0.00164988 5.53426e-17)
(0.999144 -0.00220047 3.05785e-16)
(0.999187 -0.00278131 -6.06653e-16)
(0.999288 -0.00339873 -3.11916e-16)
(0.999385 -0.00405293 4.48531e-16)
(0.99958 -0.00474466 -1.50776e-16)
(0.999557 -0.00561153 4.91377e-16)
(0.999596 -0.00632846 7.67987e-16)
(0.998784 -0.00718944 -6.26519e-17)
(0.999684 0.000872239 2.81577e-17)
(0.999566 0.000533611 1.15088e-17)
(0.999447 0.00016202 1.16004e-16)
(0.999336 -0.00024658 2.26639e-18)
(0.999241 -0.000689555 9.92682e-17)
(0.999172 -0.00117589 -2.90945e-16)
(0.99914 -0.00169957 6.01248e-16)
(0.999151 -0.00225914 -1.54326e-16)
(0.999205 -0.00284546 6.56614e-16)
(0.999316 -0.00346406 -3.43854e-16)
(0.999422 -0.00411668 -5.48307e-16)
(0.999616 -0.0047994 5.30473e-16)
(0.999609 -0.00564374 -8.98524e-16)
(0.999645 -0.00633968 -1.33454e-15)
(0.998927 -0.0071356 -3.44971e-16)
(0.999651 0.000922394 3.13508e-18)
(0.999529 0.00056557 1.95556e-17)
(0.99941 0.000175462 -3.13199e-17)
(0.999303 -0.000251884 1.59261e-16)
(0.999214 -0.000712473 1.09274e-16)
(0.999154 -0.0012143 -4.28662e-17)
(0.999132 -0.0017505 -3.62416e-16)
(0.999155 -0.00231918 -3.49563e-16)
(0.99922 -0.00291118 -2.36446e-16)
(0.999341 -0.00353116 4.3617e-16)
(0.999456 -0.00418217 3.38479e-16)
(0.999651 -0.00485628 -4.98878e-16)
(0.999659 -0.00567806 1.11311e-15)
(0.999697 -0.00635348 1.40624e-15)
(0.999062 -0.00709101 4.84995e-17)
(0.999617 0.000972116 3.58499e-17)
(0.999491 0.000596992 -4.7738e-17)
(0.999372 0.000188255 2.3021e-16)
(0.999267 -0.000257991 -4.5866e-17)
(0.999184 -0.00073638 -1.75129e-16)
(0.999133 -0.00125386 7.42769e-17)
(0.999121 -0.00180271 -1.30368e-16)
(0.999156 -0.0023806 2.95174e-16)
(0.999232 -0.00297833 7.76557e-17)
(0.999363 -0.0035997 5.43463e-17)
(0.999488 -0.00424877 -2.59617e-16)
(0.999684 -0.0049143 3.45443e-16)
(0.999708 -0.00571335 1.76892e-16)
(0.999751 -0.00636839 1.5937e-16)
(0.999193 -0.00705327 4.11919e-16)
(0.999581 0.00102136 -1.843e-17)
(0.999452 0.000627855 2.73276e-17)
(0.999331 0.00020043 -3.73176e-16)
(0.999228 -0.000264805 -2.38848e-16)
(0.999151 -0.000761111 3.30704e-16)
(0.999109 -0.00129433 -8.95651e-17)
(0.999108 -0.00185589 5.23461e-16)
(0.999154 -0.00244295 -1.42188e-16)
(0.999242 -0.0030463 -7.54859e-18)
(0.999382 -0.00366884 -1.51099e-16)
(0.999518 -0.00431544 3.88602e-16)
(0.999717 -0.00497209 -2.45543e-16)
(0.999756 -0.00574822 -8.10699e-16)
(0.999807 -0.00638297 -1.94467e-16)
(0.999319 -0.00702034 -4.70388e-16)
(0.999543 0.00107007 2.48102e-17)
(0.99941 0.000658139 1.12907e-16)
(0.999288 0.000212032 3.36356e-16)
(0.999188 -0.00027219 2.61151e-16)
(0.999117 -0.000786416 -3.21998e-17)
(0.999083 -0.00133536 -1.30882e-16)
(0.999092 -0.00190954 -5.79506e-16)
(0.99915 -0.00250559 -6.741e-17)
(0.999249 -0.00311426 -3.44675e-16)
(0.9994 -0.00373759 1.11755e-16)
(0.999547 -0.00438105 -7.12353e-16)
(0.99975 -0.00502849 3.44453e-16)
(0.999804 -0.00578174 1.16804e-15)
(0.999864 -0.00639663 -9.07684e-16)
(0.999441 -0.00699185 5.4822e-16)
(0.999504 0.00111821 -2.00056e-17)
(0.999368 0.000687838 -1.58867e-16)
(0.999244 0.000223114 -1.92509e-16)
(0.999146 -0.000279996 -9.60538e-17)
(0.99908 -0.000812031 -6.15395e-17)
(0.999055 -0.00137654 8.45232e-17)
(0.999075 -0.00196315 -3.23874e-17)
(0.999144 -0.00256787 -4.45082e-16)
(0.999255 -0.00318147 -1.31112e-16)
(0.999417 -0.00380514 -3.30351e-17)
(0.999575 -0.00444482 6.48446e-16)
(0.999783 -0.0050828 1.08728e-16)
(0.999852 -0.0058136 -9.71205e-16)
(0.999923 -0.00640943 5.19426e-16)
(0.999559 -0.0069677 -1.0607e-16)
(0.999464 0.00116575 1.80722e-17)
(0.999323 0.000716933 9.34104e-17)
(0.999198 0.000233705 9.26575e-17)
(0.999103 -0.000288122 1.80273e-16)
(0.999043 -0.000837762 -9.82602e-17)
(0.999026 -0.00141761 -2.76534e-17)
(0.999056 -0.00201637 1.99884e-16)
(0.999137 -0.00262942 2.98854e-16)
(0.99926 -0.00324755 -2.15693e-17)
(0.999433 -0.00387116 -3.61472e-16)
(0.999602 -0.0045066 -2.78279e-16)
(0.999817 -0.00513512 -4.90365e-16)
(0.9999 -0.00584426 2.06342e-17)
(0.999982 -0.0064222 2.68992e-16)
(0.999671 -0.00694861 -1.6581e-16)
(0.999421 0.00121267 -9.66298e-18)
(0.999277 0.000745414 -5.52792e-17)
(0.999152 0.000243825 1.40723e-16)
(0.999059 -0.000296499 1.47677e-17)
(0.999004 -0.000863482 -1.25091e-16)
(0.998996 -0.0014584 1.00917e-16)
(0.999037 -0.00206904 -4.82293e-17)
(0.999129 -0.00269014 2.75582e-16)
(0.999265 -0.00331247 5.09567e-16)
(0.999449 -0.00393576 7.9207e-17)
(0.999629 -0.0045667 2.40179e-16)
(0.99985 -0.00518596 2.45035e-16)
(0.999947 -0.00587447 6.07232e-17)
(1.00004 -0.00643575 -5.53564e-16)
(0.999778 -0.00693453 1.36704e-16)
(0.999378 0.00125892 1.29443e-17)
(0.99923 0.000773257 1.16427e-17)
(0.999103 0.000253464 -2.87495e-16)
(0.999013 -0.000305115 -1.25649e-16)
(0.998964 -0.000889151 1.76732e-16)
(0.998965 -0.00149886 -2.75999e-17)
(0.999016 -0.00212116 1.84694e-16)
(0.999121 -0.0027501 -2.45449e-16)
(0.999268 -0.00337645 1.40041e-16)
(0.999464 -0.00399935 1.1658e-16)
(0.999655 -0.00462574 1.2327e-16)
(0.999883 -0.00523609 1.57212e-16)
(0.999994 -0.00590512 2.1944e-16)
(1.0001 -0.00645092 3.1105e-17)
(0.999881 -0.00692587 8.04152e-17)
(0.999332 0.00130449 -3.98264e-17)
(0.999181 0.00080045 1.05436e-16)
(0.999054 0.000262605 1.65078e-16)
(0.998967 -0.000313982 -1.05714e-16)
(0.998924 -0.000914769 -6.87562e-17)
(0.998933 -0.001539 3.9153e-17)
(0.998995 -0.00217277 -2.01209e-16)
(0.999111 -0.00280944 -1.31744e-16)
(0.999271 -0.00343977 -1.73168e-16)
(0.999477 -0.00406233 2.75542e-16)
(0.99968 -0.00468428 -3.82834e-16)
(0.999915 -0.00528616 2.99756e-16)
(1.00004 -0.00593678 1.47414e-16)
(1.00016 -0.0064681 5.55844e-16)
(0.999979 -0.00692219 -5.17826e-16)
(0.999285 0.00134936 1.68055e-17)
(0.999131 0.000826966 -7.93602e-17)
(0.999003 0.000271215 5.8132e-17)
(0.998919 -0.000323149 1.28626e-16)
(0.998882 -0.000940393 -8.92157e-17)
(0.998899 -0.00157888 -1.50847e-16)
(0.998972 -0.00222395 -7.14574e-17)
(0.9991 -0.00286832 9.85339e-17)
(0.999272 -0.00350266 -4.5109e-16)
(0.999489 -0.00412505 6.66425e-17)
(0.999704 -0.00474277 2.54404e-16)
(0.999947 -0.00533664 -7.12707e-16)
(1.00009 -0.00596992 1.44511e-16)
(1.00022 -0.00648762 2.23256e-17)
(1.00007 -0.00692335 3.81814e-16)
(0.999237 0.00139349 -6.389e-18)
(0.999079 0.000852795 9.7267e-17)
(0.998951 0.000279256 -9.40127e-17)
(0.99887 -0.000332686 -5.83766e-17)
(0.998839 -0.000966116 -9.31498e-17)
(0.998865 -0.0016186 -4.92852e-17)
(0.998949 -0.00227481 -1.0632e-16)
(0.999088 -0.00292684 7.59545e-17)
(0.999272 -0.0035653 2.92218e-17)
(0.9995 -0.00418773 -3.12714e-16)
(0.999727 -0.00480147 -3.73639e-16)
(0.999978 -0.00538778 4.15463e-16)
(1.00013 -0.00600467 -3.64124e-16)
(1.00028 -0.0065095 -1.16776e-16)
(1.00016 -0.00692882 -1.1682e-17)
(0.999187 0.00143688 -1.93331e-17)
(0.999026 0.000877914 -4.49325e-17)
(0.998897 0.000286682 3.17508e-17)
(0.998819 -0.000342691 2.26343e-16)
(0.998795 -0.000992088 3.78161e-16)
(0.99883 -0.00165834 3.08868e-16)
(0.998924 -0.00232555 3.37643e-16)
(0.999074 -0.00298522 -2.15545e-16)
(0.99927 -0.00362789 5.65552e-20)
(0.99951 -0.00425061 2.34222e-16)
(0.999748 -0.00486064 4.61826e-17)
(1.00001 -0.00543983 2.55335e-16)
(1.00017 -0.00604126 2.06e-16)
(1.00034 -0.00653386 -5.43705e-16)
(1.00025 -0.00693836 -3.63122e-16)
(0.999136 0.00147949 9.94709e-18)
(0.998971 0.000902317 -8.12144e-17)
(0.998842 0.000293453 -1.62525e-16)
(0.998767 -0.000353265 -1.596e-16)
(0.998749 -0.00101849 1.46787e-17)
(0.998793 -0.00169834 -1.74382e-16)
(0.998897 -0.00237643 -3.79893e-16)
(0.999059 -0.00304372 2.90146e-16)
(0.999267 -0.00369069 2.36163e-16)
(0.999518 -0.00431393 -5.21324e-16)
(0.999767 -0.00492053 4.28316e-16)
(1.00004 -0.00549299 -3.12969e-16)
(1.00022 -0.00607976 -1.44845e-16)
(1.0004 -0.00656066 -1.27611e-16)
(1.00034 -0.00695134 1.54705e-16)
(0.999083 0.00152131 3.7866e-17)
(0.998915 0.000925992 1.74267e-17)
(0.998785 0.000299533 8.79048e-17)
(0.998713 -0.000364512 4.08534e-17)
(0.998701 -0.00104552 4.80895e-17)
(0.998754 -0.0017389 3.01611e-16)
(0.998868 -0.0024278 -1.36361e-16)
(0.999042 -0.00310271 1.49101e-16)
(0.999262 -0.00375407 8.56742e-17)
(0.999524 -0.00437803 5.97567e-17)
(0.999785 -0.00498143 1.99472e-16)
(1.00006 -0.00554748 -4.26246e-17)
(1.00026 -0.00612029 9.51034e-18)
(1.00046 -0.00658987 8.89986e-16)
(1.00042 -0.00696741 2.87597e-18)
(0.999029 0.00156233 -3.67547e-17)
(0.998857 0.000948943 -1.27004e-17)
(0.998726 0.000304912 5.74745e-17)
(0.998657 -0.000376493 -1.75311e-16)
(0.998651 -0.00107332 -2.80932e-16)
(0.998712 -0.00178027 -2.69305e-16)
(0.998838 -0.00247999 2.28304e-16)
(0.999023 -0.00316256 -8.35476e-17)
(0.999254 -0.00381838 9.75423e-18)
(0.999528 -0.00444318 -5.07247e-18)
(0.999802 -0.00504353 -2.75495e-16)
(1.00009 -0.00560336 -2.49615e-16)
(1.0003 -0.00616269 -1.6161e-16)
(1.00051 -0.00662111 2.47417e-17)
(1.0005 -0.00698562 -5.66834e-17)
(0.998973 0.00160253 -1.83497e-17)
(0.998797 0.000971169 4.85894e-17)
(0.998665 0.00030959 4.78286e-17)
(0.998598 -0.000389236 7.78664e-17)
(0.998599 -0.001102 1.06556e-16)
(0.998668 -0.00182262 1.68488e-18)
(0.998804 -0.00253327 2.28224e-16)
(0.999002 -0.00322356 -5.09236e-16)
(0.999245 -0.00388388 2.59905e-16)
(0.999531 -0.00450961 2.65349e-16)
(0.999817 -0.00510693 -3.80227e-16)
(1.00012 -0.00566058 7.11825e-16)
(1.00034 -0.00620676 3.76208e-16)
(1.00057 -0.00665401 -7.06107e-16)
(1.00058 -0.00700553 -2.13737e-16)
(0.998916 0.0016419 3.79463e-17)
(0.998736 0.000992684 2.9481e-17)
(0.998603 0.000313599 4.60692e-18)
(0.998538 -0.000402702 -3.4908e-17)
(0.998544 -0.00113154 2.02612e-17)
(0.998622 -0.001866 2.85996e-16)
(0.998768 -0.0025877 -4.61202e-17)
(0.998978 -0.0032858 3.26806e-16)
(0.999234 -0.00395064 -4.83853e-17)
(0.999532 -0.00457728 -2.9355e-16)
(0.99983 -0.0051715 6.08373e-16)
(1.00014 -0.00571885 -3.65957e-16)
(1.00038 -0.00625204 -4.97438e-16)
(1.00063 -0.00668796 2.11795e-16)
(1.00066 -0.00702635 3.60229e-16)
(0.998857 0.00168044 -3.15562e-17)
(0.998673 0.00101349 -1.33091e-17)
(0.998538 0.000316971 -1.73648e-16)
(0.998476 -0.000416816 -8.49053e-17)
(0.998487 -0.00116182 5.23166e-17)
(0.998573 -0.00191028 -2.88726e-16)
(0.99873 -0.00264318 -8.49237e-17)
(0.998952 -0.00334917 2.84862e-16)
(0.999221 -0.00401853 -2.41107e-16)
(0.999531 -0.00464599 7.07738e-17)
(0.999843 -0.00523693 -3.38775e-16)
(1.00017 -0.0057778 1.06895e-17)
(1.00042 -0.00629807 2.6926e-16)
(1.00068 -0.00672254 1.4272e-16)
(1.00074 -0.00704791 -5.6572e-17)
(0.998797 0.00171815 3.01043e-17)
(0.998609 0.0010336 -9.7726e-17)
(0.998473 0.000319755 8.20739e-17)
(0.998412 -0.000431464 5.37421e-17)
(0.998428 -0.00119266 -4.05394e-17)
(0.998523 -0.0019552 -1.73448e-16)
(0.99869 -0.0026994 5.26228e-17)
(0.998924 -0.00341333 -1.30595e-16)
(0.999206 -0.00408715 -2.20406e-16)
(0.99953 -0.0047153 -2.75915e-17)
(0.999855 -0.00530274 -4.89668e-16)
(1.00019 -0.00583688 5.02357e-16)
(1.00046 -0.00634431 3.91998e-17)
(1.00074 -0.00675725 -8.14721e-17)
(1.00081 -0.00706985 -8.06547e-18)
(0.998736 0.00175502 -3.69248e-17)
(0.998543 0.00105302 1.00605e-16)
(0.998406 0.000321978 -2.31219e-17)
(0.998347 -0.000446545 -2.10736e-16)
(0.998368 -0.00122385 -1.00458e-16)
(0.998471 -0.00200046 1.16761e-16)
(0.998649 -0.00275597 -1.71436e-16)
(0.998895 -0.00347784 -1.92165e-16)
(0.999191 -0.00415603 3.27322e-16)
(0.999527 -0.00478473 1.14016e-16)
(0.999867 -0.00536848 5.13836e-16)
(1.00022 -0.00589573 -3.87398e-16)
(1.0005 -0.00639053 1.39781e-16)
(1.00079 -0.00679207 -1.58517e-16)
(1.00089 -0.00709262 5.37547e-18)
(0.998674 0.00179106 2.28546e-17)
(0.998476 0.00107174 -5.82191e-17)
(0.998338 0.000323659 7.23555e-17)
(0.998281 -0.000461977 3.13999e-16)
(0.998307 -0.00125521 1.33321e-16)
(0.998418 -0.00204577 8.27569e-17)
(0.998607 -0.00281251 3.40533e-16)
(0.998865 -0.00354225 1.61947e-16)
(0.999175 -0.00422472 -2.6697e-16)
(0.999525 -0.00485386 4.55424e-16)
(0.999878 -0.00543382 2.53697e-16)
(1.00024 -0.00595414 -2.15222e-16)
(1.00054 -0.00643666 -4.13338e-16)
(1.00085 -0.00682712 -1.61798e-16)
(1.00096 -0.0071165 6.35435e-17)
(0.99861 0.0018263 4.69272e-18)
(0.998408 0.00108976 -1.24041e-16)
(0.998268 0.000324782 -9.20995e-17)
(0.998214 -0.000477748 -2.16216e-16)
(0.998246 -0.00128666 3.47518e-17)
(0.998365 -0.00209094 -3.36099e-16)
(0.998565 -0.00286876 -3.61544e-16)
(0.998835 -0.00360627 -1.45533e-16)
(0.999158 -0.00429295 3.10326e-16)
(0.999522 -0.0049225 -3.30012e-16)
(0.99989 -0.00549871 1.16916e-16)
(1.00026 -0.00601226 2.17835e-16)
(1.00058 -0.00648307 3.32011e-16)
(1.0009 -0.006863 2.04079e-16)
(1.00104 -0.0071423 1.76329e-17)
(0.998545 0.00186075 3.29869e-17)
(0.998338 0.00110708 2.02737e-16)
(0.998198 0.000325322 9.44064e-17)
(0.998146 -0.000493894 1.81516e-16)
(0.998184 -0.00131822 1.08821e-16)
(0.998312 -0.00213596 4.58921e-17)
(0.998522 -0.00292466 5.29772e-17)
(0.998805 -0.00366985 -1.21816e-16)
(0.999142 -0.0043607 -1.23631e-16)
(0.99952 -0.00499074 1.45053e-17)
(0.999901 -0.00556338 -7.9878e-16)
(1.00029 -0.00607046 -3.1274e-16)
(1.00061 -0.00653023 3.30198e-16)
(1.00095 -0.00690024 -7.41783e-17)
(1.00111 -0.00717032 -2.08986e-16)
(0.998478 0.00189446 -4.43363e-17)
(0.998267 0.00112369 -1.29922e-16)
(0.998126 0.000325226 -1.86686e-16)
(0.998077 -0.000510519 6.13617e-17)
(0.998121 -0.00135003 -2.0645e-16)
(0.998258 -0.002181 3.84735e-17)
(0.998479 -0.00298041 -4.76623e-17)
(0.998775 -0.00373321 -8.71082e-18)
(0.999125 -0.00442829 -1.4775e-16)
(0.999517 -0.00505898 -7.75657e-17)
(0.999913 -0.00562838 2.74983e-17)
(1.00031 -0.00612943 2.7163e-16)
(1.00065 -0.00657891 -1.37435e-16)
(1.00101 -0.0069396 2.73349e-16)
(1.00117 -0.00720109 9.8274e-17)
(0.998411 0.00192746 2.36968e-17)
(0.998194 0.00113963 1.24467e-16)
(0.998053 0.000324451 2.37186e-16)
(0.998007 -0.000527753 -6.85685e-17)
(0.998057 -0.00138232 -1.66437e-17)
(0.998203 -0.00222637 2.52165e-16)
(0.998435 -0.00303641 2.1456e-16)
(0.998744 -0.00379682 -1.47133e-16)
(0.999108 -0.00449625 3.94526e-16)
(0.999513 -0.00512786 3.58356e-16)
(0.999923 -0.0056944 3.8169e-16)
(1.00034 -0.00618988 -1.76592e-17)
(1.00069 -0.00662969 -3.0476e-16)
(1.00106 -0.00698147 -3.2243e-16)
(1.00124 -0.0072344 -3.16143e-17)
(0.998342 0.00195981 -2.03056e-17)
(0.99812 0.0011549 -6.57288e-17)
(0.997978 0.000322956 -1.96595e-16)
(0.997935 -0.000545741 1.26589e-16)
(0.997991 -0.00141536 1.21534e-16)
(0.998146 -0.0022725 -1.68853e-16)
(0.99839 -0.00309318 -8.52968e-17)
(0.998711 -0.00386131 8.42869e-18)
(0.999089 -0.00456529 -1.75337e-16)
(0.999509 -0.0051981 -3.07059e-16)
(0.999933 -0.00576215 -5.67536e-16)
(1.00036 -0.00625245 6.14576e-17)
(1.00073 -0.00668305 3.7215e-16)
(1.00111 -0.00702607 3.39422e-16)
(1.0013 -0.00727007 -7.2643e-17)
(0.998272 0.00199159 -1.61591e-17)
(0.998044 0.00116956 -1.32217e-17)
(0.997901 0.000320737 1.72046e-16)
(0.997861 -0.000564582 -1.62415e-16)
(0.997924 -0.00144939 -3.21128e-16)
(0.998088 -0.00231973 1.55935e-16)
(0.998343 -0.0031512 8.8548e-17)
(0.998677 -0.00392724 4.10332e-16)
(0.999069 -0.00463597 5.87325e-17)
(0.999502 -0.00527025 2.85943e-16)
(0.999941 -0.00583209 8.50522e-16)
(1.00038 -0.00631741 -2.33915e-16)
(1.00077 -0.00673895 -9.96633e-17)
(1.00116 -0.00707303 -1.18385e-17)
(1.00137 -0.00730712 -2.8945e-17)
(0.998201 0.00202284 4.51925e-17)
(0.997966 0.00118366 4.93994e-17)
(0.997823 0.000317813 -1.47972e-16)
(0.997785 -0.00058433 1.37533e-16)
(0.997854 -0.00148457 -9.26278e-17)
(0.998027 -0.00236836 -2.9838e-16)
(0.998294 -0.00321084 1.31254e-17)
(0.998641 -0.00399501 -3.52923e-17)
(0.999047 -0.00470872 -2.17805e-16)
(0.999495 -0.00534465 1.83849e-16)
(0.999948 -0.0059044 -7.93978e-16)
(1.0004 -0.00638473 -1.44892e-17)
(1.0008 -0.00679714 -1.78068e-16)
(1.00122 -0.00712187 3.35195e-17)
(1.00143 -0.00734504 -8.57338e-17)
(0.998128 0.00205367 -1.15322e-17)
(0.997887 0.00119728 -1.177e-17)
(0.997742 0.000314249 2.04754e-17)
(0.997707 -0.000604949 -1.52947e-16)
(0.997782 -0.00152091 -2.74834e-17)
(0.997964 -0.00241845 3.64345e-16)
(0.998242 -0.00327224 -2.65717e-16)
(0.998602 -0.00406476 -3.2938e-16)
(0.999023 -0.0047836 3.53029e-16)
(0.999485 -0.00542124 -3.19785e-16)
(0.999954 -0.00597885 4.05432e-16)
(1.00043 -0.00645398 3.84555e-16)
(1.00084 -0.00685701 2.781e-16)
(1.00127 -0.00717182 -1.86376e-16)
(1.0015 -0.00738296 -6.4642e-17)
(0.998055 0.00208413 -1.24374e-17)
(0.997807 0.0012105 -7.22266e-17)
(0.99766 0.000310129 -9.73118e-17)
(0.997627 -0.00062635 7.14584e-17)
(0.997707 -0.00155834 1.81207e-16)
(0.997898 -0.00246995 6.36038e-17)
(0.998188 -0.00333529 2.46961e-16)
(0.998561 -0.00413636 5.40115e-17)
(0.998997 -0.0048604 -4.64177e-16)
(0.999475 -0.00549971 1.6265e-16)
(0.999959 -0.00605501 -2.30299e-16)
(1.00045 -0.00652465 -1.91747e-16)
(1.00087 -0.00691795 -2.59325e-16)
(1.00132 -0.00722237 4.12862e-17)
(1.00156 -0.00742071 1.56064e-16)
(0.997979 0.00211433 -1.90909e-17)
(0.997725 0.0012234 3.44021e-17)
(0.997576 0.000305564 4.15555e-17)
(0.997545 -0.000648379 -1.43234e-16)
(0.99763 -0.00159664 6.99389e-17)
(0.99783 -0.00252259 -2.12341e-16)
(0.998132 -0.00339972 -2.60268e-17)
(0.998519 -0.00420945 3.19847e-16)
(0.99897 -0.00493869 -2.04228e-16)
(0.999463 -0.00557954 -2.70288e-16)
(0.999964 -0.0061323 2.32566e-16)
(1.00047 -0.00659608 -6.92059e-17)
(1.00091 -0.00697937 -7.34976e-16)
(1.00137 -0.00727299 7.55488e-17)
(1.00162 -0.0074579 1.12291e-16)
(0.997903 0.00214432 -9.82689e-18)
(0.997641 0.00123606 3.35577e-17)
(0.997491 0.000300655 1.2648e-17)
(0.997461 -0.000670876 1.90917e-17)
(0.997552 -0.00163561 1.20702e-16)
(0.997761 -0.00257608 6.71119e-17)
(0.998074 -0.00346514 -2.21203e-16)
(0.998475 -0.00428361 -2.02096e-17)
(0.998941 -0.005018 6.11713e-16)
(0.999451 -0.00566024 -1.96462e-16)
(0.999969 -0.00621025 -5.78431e-18)
(1.00049 -0.0066679 2.9189e-17)
(1.00095 -0.00704101 2.82495e-17)
(1.00142 -0.0073236 -5.22993e-17)
(1.00169 -0.00749489 1.7724e-17)
(0.997825 0.00217421 2.58953e-17)
(0.997556 0.00124854 -6.84529e-17)
(0.997404 0.000295502 -7.82366e-17)
(0.997376 -0.000693682 1.48214e-19)
(0.997473 -0.00167499 -1.82264e-16)
(0.99769 -0.00263011 -2.91263e-17)
(0.998015 -0.0035312 4.29485e-17)
(0.998431 -0.00435843 -4.86765e-17)
(0.998913 -0.00509793 -4.14181e-16)
(0.999439 -0.00574143 5.52217e-16)
(0.999973 -0.0062885 -3.1569e-17)
(1.00051 -0.00673985 -5.79566e-17)
(1.00098 -0.0071027 3.43036e-16)
(1.00147 -0.00737418 -3.87606e-16)
(1.00175 -0.00753171 8.32343e-18)
(0.997746 0.00220404 2.7476e-18)
(0.997469 0.00126092 8.2122e-17)
(0.997316 0.000290168 2.20829e-16)
(0.99729 -0.000716691 -5.57243e-17)
(0.997392 -0.00171461 1.18455e-16)
(0.997618 -0.00268446 -1.84197e-16)
(0.997956 -0.00359762 -2.2076e-16)
(0.998385 -0.00443364 5.30947e-18)
(0.998883 -0.00517821 2.41173e-16)
(0.999427 -0.00582291 -4.82006e-16)
(0.999978 -0.00636699 1.20289e-16)
(1.00053 -0.00681195 -2.09584e-17)
(1.00102 -0.00716461 2.65046e-16)
(1.00152 -0.00742496 8.24983e-17)
(1.00182 -0.00756889 -1.30751e-16)
(0.997665 0.00223392 1.05583e-18)
(0.997381 0.00127324 -8.91319e-17)
(0.997226 0.000284705 -1.26039e-16)
(0.997203 -0.000739827 2.08693e-17)
(0.99731 -0.00175438 -2.20077e-17)
(0.997546 -0.00273896 1.67199e-16)
(0.997895 -0.00366424 3.62458e-16)
(0.99834 -0.00450907 -3.21803e-16)
(0.998854 -0.00525872 3.66456e-16)
(0.999414 -0.0059046 3.2432e-17)
(0.999983 -0.00644568 7.21298e-17)
(1.00055 -0.00688425 -1.39661e-16)
(1.00106 -0.00722681 2.70771e-16)
(1.00157 -0.00747603 1.54587e-16)
(1.00188 -0.00760644 2.05424e-16)
(0.997583 0.00226391 -8.63585e-18)
(0.997291 0.00128555 8.50248e-17)
(0.997135 0.00027913 1.55248e-16)
(0.997114 -0.000763074 5.36681e-17)
(0.997228 -0.00179424 1.57083e-16)
(0.997473 -0.00279356 1.20723e-16)
(0.997835 -0.00373098 -3.25524e-16)
(0.998294 -0.00458467 6.5277e-16)
(0.998824 -0.00533945 -2.05542e-16)
(0.999402 -0.00598656 -6.84843e-17)
(0.999987 -0.0065247 -2.48315e-16)
(1.00057 -0.00695694 -1.09356e-16)
(1.00109 -0.00728953 -3.01355e-16)
(1.00162 -0.00752769 -1.11874e-16)
(1.00194 -0.00764494 4.94167e-17)
(0.997499 0.0022941 -3.06688e-17)
(0.9972 0.00129791 -9.09294e-17)
(0.997043 0.000273457 -1.08864e-17)
(0.997024 -0.00078644 1.06772e-16)
(0.997144 -0.00183421 -1.42958e-16)
(0.997399 -0.00284827 -1.05051e-16)
(0.997773 -0.00379785 4.07365e-16)
(0.998247 -0.00466046 -1.21768e-16)
(0.998794 -0.00542043 -5.20867e-16)
(0.999389 -0.00606886 7.17821e-17)
(0.999992 -0.00660418 -1.261e-16)
(1.00059 -0.00703019 2.33915e-16)
(1.00113 -0.007353 3.76276e-16)
(1.00167 -0.00758018 3.37698e-16)
(1.00201 -0.0076846 -2.88023e-16)
(0.997413 0.00232456 1.83881e-18)
(0.997106 0.00131034 -1.75409e-17)
(0.996949 0.00026768 -7.26488e-17)
(0.996933 -0.000809971 4.53135e-17)
(0.997059 -0.00187436 -7.92727e-17)
(0.997324 -0.00290315 1.353e-16)
(0.997711 -0.00386493 -1.17062e-16)
(0.9982 -0.00473651 4.02233e-17)
(0.998764 -0.00550179 -1.09196e-16)
(0.999376 -0.00615168 2.78179e-16)
(0.999997 -0.00668436 3.41009e-16)