1.275 	2.15223e-18 	-2.76991e-20 	-0.034426 	-0.000436905 	-1.92179e-22
1.825 	2.15223e-18 	-1.39322e-20 	-0.00939698 	-0.00276547 	1.70275e-21
2.375 	2.15223e-18 	-2.66896e-23 	0.115498 	-0.00325678 	-7.1041e-22
