/*--------------------------------*- C++ -*----------------------------------*\
  =========                 |
  \\      /  F ield         | OpenFOAM: The Open Source CFD Toolbox
   \\    /   O peration     | Website:  https://openfoam.org
    \\  /    A nd           | Version:  6.0
     \\/     M anipulation  |
\*---------------------------------------------------------------------------*/
FoamFile
{
    version     2.0;
    format      ascii;
    class       volScalarField;
    location    "8.6";
    object      p;
}
// * * * * * * * * * * * * * * * * * * * * * * * * * * * * * * * * * * * * * //

dimensions      [0 2 -2 0 0 0 0];

internalField   nonuniform List<scalar> 
34500
(
1.00589
1.00591
1.00577
1.00547
1.00504
1.00451
1.00391
1.00328
1.00266
1.00207
1.00154
1.00108
1.00069
1.00041
1.00024
1.00589
1.00595
1.00586
1.00563
1.00529
1.00484
1.0043
1.00371
1.0031
1.00249
1.0019
1.00138
1.00089
1.00055
1.00029
1.0059
1.00593
1.00582
1.00556
1.00518
1.0047
1.00414
1.00353
1.0029
1.00229
1.00172
1.00122
1.00076
1.00046
1.00021
1.0059
1.00593
1.00579
1.0055
1.00509
1.00458
1.00399
1.00337
1.00274
1.00214
1.00159
1.0011
1.00067
1.00041
1.00018
1.0059
1.00593
1.00579
1.00551
1.00509
1.00458
1.004
1.00338
1.00275
1.00214
1.00159
1.0011
1.00067
1.0004
1.00017
1.00591
1.00594
1.00581
1.00553
1.00512
1.00461
1.00403
1.00341
1.00278
1.00217
1.0016
1.0011
1.00067
1.00039
1.00016
1.00592
1.00595
1.00582
1.00554
1.00512
1.00461
1.00403
1.00341
1.00278
1.00216
1.00159
1.00109
1.00065
1.00037
1.00015
1.00593
1.00596
1.00583
1.00555
1.00513
1.00462
1.00403
1.00341
1.00277
1.00216
1.00159
1.00108
1.00064
1.00036
1.00013
1.00594
1.00597
1.00584
1.00556
1.00515
1.00463
1.00405
1.00342
1.00278
1.00217
1.00159
1.00109
1.00064
1.00035
1.00011
1.00595
1.00598
1.00586
1.00558
1.00517
1.00466
1.00407
1.00344
1.00281
1.00218
1.0016
1.00109
1.00064
1.00034
1.00009
1.00596
1.00599
1.00587
1.0056
1.00519
1.00468
1.0041
1.00347
1.00283
1.0022
1.00161
1.00109
1.00063
1.00032
1.00007
1.00598
1.00601
1.00589
1.00562
1.00521
1.0047
1.00412
1.00349
1.00284
1.00221
1.00161
1.00109
1.00062
1.00029
1.00003
1.00599
1.00602
1.0059
1.00563
1.00523
1.00472
1.00413
1.0035
1.00285
1.00221
1.00161
1.00107
1.0006
1.00027
1
1.00601
1.00604
1.00592
1.00565
1.00524
1.00473
1.00414
1.0035
1.00285
1.0022
1.0016
1.00105
1.00058
1.00024
0.999968
1.00603
1.00606
1.00594
1.00566
1.00525
1.00474
1.00415
1.0035
1.00285
1.0022
1.00158
1.00104
1.00056
1.00021
0.999935
1.00605
1.00608
1.00595
1.00567
1.00526
1.00475
1.00415
1.00351
1.00284
1.00219
1.00157
1.00102
1.00053
1.00018
0.999902
1.00607
1.0061
1.00597
1.00569
1.00528
1.00476
1.00416
1.00351
1.00284
1.00219
1.00156
1.001
1.00052
1.00015
0.999868
1.00609
1.00612
1.00599
1.00571
1.0053
1.00478
1.00417
1.00352
1.00285
1.00218
1.00156
1.00099
1.0005
1.00013
0.999833
1.00611
1.00614
1.00602
1.00574
1.00532
1.0048
1.00419
1.00353
1.00286
1.00219
1.00155
1.00098
1.00048
1.0001
0.999797
1.00614
1.00617
1.00604
1.00576
1.00534
1.00482
1.00421
1.00355
1.00287
1.00219
1.00155
1.00097
1.00046
1.00007
0.999758
1.00616
1.00619
1.00607
1.00579
1.00537
1.00484
1.00423
1.00356
1.00288
1.00219
1.00154
1.00095
1.00044
1.00003
0.999718
1.00619
1.00622
1.0061
1.00581
1.00539
1.00486
1.00425
1.00358
1.00288
1.00219
1.00153
1.00094
1.00041
1
0.999677
1.00622
1.00625
1.00613
1.00584
1.00542
1.00489
1.00427
1.00359
1.00289
1.00219
1.00152
1.00092
1.00038
0.999965
0.999635
1.00625
1.00628
1.00615
1.00587
1.00544
1.00491
1.00428
1.0036
1.00289
1.00218
1.00151
1.0009
1.00036
0.999929
0.999593
1.00628
1.00631
1.00618
1.00589
1.00547
1.00493
1.0043
1.00361
1.00289
1.00218
1.0015
1.00088
1.00033
0.999893
0.99955
1.00631
1.00634
1.00621
1.00592
1.00549
1.00495
1.00431
1.00362
1.00289
1.00217
1.00148
1.00086
1.0003
0.999857
0.999506
1.00634
1.00638
1.00625
1.00595
1.00552
1.00497
1.00433
1.00363
1.0029
1.00217
1.00147
1.00084
1.00027
0.999819
0.999461
1.00638
1.00641
1.00628
1.00599
1.00555
1.005
1.00435
1.00364
1.0029
1.00217
1.00146
1.00081
1.00024
0.999781
0.999414
1.00641
1.00645
1.00632
1.00602
1.00558
1.00502
1.00437
1.00366
1.00291
1.00216
1.00145
1.00079
1.00021
0.999741
0.999367
1.00645
1.00649
1.00635
1.00605
1.00561
1.00505
1.00439
1.00367
1.00292
1.00216
1.00144
1.00077
1.00018
0.9997
0.999318
1.00649
1.00653
1.00639
1.00609
1.00564
1.00508
1.00441
1.00368
1.00292
1.00216
1.00142
1.00075
1.00015
0.999657
0.999268
1.00653
1.00657
1.00643
1.00613
1.00568
1.0051
1.00443
1.0037
1.00293
1.00215
1.00141
1.00072
1.00011
0.999613
0.999217
1.00657
1.00661
1.00647
1.00616
1.00571
1.00513
1.00445
1.00371
1.00293
1.00215
1.00139
1.00069
1.00008
0.999569
0.999165
1.00662
1.00665
1.00651
1.0062
1.00574
1.00516
1.00448
1.00372
1.00293
1.00214
1.00137
1.00067
1.00004
0.999524
0.999113
1.00666
1.0067
1.00656
1.00624
1.00578
1.00519
1.0045
1.00374
1.00294
1.00213
1.00136
1.00064
1
0.999478
0.999059
1.00671
1.00674
1.0066
1.00629
1.00582
1.00522
1.00452
1.00375
1.00294
1.00213
1.00134
1.00061
0.999966
0.999431
0.999004
1.00676
1.00679
1.00665
1.00633
1.00586
1.00525
1.00455
1.00377
1.00295
1.00212
1.00132
1.00058
0.999928
0.999383
0.998947
1.00681
1.00684
1.0067
1.00638
1.0059
1.00529
1.00457
1.00378
1.00295
1.00212
1.00131
1.00056
0.999889
0.999333
0.998889
1.00686
1.00689
1.00675
1.00642
1.00594
1.00532
1.0046
1.0038
1.00296
1.00211
1.00129
1.00053
0.999848
0.999282
0.99883
1.00691
1.00694
1.0068
1.00647
1.00598
1.00536
1.00463
1.00382
1.00297
1.00211
1.00127
1.0005
0.999805
0.99923
0.998769
1.00696
1.007
1.00685
1.00652
1.00603
1.0054
1.00466
1.00384
1.00297
1.0021
1.00125
1.00046
0.999761
0.999176
0.998707
1.00702
1.00705
1.0069
1.00657
1.00607
1.00544
1.00469
1.00385
1.00298
1.00209
1.00123
1.00043
0.999716
0.99912
0.998644
1.00707
1.00711
1.00696
1.00662
1.00612
1.00547
1.00471
1.00387
1.00298
1.00208
1.00121
1.00039
0.999669
0.999064
0.998579
1.00713
1.00717
1.00702
1.00667
1.00616
1.00551
1.00474
1.00389
1.00299
1.00207
1.00119
1.00036
0.999622
0.999006
0.998513
1.00719
1.00723
1.00707
1.00673
1.00621
1.00555
1.00477
1.00391
1.00299
1.00206
1.00116
1.00032
0.999574
0.998948
0.998446
1.00725
1.00729
1.00713
1.00678
1.00626
1.00559
1.0048
1.00392
1.003
1.00206
1.00114
1.00029
0.999525
0.998887
0.998377
1.00732
1.00736
1.00719
1.00684
1.00631
1.00563
1.00483
1.00394
1.003
1.00205
1.00112
1.00025
0.999474
0.998826
0.998306
1.00738
1.00742
1.00726
1.0069
1.00636
1.00568
1.00487
1.00396
1.00301
1.00204
1.00109
1.00021
0.999422
0.998763
0.998234
1.00745
1.00749
1.00732
1.00696
1.00641
1.00572
1.0049
1.00398
1.00301
1.00203
1.00107
1.00017
0.999369
0.998698
0.99816
1.00751
1.00756
1.00739
1.00702
1.00647
1.00577
1.00493
1.004
1.00302
1.00202
1.00104
1.00013
0.999315
0.998632
0.998085
1.00758
1.00763
1.00746
1.00708
1.00652
1.00581
1.00497
1.00402
1.00302
1.00201
1.00102
1.00009
0.999259
0.998564
0.998008
1.00766
1.0077
1.00752
1.00715
1.00658
1.00586
1.005
1.00405
1.00303
1.002
1.00099
1.00005
0.999202
0.998495
0.997929
1.00773
1.00777
1.0076
1.00721
1.00664
1.00591
1.00504
1.00407
1.00303
1.00199
1.00096
1
0.999143
0.998424
0.997848
1.0078
1.00785
1.00767
1.00728
1.0067
1.00596
1.00507
1.00409
1.00304
1.00197
1.00093
0.999956
0.999083
0.998352
0.997766
1.00788
1.00792
1.00774
1.00735
1.00676
1.00601
1.00511
1.00411
1.00305
1.00196
1.0009
0.99991
0.999022
0.998278
0.997682
1.00796
1.008
1.00782
1.00742
1.00682
1.00606
1.00515
1.00413
1.00305
1.00195
1.00087
0.999863
0.99896
0.998203
0.997596
1.00804
1.00808
1.0079
1.00749
1.00689
1.00611
1.00519
1.00416
1.00306
1.00194
1.00084
0.999816
0.998896
0.998125
0.997508
1.00812
1.00817
1.00798
1.00757
1.00695
1.00617
1.00523
1.00418
1.00306
1.00193
1.00081
0.999766
0.99883
0.998046
0.997419
1.00821
1.00825
1.00806
1.00764
1.00702
1.00623
1.00527
1.00421
1.00307
1.00191
1.00078
0.999716
0.998764
0.997966
0.997327
1.00829
1.00834
1.00814
1.00772
1.00709
1.00628
1.00531
1.00423
1.00308
1.0019
1.00075
0.999665
0.998695
0.997883
0.997233
1.00838
1.00843
1.00823
1.0078
1.00716
1.00634
1.00536
1.00426
1.00309
1.00189
1.00071
0.999612
0.998625
0.997799
0.997137
1.00847
1.00852
1.00831
1.00788
1.00723
1.0064
1.0054
1.00429
1.00309
1.00187
1.00068
0.999558
0.998553
0.997712
0.997039
1.00856
1.00861
1.0084
1.00797
1.00731
1.00646
1.00545
1.00431
1.0031
1.00186
1.00064
0.999503
0.99848
0.997624
0.996939
1.00866
1.0087
1.0085
1.00805
1.00738
1.00653
1.0055
1.00434
1.00311
1.00185
1.00061
0.999447
0.998405
0.997533
0.996837
1.00875
1.0088
1.00859
1.00814
1.00746
1.00659
1.00554
1.00437
1.00311
1.00183
1.00057
0.999389
0.998329
0.997441
0.996732
1.00885
1.0089
1.00869
1.00823
1.00754
1.00666
1.00559
1.0044
1.00312
1.00182
1.00053
0.99933
0.99825
0.997346
0.996625
1.00895
1.009
1.00878
1.00832
1.00762
1.00672
1.00564
1.00443
1.00313
1.0018
1.00049
0.999269
0.99817
0.99725
0.996516
1.00905
1.0091
1.00888
1.00841
1.0077
1.00679
1.00569
1.00446
1.00314
1.00178
1.00046
0.999207
0.998088
0.997151
0.996404
1.00916
1.00921
1.00898
1.00851
1.00779
1.00686
1.00574
1.00449
1.00314
1.00177
1.00041
0.999144
0.998004
0.99705
0.99629
1.00927
1.00932
1.00909
1.0086
1.00787
1.00693
1.0058
1.00452
1.00315
1.00175
1.00037
0.999079
0.997918
0.996947
0.996173
1.00938
1.00943
1.00919
1.0087
1.00796
1.007
1.00585
1.00455
1.00316
1.00173
1.00033
0.999013
0.99783
0.996842
0.996054
1.00949
1.00954
1.0093
1.0088
1.00805
1.00708
1.00591
1.00458
1.00317
1.00171
1.00029
0.998945
0.997741
0.996734
0.995932
1.0096
1.00965
1.00941
1.00891
1.00814
1.00716
1.00596
1.00462
1.00318
1.0017
1.00024
0.998876
0.997649
0.996624
0.995808
1.00972
1.00977
1.00953
1.00901
1.00824
1.00723
1.00602
1.00465
1.00318
1.00168
1.0002
0.998805
0.997556
0.996512
0.995681
1.00984
1.00989
1.00964
1.00912
1.00833
1.00731
1.00608
1.00469
1.00319
1.00166
1.00015
0.998733
0.99746
0.996397
0.995551
1.00996
1.01001
1.00976
1.00923
1.00843
1.00739
1.00614
1.00472
1.0032
1.00164
1.0001
0.998659
0.997363
0.99628
0.995418
1.01008
1.01014
1.00988
1.00935
1.00853
1.00748
1.0062
1.00476
1.00321
1.00162
1.00006
0.998583
0.997263
0.99616
0.995283
1.01021
1.01026
1.01001
1.00946
1.00863
1.00756
1.00626
1.0048
1.00322
1.0016
1.00001
0.998506
0.997161
0.996037
0.995144
1.01034
1.01039
1.01013
1.00958
1.00874
1.00765
1.00633
1.00483
1.00323
1.00158
0.999955
0.998427
0.997057
0.995912
0.995003
1.01047
1.01052
1.01026
1.0097
1.00885
1.00774
1.00639
1.00487
1.00324
1.00156
0.999903
0.998346
0.99695
0.995784
0.994858
1.0106
1.01066
1.01039
1.00982
1.00896
1.00783
1.00646
1.00491
1.00325
1.00154
0.99985
0.998264
0.996841
0.995653
0.99471
1.01074
1.0108
1.01053
1.00995
1.00907
1.00792
1.00653
1.00495
1.00326
1.00151
0.999795
0.998179
0.99673
0.995519
0.994559
1.01088
1.01094
1.01066
1.01008
1.00918
1.00802
1.0066
1.005
1.00327
1.00149
0.99974
0.998093
0.996616
0.995383
0.994405
1.01102
1.01108
1.0108
1.01021
1.0093
1.00811
1.00667
1.00504
1.00328
1.00147
0.999682
0.998005
0.9965
0.995243
0.994248
1.01116
1.01123
1.01094
1.01034
1.00942
1.00821
1.00674
1.00508
1.00329
1.00144
0.999624
0.997914
0.996381
0.995101
0.994087
1.01131
1.01138
1.01109
1.01048
1.00954
1.00831
1.00682
1.00512
1.0033
1.00142
0.999564
0.997822
0.996259
0.994955
0.993922
1.01146
1.01153
1.01124
1.01061
1.00966
1.00841
1.00689
1.00517
1.00331
1.00139
0.999503
0.997728
0.996135
0.994807
0.993755
1.01161
1.01169
1.01139
1.01076
1.00979
1.00852
1.00697
1.00521
1.00332
1.00136
0.999441
0.997631
0.996008
0.994655
0.993583
1.01177
1.01184
1.01154
1.0109
1.00992
1.00863
1.00705
1.00526
1.00333
1.00134
0.999377
0.997532
0.995879
0.994499
0.993408
1.01193
1.01201
1.0117
1.01105
1.01005
1.00874
1.00713
1.00531
1.00334
1.00131
0.999311
0.997431
0.995746
0.994341
0.993229
1.01209
1.01217
1.01186
1.0112
1.01018
1.00885
1.00721
1.00536
1.00335
1.00128
0.999245
0.997328
0.995611
0.994179
0.993047
1.01226
1.01234
1.01202
1.01135
1.01032
1.00896
1.0073
1.00541
1.00336
1.00125
0.999176
0.997223
0.995473
0.994013
0.99286
1.01243
1.01251
1.01219
1.01151
1.01046
1.00908
1.00738
1.00546
1.00337
1.00122
0.999106
0.997115
0.995331
0.993844
0.992669
1.0126
1.01269
1.01236
1.01167
1.0106
1.0092
1.00747
1.00551
1.00338
1.00119
0.999034
0.997005
0.995187
0.993671
0.992475
1.01278
1.01286
1.01254
1.01184
1.01075
1.00932
1.00756
1.00556
1.00339
1.00116
0.998961
0.996892
0.995039
0.993495
0.992276
1.01296
1.01305
1.01271
1.012
1.0109
1.00944
1.00765
1.00561
1.0034
1.00113
0.998885
0.996776
0.994888
0.993315
0.992073
1.01314
1.01323
1.0129
1.01217
1.01105
1.00957
1.00775
1.00567
1.00342
1.00109
0.998808
0.996659
0.994734
0.993131
0.991866
1.01333
1.01342
1.01308
1.01235
1.01121
1.0097
1.00784
1.00572
1.00343
1.00106
0.998729
0.996538
0.994576
0.992942
0.991654
1.01352
1.01362
1.01327
1.01253
1.01137
1.00983
1.00794
1.00578
1.00344
1.00103
0.998648
0.996414
0.994416
0.99275
0.991439
1.01371
1.01381
1.01346
1.01271
1.01153
1.00996
1.00804
1.00583
1.00345
1.00099
0.998565
0.996288
0.994251
0.992554
0.991218
1.01391
1.01401
1.01366
1.01289
1.01169
1.0101
1.00814
1.00589
1.00346
1.00095
0.998481
0.996159
0.994083
0.992354
0.990993
1.01411
1.01422
1.01386
1.01308
1.01186
1.01024
1.00824
1.00595
1.00347
1.00091
0.998394
0.996027
0.993911
0.992149
0.990762
1.01432
1.01443
1.01406
1.01327
1.01203
1.01038
1.00835
1.00601
1.00348
1.00087
0.998305
0.995892
0.993735
0.99194
0.990528
1.01453
1.01464
1.01427
1.01347
1.01221
1.01053
1.00846
1.00608
1.0035
1.00083
0.998213
0.995753
0.993555
0.991726
0.990288
1.01474
1.01486
1.01449
1.01367
1.01239
1.01068
1.00856
1.00614
1.00351
1.00079
0.99812
0.995612
0.993372
0.991508
0.990043
1.01496
1.01508
1.0147
1.01388
1.01257
1.01083
1.00868
1.0062
1.00352
1.00075
0.998024
0.995467
0.993184
0.991285
0.989793
1.01518
1.01531
1.01493
1.01409
1.01276
1.01099
1.00879
1.00627
1.00353
1.0007
0.997926
0.995319
0.992992
0.991058
0.989538
1.01541
1.01554
1.01515
1.0143
1.01295
1.01115
1.00891
1.00633
1.00354
1.00066
0.997825
0.995167
0.992796
0.990825
0.989278
1.01564
1.01578
1.01538
1.01452
1.01315
1.01131
1.00903
1.0064
1.00355
1.00061
0.997722
0.995012
0.992596
0.990588
0.989012
1.01588
1.01602
1.01562
1.01474
1.01335
1.01147
1.00915
1.00647
1.00356
1.00056
0.997615
0.994853
0.992391
0.990345
0.988741
1.01612
1.01626
1.01586
1.01497
1.01355
1.01164
1.00927
1.00654
1.00357
1.00051
0.997507
0.994691
0.992181
0.990097
0.988464
1.01636
1.01651
1.01611
1.0152
1.01376
1.01181
1.00939
1.00661
1.00358
1.00046
0.997395
0.994524
0.991967
0.989844
0.988181
1.01661
1.01677
1.01636
1.01544
1.01397
1.01199
1.00952
1.00668
1.00359
1.00041
0.997281
0.994354
0.991748
0.989586
0.987893
1.01687
1.01703
1.01661
1.01568
1.01419
1.01217
1.00965
1.00675
1.0036
1.00035
0.997163
0.994179
0.991524
0.989321
0.987598
1.01713
1.01729
1.01687
1.01593
1.01441
1.01235
1.00979
1.00683
1.00361
1.0003
0.997043
0.994001
0.991296
0.989052
0.987298
1.01739
1.01756
1.01714
1.01618
1.01463
1.01254
1.00992
1.0069
1.00362
1.00024
0.996919
0.993817
0.991061
0.988776
0.986991
1.01766
1.01784
1.01741
1.01644
1.01487
1.01273
1.01006
1.00698
1.00363
1.00018
0.996792
0.99363
0.990822
0.988495
0.986678
1.01794
1.01812
1.01769
1.0167
1.0151
1.01292
1.0102
1.00705
1.00364
1.00011
0.996661
0.993438
0.990578
0.988208
0.986358
1.01822
1.01841
1.01797
1.01697
1.01534
1.01312
1.01034
1.00713
1.00364
1.00005
0.996527
0.993242
0.990328
0.987914
0.986032
1.0185
1.0187
1.01826
1.01725
1.01559
1.01332
1.01049
1.00721
1.00365
0.999983
0.996389
0.99304
0.990072
0.987614
0.985699
1.0188
1.019
1.01856
1.01753
1.01584
1.01353
1.01064
1.00729
1.00366
0.999914
0.996248
0.992834
0.98981
0.987308
0.98536
1.01909
1.01931
1.01886
1.01781
1.01609
1.01374
1.01079
1.00737
1.00366
0.999842
0.996103
0.992623
0.989542
0.986995
0.985013
1.0194
1.01962
1.01916
1.01811
1.01635
1.01396
1.01095
1.00746
1.00367
0.999768
0.995954
0.992406
0.989269
0.986676
0.98466
1.01971
1.01994
1.01948
1.0184
1.01662
1.01418
1.0111
1.00754
1.00367
0.99969
0.9958
0.992184
0.988989
0.98635
0.984299
1.02002
1.02026
1.0198
1.01871
1.01689
1.0144
1.01126
1.00763
1.00367
0.999611
0.995642
0.991957
0.988703
0.986017
0.983931
1.02035
1.02059
1.02013
1.01902
1.01717
1.01463
1.01143
1.00771
1.00368
0.999528
0.99548
0.991724
0.988409
0.985676
0.983555
1.02067
1.02093
1.02046
1.01934
1.01746
1.01486
1.01159
1.0078
1.00368
0.999442
0.995313
0.991485
0.98811
0.985329
0.983172
1.02101
1.02128
1.0208
1.01966
1.01775
1.0151
1.01176
1.00789
1.00368
0.999353
0.995141
0.991239
0.987803
0.984973
0.982781
1.02135
1.02163
1.02115
1.01999
1.01804
1.01534
1.01193
1.00797
1.00367
0.999261
0.994964
0.990988
0.98749
0.984611
0.982382
1.0217
1.02199
1.02151
1.02033
1.01834
1.01559
1.01211
1.00806
1.00367
0.999165
0.994782
0.990731
0.987169
0.98424
0.981975
1.02206
1.02236
1.02187
1.02068
1.01865
1.01584
1.01229
1.00815
1.00367
0.999066
0.994595
0.990466
0.986841
0.983862
0.98156
1.02242
1.02273
1.02224
1.02103
1.01897
1.0161
1.01247
1.00824
1.00366
0.998963
0.994402
0.990195
0.986505
0.983475
0.981136
1.02279
1.02311
1.02262
1.02139
1.01929
1.01636
1.01265
1.00833
1.00365
0.998856
0.994204
0.989917
0.986162
0.983081
0.980704
1.02317
1.0235
1.02301
1.02176
1.01962
1.01663
1.01284
1.00843
1.00364
0.998744
0.993999
0.989632
0.98581
0.982677
0.980263
1.02355
1.0239
1.0234
1.02214
1.01996
1.01691
1.01303
1.00852
1.00363
0.998629
0.993789
0.989339
0.98545
0.982266
0.979814
1.02395
1.02431
1.02381
1.02252
1.0203
1.01718
1.01322
1.00861
1.00361
0.998508
0.993571
0.989039
0.985081
0.981845
0.979355
1.02435
1.02473
1.02422
1.02292
1.02065
1.01747
1.01342
1.0087
1.00359
0.998383
0.993348
0.988731
0.984705
0.981415
0.978888
1.02476
1.02515
1.02464
1.02332
1.02101
1.01776
1.01362
1.0088
1.00357
0.998253
0.993117
0.988414
0.984319
0.980976
0.978411
1.02518
1.02558
1.02507
1.02373
1.02138
1.01805
1.01382
1.00889
1.00355
0.998118
0.99288
0.98809
0.983924
0.980527
0.977925
1.02561
1.02603
1.02551
1.02415
1.02175
1.01836
1.01402
1.00898
1.00353
0.997976
0.992634
0.987756
0.983519
0.980069
0.977428
1.02604
1.02648
1.02596
1.02458
1.02213
1.01866
1.01423
1.00907
1.0035
0.99783
0.992382
0.987414
0.983106
0.979601
0.976923
1.02649
1.02694
1.02642
1.02502
1.02252
1.01898
1.01444
1.00917
1.00346
0.997677
0.992121
0.987062
0.982682
0.979123
0.976406
1.02694
1.02741
1.02689
1.02547
1.02292
1.0193
1.01466
1.00926
1.00343
0.997518
0.991852
0.986701
0.982248
0.978635
0.975881
1.02741
1.0279
1.02737
1.02593
1.02333
1.01962
1.01488
1.00935
1.00339
0.997352
0.991574
0.98633
0.981804
0.978136
0.975344
1.02788
1.02839
1.02786
1.0264
1.02374
1.01995
1.0151
1.00944
1.00334
0.997179
0.991288
0.98595
0.981349
0.977627
0.974797
1.02836
1.02889
1.02837
1.02688
1.02417
1.02029
1.01532
1.00953
1.00329
0.996998
0.990991
0.985558
0.980883
0.977106
0.974239
1.02886
1.02941
1.02888
1.02737
1.0246
1.02064
1.01554
1.00962
1.00324
0.996811
0.990686
0.985156
0.980407
0.976575
0.97367
1.02936
1.02993
1.02941
1.02787
1.02505
1.02099
1.01577
1.00971
1.00318
0.996614
0.99037
0.984743
0.979918
0.976032
0.97309
1.02988
1.03047
1.02994
1.02838
1.0255
1.02135
1.016
1.00979
1.00312
0.99641
0.990044
0.984318
0.979418
0.975477
0.972499
1.0304
1.03102
1.03049
1.02891
1.02596
1.02171
1.01624
1.00987
1.00305
0.996196
0.989707
0.983882
0.978906
0.97491
0.971896
1.03094
1.03158
1.03105
1.02944
1.02644
1.02208
1.01647
1.00995
1.00297
0.995974
0.98936
0.983433
0.978382
0.974332
0.971282
1.03149
1.03216
1.03163
1.02999
1.02692
1.02246
1.01671
1.01003
1.00289
0.995741
0.989
0.982972
0.977844
0.97374
0.970655
1.03205
1.03274
1.03222
1.03055
1.02741
1.02284
1.01695
1.01011
1.0028
0.995499
0.988628
0.982498
0.977294
0.973137
0.970017
1.03263
1.03334
1.03282
1.03113
1.02792
1.02324
1.01719
1.01018
1.0027
0.995245
0.988244
0.98201
0.97673
0.97252
0.969366
1.03321
1.03396
1.03343
1.03171
1.02843
1.02363
1.01743
1.01025
1.00259
0.994981
0.987846
0.98151
0.976153
0.97189
0.968703
1.03381
1.03459
1.03407
1.03232
1.02896
1.02404
1.01768
1.01031
1.00248
0.994704
0.987435
0.980994
0.975561
0.971246
0.968026
1.03442
1.03523
1.03471
1.03293
1.0295
1.02445
1.01792
1.01037
1.00235
0.994415
0.98701
0.980464
0.974956
0.970589
0.967337
1.03505
1.03589
1.03537
1.03356
1.03005
1.02487
1.01817
1.01043
1.00222
0.994113
0.98657
0.979919
0.974335
0.969917
0.966634
1.03569
1.03656
1.03605
1.03421
1.03061
1.02529
1.01842
1.01048
1.00208
0.993798
0.986116
0.979358
0.9737
0.969232
0.965919
1.03635
1.03725
1.03674
1.03486
1.03118
1.02573
1.01867
1.01052
1.00192
0.993468
0.985645
0.978781
0.973048
0.968531
0.965189
1.03702
1.03795
1.03745
1.03554
1.03177
1.02616
1.01891
1.01056
1.00175
0.993124
0.985158
0.978188
0.972381
0.967816
0.964446
1.0377
1.03868
1.03817
1.03623
1.03237
1.02661
1.01916
1.01059
1.00157
0.992763
0.984654
0.977578
0.971697
0.967086
0.963688
1.0384
1.03941
1.03892
1.03694
1.03298
1.02706
1.01941
1.01061
1.00138
0.992387
0.984132
0.97695
0.970998
0.96634
0.962917
1.03912
1.04017
1.03968
1.03767
1.0336
1.02752
1.01965
1.01062
1.00117
0.991993
0.983592
0.976304
0.97028
0.965578
0.962131
1.03985
1.04094
1.04046
1.03841
1.03424
1.02798
1.01989
1.01062
1.00095
0.991582
0.983033
0.975639
0.969545
0.9648
0.96133
1.0406
1.04174
1.04126
1.03917
1.03489
1.02845
1.02013
1.01062
1.00072
0.991151
0.982455
0.974955
0.968792
0.964005
0.960514
1.04137
1.04255
1.04208
1.03995
1.03555
1.02893
1.02037
1.0106
1.00046
0.990702
0.981856
0.974252
0.968021
0.963195
0.959684
1.04216
1.04338
1.04292
1.04074
1.03623
1.02941
1.0206
1.01057
1.00019
0.990231
0.981235
0.973528
0.967231
0.962366
0.958837
1.04296
1.04424
1.04378
1.04156
1.03692
1.0299
1.02083
1.01053
0.9999
0.989739
0.980594
0.972783
0.966422
0.961521
0.957976
1.04379
1.04511
1.04467
1.0424
1.03763
1.03039
1.02105
1.01047
0.999589
0.989224
0.979928
0.972016
0.965593
0.960657
0.957099
1.04463
1.04601
1.04557
1.04326
1.03835
1.03089
1.02127
1.01039
0.999258
0.988686
0.97924
0.971228
0.964744
0.959776
0.956206
1.0455
1.04692
1.0465
1.04414
1.03908
1.03139
1.02148
1.0103
0.998904
0.988124
0.978527
0.970416
0.963874
0.958876
0.955296
1.04638
1.04787
1.04746
1.04504
1.03983
1.03189
1.02168
1.0102
0.998527
0.987536
0.97779
0.969582
0.962983
0.957958
0.954371
1.04729
1.04883
1.04844
1.04596
1.04059
1.0324
1.02187
1.01007
0.998125
0.98692
0.977025
0.968722
0.96207
0.95702
0.953429
1.04822
1.04982
1.04944
1.04691
1.04137
1.0329
1.02205
1.00992
0.997696
0.986278
0.976234
0.967839
0.961136
0.956064
0.95247
1.04917
1.05084
1.05047
1.04788
1.04217
1.03341
1.02222
1.00975
0.99724
0.985605
0.975415
0.966929
0.960178
0.955088
0.951495
1.05015
1.05188
1.05153
1.04887
1.04297
1.03392
1.02237
1.00956
0.996754
0.984903
0.974567
0.965994
0.959199
0.954092
0.950503
1.05115
1.05296
1.05262
1.04989
1.04379
1.03443
1.02251
1.00934
0.996238
0.984168
0.973689
0.965031
0.958195
0.953076
0.949493
1.05218
1.05406
1.05374
1.05093
1.04463
1.03494
1.02263
1.00909
0.995689
0.983401
0.97278
0.964042
0.957168
0.952041
0.948467
1.05324
1.05518
1.05489
1.052
1.04548
1.03545
1.02273
1.00881
0.995105
0.982599
0.971839
0.963024
0.956117
0.950984
0.947423
1.05432
1.05634
1.05607
1.0531
1.04634
1.03595
1.02281
1.00851
0.994486
0.981762
0.970866
0.961977
0.955041
0.949907
0.946362
1.05543
1.05754
1.05728
1.05422
1.04722
1.03644
1.02287
1.00816
0.993828
0.980887
0.969858
0.960901
0.95394
0.948809
0.945283
1.05657
1.05876
1.05853
1.05538
1.04811
1.03693
1.0229
1.00778
0.99313
0.979973
0.968816
0.959795
0.952814
0.947689
0.944186
1.05774
1.06002
1.05981
1.05656
1.04901
1.03741
1.02291
1.00736
0.99239
0.979019
0.967737
0.958657
0.951661
0.946548
0.943072
1.05894
1.06131
1.06113
1.05777
1.04992
1.03787
1.02288
1.00691
0.991607
0.978023
0.966622
0.957489
0.950483
0.945386
0.94194
1.06017
1.06264
1.06248
1.05901
1.05085
1.03832
1.02282
1.0064
0.990776
0.976984
0.965469
0.956289
0.949278
0.944202
0.940789
1.06144
1.06401
1.06388
1.06028
1.05178
1.03876
1.02273
1.00585
0.989897
0.9759
0.964277
0.955056
0.948047
0.942996
0.939621
1.06274
1.06542
1.06532
1.06158
1.05272
1.03918
1.02259
1.00525
0.988967
0.97477
0.963044
0.953789
0.946788
0.941767
0.938435
1.06408
1.06687
1.0668
1.06291
1.05367
1.03957
1.02241
1.00459
0.987984
0.973591
0.961772
0.95249
0.945503
0.940517
0.937231
1.06546
1.06837
1.06832
1.06428
1.05462
1.03994
1.02218
1.00388
0.986945
0.972363
0.960457
0.951155
0.944189
0.939244
0.936008
1.06687
1.06991
1.06989
1.06567
1.05558
1.04028
1.0219
1.00311
0.985848
0.971084
0.9591
0.949787
0.942847
0.937949
0.934767
1.06833
1.07149
1.07151
1.0671
1.05653
1.04058
1.02157
1.00228
0.98469
0.969752
0.957698
0.948383
0.941477
0.936631
0.933508
1.06983
1.07313
1.07318
1.06856
1.05749
1.04085
1.02117
1.00137
0.983469
0.968366
0.956253
0.946944
0.94008
0.935291
0.932231
1.07137
1.07481
1.0749
1.07006
1.05843
1.04108
1.02071
1.0004
0.982182
0.966924
0.954762
0.945468
0.938653
0.933928
0.930935
1.07296
1.07655
1.07667
1.07158
1.05937
1.04125
1.02018
0.999352
0.980827
0.965425
0.953226
0.943957
0.937198
0.932543
0.929621
1.07459
1.07835
1.0785
1.07313
1.0603
1.04138
1.01957
0.998223
0.979402
0.963867
0.951642
0.942408
0.935715
0.931134
0.928289
1.07628
1.0802
1.08038
1.07472
1.06121
1.04144
1.01887
0.997012
0.977903
0.962249
0.950012
0.940824
0.934203
0.929704
0.926939
1.07802
1.08212
1.08233
1.07633
1.0621
1.04143
1.01809
0.995714
0.976329
0.96057
0.948333
0.939201
0.932661
0.92825
0.925571
1.07981
1.0841
1.08433
1.07797
1.06295
1.04136
1.01722
0.994324
0.974677
0.95883
0.946607
0.937543
0.931092
0.926774
0.924185
1.08166
1.08615
1.0864
1.07964
1.06378
1.04119
1.01624
0.992837
0.972944
0.957025
0.944831
0.935846
0.929494
0.925276
0.922781
1.08356
1.08827
1.08854
1.08133
1.06456
1.04094
1.01516
0.991251
0.971129
0.955156
0.943007
0.934113
0.927867
0.923755
0.921359
1.08553
1.09046
1.09074
1.08303
1.06529
1.04059
1.01396
0.989561
0.969229
0.953222
0.941133
0.932342
0.926212
0.922213
0.91992
1.08756
1.09273
1.09302
1.08475
1.06597
1.04013
1.01264
0.987762
0.967243
0.951222
0.93921
0.930535
0.924529
0.920648
0.918463
1.08966
1.09509
1.09536
1.08648
1.06657
1.03954
1.01119
0.985851
0.965169
0.949155
0.937237
0.928691
0.922817
0.919062
0.916989
1.09183
1.09754
1.09778
1.08822
1.0671
1.03883
1.0096
0.983824
0.963005
0.947022
0.935215
0.92681
0.921079
0.917455
0.915498
1.09407
1.10007
1.10027
1.08995
1.06753
1.03797
1.00787
0.981676
0.960749
0.94482
0.933144
0.924893
0.919312
0.915826
0.91399
1.0964
1.10271
1.10284
1.09168
1.06786
1.03696
1.00598
0.979405
0.958402
0.942552
0.931024
0.922941
0.91752
0.914177
0.912466
1.0988
1.10545
1.10548
1.09338
1.06807
1.03578
1.00394
0.977008
0.95596
0.940217
0.928856
0.920953
0.9157
0.912507
0.910925
1.10129
1.1083
1.10819
1.09505
1.06814
1.03441
1.00173
0.974482
0.953426
0.937814
0.926641
0.918931
0.913855
0.910817
0.909369
1.10387
1.11127
1.11098
1.09668
1.06806
1.03285
0.99934
0.971824
0.950797
0.935346
0.924378
0.916875
0.911985
0.909108
0.907798
1.10655
1.11436
1.11384
1.09825
1.0678
1.03109
0.996773
0.969032
0.948074
0.932811
0.92207
0.914786
0.91009
0.90738
0.906211
1.10933
1.11758
1.11676
1.09975
1.06736
1.02909
0.994018
0.966106
0.945258
0.930212
0.919717
0.912665
0.908171
0.905633
0.90461
1.11222
1.12093
1.11975
1.10116
1.06669
1.02686
0.99107
0.963044
0.942349
0.92755
0.91732
0.910513
0.906229
0.903868
0.902995
1.11522
1.12443
1.12279
1.10245
1.06579
1.02438
0.987924
0.959846
0.939348
0.924826
0.914881
0.908331
0.904264
0.902086
0.901366
1.11835
1.12808
1.12588
1.1036
1.06463
1.02163
0.984576
0.956513
0.936258
0.922042
0.912401
0.90612
0.902278
0.900287
0.899724
1.12161
1.13189
1.12901
1.10458
1.06317
1.01859
0.981023
0.953046
0.93308
0.9192
0.909883
0.903882
0.900271
0.898472
0.898069
1.12501
1.13586
1.13215
1.10537
1.0614
1.01526
0.977263
0.949447
0.929818
0.916303
0.907327
0.901618
0.898245
0.896641
0.896402
1.12857
1.14001
1.13531
1.10593
1.05928
1.01163
0.973295
0.945719
0.926472
0.913352
0.904737
0.89933
0.8962
0.894796
0.894724
1.13229
1.14434
1.13844
1.10623
1.05679
1.00767
0.96912
0.941866
0.923049
0.910351
0.902114
0.897018
0.894138
0.892937
0.893034
1.13618
1.14885
1.14154
1.10622
1.05389
1.00339
0.964741
0.937893
0.91955
0.907303
0.89946
0.894685
0.892059
0.891065
0.891334
1.14026
1.15354
1.14456
1.10585
1.05056
0.998777
0.960163
0.933804
0.915981
0.904211
0.896778
0.892332
0.889965
0.889181
0.889624
1.14456
1.15843
1.14748
1.10509
1.04677
0.993823
0.955391
0.929606
0.912346
0.901079
0.894071
0.889961
0.887857
0.887285
0.887905
1.14907
1.1635
1.15025
1.10387
1.04248
0.988528
0.950434
0.925307
0.90865
0.897911
0.891342
0.887574
0.885736
0.885378
0.886178
1.15384
1.16876
1.15283
1.10215
1.03767
0.982894
0.945301
0.920913
0.904899
0.894711
0.888592
0.885173
0.883604
0.883462
0.884442
1.15887
1.17419
1.15515
1.09987
1.03232
0.976926
0.940005
0.916435
0.901098
0.891483
0.885827
0.88276
0.881461
0.881538
0.8827
1.16419
1.17979
1.15717
1.09696
1.0264
0.970633
0.934559
0.911879
0.897254
0.888231
0.883047
0.880336
0.87931
0.879606
0.880951
1.16983
1.18553
1.1588
1.09336
1.0199
0.964031
0.928981
0.907258
0.893373
0.884961
0.880257
0.877903
0.877151
0.877667
0.879196
1.17582
1.19138
1.15996
1.08901
1.01281
0.957138
0.923286
0.902579
0.889461
0.881677
0.877459
0.875465
0.874986
0.875723
0.877436
1.18218
1.19732
1.16057
1.08385
1.00512
0.949978
0.917495
0.897854
0.885526
0.878384
0.874658
0.873022
0.872817
0.873775
0.875673
1.18896
1.20329
1.16053
1.07781
0.996845
0.942581
0.911627
0.893093
0.881575
0.875088
0.871855
0.870577
0.870645
0.871823
0.873907
1.19619
1.20923
1.15972
1.07084
0.987987
0.934981
0.905702
0.888306
0.877615
0.871793
0.869054
0.868132
0.868471
0.86987
0.872138
1.20391
1.21508
1.15803
1.06287
0.978576
0.927217
0.899742
0.883504
0.873653
0.868504
0.866259
0.865689
0.866298
0.867916
0.870368
1.21215
1.22073
1.15534
1.05387
0.968648
0.919333
0.893767
0.878697
0.869698
0.865227
0.863473
0.86325
0.864127
0.865964
0.868599
1.22096
1.22608
1.1515
1.04381
0.958252
0.911375
0.887796
0.873894
0.865756
0.861968
0.860698
0.860818
0.861961
0.864013
0.86683
1.23037
1.23099
1.14637
1.03265
0.947453
0.903392
0.881849
0.869106
0.861837
0.85873
0.857938
0.858395
0.8598
0.862068
0.865063
1.24041
1.23531
1.13982
1.0204
0.936329
0.895433
0.875942
0.864342
0.857947
0.85552
0.855197
0.855984
0.857649
0.860128
0.8633
1.25112
1.23885
1.13168
1.00709
0.924973
0.887547
0.870089
0.859612
0.854095
0.852343
0.852477
0.853587
0.855507
0.858196
0.861541