/*--------------------------------*- C++ -*----------------------------------*\
  =========                 |
  \\      /  F ield         | OpenFOAM: The Open Source CFD Toolbox
   \\    /   O peration     | Website:  https://openfoam.org
    \\  /    A nd           | Version:  6.0
     \\/     M anipulation  |
\*---------------------------------------------------------------------------*/
FoamFile
{
    version     2.0;
    format      ascii;
    class       surfaceScalarField;
    location    "8.6";
    object      phi;
}
// * * * * * * * * * * * * * * * * * * * * * * * * * * * * * * * * * * * * * //

dimensions      [0 3 -1 0 0 0 0];

internalField   nonuniform List<scalar> 
68636
(
3.02281e-05
0.00310561
1.50895e-09
6.08419e-05
0.00307075
9.109e-05
0.00300254
0.000120479
0.00290148
0.000148621
0.00276862
0.000175171
0.0026054
0.000199814
0.00241364
0.000222267
0.00219545
0.00024227
0.00195326
0.000259598
0.00168973
0.000274052
0.00140776
0.000285472
0.00111042
0.000293734
0.000801024
0.000298723
0.000482749
0.000157869
0.000299761
2.99491e-05
0.00307565
6.49309e-09
6.02851e-05
0.00304041
9.02584e-05
0.00297256
0.00011938
0.00287236
0.000147266
0.00274073
0.000173574
0.00257909
0.000197992
0.00238921
0.00022024
0.00217319
0.00024006
0.00193343
0.00025723
0.00167255
0.000271553
0.00139343
0.000282868
0.00109909
0.000291071
0.000792809
0.000295939
0.000477864
0.000156739
0.000297041
2.96723e-05
0.00304597
1.17037e-08
5.9733e-05
0.00301035
8.94342e-05
0.00294286
0.000118292
0.0028435
0.000145925
0.0027131
0.000171993
0.00255302
0.00019619
0.00236501
0.000218234
0.00215115
0.000237874
0.00191379
0.000254887
0.00165554
0.00026908
0.00137923
0.00028029
0.00108788
0.00028842
0.000784681
0.000293287
0.000473
0.000155473
0.000294564
2.93981e-05
0.00301656
1.696e-08
5.9186e-05
0.00298056
8.86177e-05
0.00291343
0.000117213
0.0028149
0.000144596
0.00268571
0.000170427
0.00252718
0.000194404
0.00234103
0.000216248
0.0021293
0.000235708
0.00189432
0.000252565
0.00163867
0.000266628
0.00136516
0.000277734
0.00107677
0.000285784
0.000776622
0.000290637
0.000468134
0.000154072
0.000292017
2.91262e-05
0.00298741
2.24311e-08
5.86439e-05
0.00295104
8.78085e-05
0.00288426
0.000116145
0.00278657
0.000143278
0.00265858
0.000168875
0.00250159
0.000192633
0.00231727
0.000214278
0.00210765
0.000233561
0.00187504
0.000250264
0.00162197
0.000264198
0.00135123
0.000275202
0.00106577
0.00028317
0.000768657
0.000287987
0.000463322
0.000152643
0.000289428
2.88567e-05
0.00295852
2.79215e-08
5.81065e-05
0.00292179
8.70065e-05
0.00285536
0.000115086
0.00275849
0.000141973
0.00263169
0.000167337
0.00247622
0.000190878
0.00229373
0.000212326
0.0020862
0.000231432
0.00185593
0.000247983
0.00160542
0.00026179
0.00133742
0.000272694
0.00105486
0.000280582
0.000760761
0.000285355
0.000458538
0.00015115
0.000286831
2.85895e-05
0.0029299
3.33433e-08
5.75739e-05
0.00289281
8.62116e-05
0.00282672
0.000114036
0.00273066
0.000140679
0.00260504
0.000165812
0.00245109
0.00018914
0.0022704
0.000210391
0.00206495
0.000229324
0.001837
0.000245723
0.00158902
0.000259404
0.00132374
0.000270209
0.00104406
0.000278021
0.000752952
0.000282748
0.000453816
0.000149673
0.000284238
2.83247e-05
0.00290154
3.86748e-08
5.70461e-05
0.00286409
8.54237e-05
0.00279834
0.000112995
0.00270309
0.000139396
0.00257864
0.000164301
0.00242618
0.000187416
0.00224728
0.000208474
0.00204389
0.000227234
0.00181823
0.000243483
0.00157277
0.00025704
0.00131018
0.000267747
0.00103335
0.000275484
0.000745209
0.000280166
0.000449125
0.000148165
0.000281659
2.80623e-05
0.00287343
4.37917e-08
5.65229e-05
0.00283563
8.4643e-05
0.00277022
0.000111964
0.00267577
0.000138125
0.00255248
0.000162804
0.0024015
0.000185708
0.00222438
0.000206574
0.00202303
0.000225163
0.00179964
0.000241264
0.00155667
0.000254697
0.00129675
0.000265307
0.00102274
0.000272973
0.000737546
0.00027761
0.000444493
0.000146685
0.000279103
2.78023e-05
0.00284558
4.8649e-08
5.60045e-05
0.00280743
8.38693e-05
0.00274236
0.000110942
0.0026487
0.000136866
0.00252656
0.00016132
0.00237705
0.000184016
0.00220168
0.000204691
0.00200235
0.000223111
0.00178122
0.000239065
0.00154071
0.000252375
0.00128343
0.000262889
0.00101222
0.000270484
0.000729945
0.000275079
0.00043989
0.000145178
0.000276573
2.75447e-05
0.00281798
5.32133e-08
5.54908e-05
0.00277948
8.31025e-05
0.00271475
0.00010993
0.00262187
0.000135617
0.00250087
0.000159849
0.00235282
0.000182338
0.00217919
0.000202826
0.00198186
0.000221077
0.00176297
0.000236886
0.0015249
0.000250075
0.00127025
0.000260493
0.00100181
0.000268019
0.000722423
0.000272573
0.000435342
0.000143698
0.000274067
2.72895e-05
0.00279063
5.74374e-08
5.49818e-05
0.00275179
8.23427e-05
0.00268738
0.000108926
0.00259529
0.00013438
0.00247541
0.000158391
0.0023288
0.000180676
0.00215691
0.000200976
0.00196156
0.000219062
0.00174488
0.000234727
0.00150924
0.000247795
0.00125718
0.000258119
0.000991477
0.000265577
0.00071496
0.000270091
0.00043082
0.000142193
0.000271584
2.70367e-05
0.00276354
6.13292e-08
5.44773e-05
0.00272435
8.15896e-05
0.00266027
0.000107931
0.00256895
0.000133154
0.00245019
0.000156946
0.00230501
0.000179028
0.00213483
0.000199144
0.00194145
0.000217065
0.00172697
0.000232587
0.00149372
0.000245536
0.00124423
0.000255766
0.00098125
0.000263157
0.000707573
0.000267631
0.000426351
0.000140716
0.000269121
2.67863e-05
0.00273669
6.4906e-08
5.39775e-05
0.00269716
8.08434e-05
0.00263341
0.000106945
0.00254284
0.000131939
0.0024252
0.000155515
0.00228144
0.000177395
0.00211294
0.000197328
0.00192151
0.000215086
0.00170921
0.000230467
0.00147833
0.000243298
0.00123139
0.000253435
0.000971109
0.000260759
0.000700245
0.000265194
0.000421909
0.00013922
0.000266678
2.65382e-05
0.00271008
6.82114e-08
5.34822e-05
0.00267021
8.01038e-05
0.00260678
0.000105968
0.00251698
0.000130735
0.00240043
0.000154096
0.00225808
0.000175778
0.00209126
0.000195529
0.00190176
0.000213125
0.00169161
0.000228366
0.00146309
0.000241081
0.00121868
0.000251126
0.000961067
0.000258383
0.000692992
0.000262779
0.000417519
0.000137757
0.000264255
2.62925e-05
0.00268372
7.13205e-08
5.29913e-05
0.00264351
7.93709e-05
0.0025804
0.000105
0.00249135
0.000129541
0.00237589
0.00015269
0.00223492
0.000174174
0.00206978
0.000193746
0.00188219
0.000211182
0.00167417
0.000226284
0.00144799
0.000238883
0.00120608
0.000248837
0.000951109
0.00025603
0.000685795
0.000260386
0.000413156
0.000136281
0.000261852
2.60491e-05
0.00265759
7.43127e-08
5.2505e-05
0.00261706
7.86446e-05
0.00255427
0.000104041
0.00246595
0.000128358
0.00235157
0.000151297
0.00221199
0.000172585
0.00204849
0.000191979
0.0018628
0.000209257
0.0016569
0.000224222
0.00143303
0.000236706
0.0011936
0.00024657
0.000941248
0.000253698
0.000678672
0.000258015
0.000408845
0.000134838
0.00025947
2.58079e-05
0.00263171
7.72676e-08
5.2023e-05
0.00259084
7.79249e-05
0.00252836
0.00010309
0.00244079
0.000127186
0.00232748
0.000149916
0.00218926
0.000171011
0.00202739
0.000190228
0.00184358
0.000207349
0.00163978
0.000222178
0.00141819
0.000234549
0.00118122
0.000244323
0.00093147
0.000251387
0.000671604
0.000255666
0.00040456
0.000133384
0.000257109
2.55689e-05
0.00260606
8.02585e-08
5.15455e-05
0.00256487
7.72116e-05
0.0025027
0.000102148
0.00241585
0.000126025
0.0023036
0.000148547
0.00216674
0.000169451
0.00200649
0.000188494
0.00182453
0.000205458
0.00162281
0.000220153
0.0014035
0.000232412
0.00116897
0.000242097
0.000921788
0.000249097
0.000664608
0.000253338
0.000400324
0.000131963
0.000254771
2.53322e-05
0.00258064
8.33352e-08
5.10722e-05
0.00253913
7.65048e-05
0.00247726
0.000101214
0.00239114
0.000124874
0.00227994
0.000147191
0.00214442
0.000167905
0.00198578
0.000186774
0.00180566
0.000203585
0.001606
0.000218146
0.00138894
0.000230294
0.00115682
0.000239891
0.000912187
0.000246828
0.000657667
0.000251032
0.000396115
0.00013053
0.000252455
2.50976e-05
0.00255546
8.65307e-08
5.06033e-05
0.00251362
7.58043e-05
0.00245206
0.000100289
0.00236666
0.000123733
0.00225649
0.000145848
0.0021223
0.000166373
0.00196525
0.000185071
0.00178697
0.000201729
0.00158934
0.000216158
0.00137451
0.000228195
0.00114478
0.000237706
0.000902679
0.00024458
0.000650797
0.000248747
0.000391955
0.000129129
0.000250159
2.48652e-05
0.0025305
8.98591e-08
5.01385e-05
0.00248835
7.51102e-05
0.00242709
9.93716e-05
0.0023424
0.000122603
0.00223326
0.000144516
0.00210039
0.000164855
0.00194491
0.000183383
0.00176844
0.000199889
0.00157284
0.000214187
0.00136021
0.000226116
0.00113285
0.00023554
0.000893251
0.000242353
0.00064398
0.000246482
0.00038782
0.000127718
0.000247884
2.46348e-05
0.00250578
9.33156e-08
4.9678e-05
0.0024633
7.44223e-05
0.00240235
9.84628e-05
0.00231836
0.000121482
0.00221024
0.000143197
0.00207867
0.00016335
0.00192476
0.00018171
0.00175008
0.000198067
0.00155648
0.000212235
0.00134604
0.000224055
0.00112103
0.000233394
0.000883914
0.000240146
0.000637233
0.000244239
0.000383733
0.000126338
0.00024563
2.44066e-05
0.00248127
9.68823e-08
4.92216e-05
0.00243849
7.37406e-05
0.00237783
9.75622e-05
0.00229453
0.000120372
0.00218743
0.000141889
0.00205716
0.00016186
0.00190479
0.000180053
0.00173188
0.000196261
0.00154027
0.000210301
0.001332
0.000222014
0.00110932
0.000231268
0.000874656
0.000237959
0.000630538
0.000242015
0.000379671
0.000124949
0.000243395
2.41804e-05
0.00245699
1.00529e-07
4.87694e-05
0.0024139
7.30651e-05
0.00235353
9.66698e-05
0.00227093
0.000119272
0.00216483
0.000140594
0.00203584
0.000160382
0.001885
0.00017841
0.00171386
0.000194472
0.00152421
0.000208384
0.00131809
0.000219991
0.00109771
0.000229162
0.000865488
0.000235792
0.000623911
0.000239812
0.000375657
0.000123592
0.00024118
2.39562e-05
0.00243293
1.04217e-07
4.83212e-05
0.00238953
7.23956e-05
0.00232946
9.57855e-05
0.00224754
0.000118182
0.00214243
0.00013931
0.00201471
0.000158919
0.00186539
0.000176783
0.00169599
0.000192698
0.00150829
0.000206484
0.0013043
0.000217986
0.00108621
0.000227074
0.000856397
0.000233645
0.000617336
0.00023763
0.000371667
0.000122227
0.000238985
2.3734e-05
0.00240909
1.079e-07
4.78771e-05
0.00236539
7.17322e-05
0.0023056
9.49092e-05
0.00222436
0.000117102
0.00212024
0.000138038
0.00199377
0.000157468
0.00184596
0.00017517
0.00167829
0.000190941
0.00149253
0.000204602
0.00129064
0.000216
0.00107482
0.000225006
0.000847394
0.000231518
0.000610828
0.000235467
0.000367724
0.000120894
0.000236811
2.35138e-05
0.00238546
1.11532e-07
4.7437e-05
0.00234147
7.10749e-05
0.00228196
9.40408e-05
0.0022014
0.000116032
0.00209825
0.000136777
0.00197303
0.000156031
0.00182671
0.000173572
0.00166075
0.0001892
0.0014769
0.000202738
0.00127711
0.000214032
0.00106352
0.000222956
0.000838466
0.00022941
0.000604371
0.000233324
0.000363806
0.000119552
0.000234656
2.32956e-05
0.00236205
1.15067e-07
4.70009e-05
0.00231776
7.04234e-05
0.00225854
9.31803e-05
0.00217864
0.000114971
0.00207646
0.000135528
0.00195247
0.000154607
0.00180763
0.000171989
0.00164337
0.000187475
0.00146141
0.00020089
0.00126369
0.000212082
0.00105233
0.000220925
0.000829625
0.000227321
0.000597979
0.0002312
0.000359932
0.000118241
0.000232522
2.30794e-05
0.00233886
1.18467e-07
4.65686e-05
0.00229427
6.97779e-05
0.00223533
9.23276e-05
0.00215609
0.000113921
0.00205487
0.00013429
0.0019321
0.000153196
0.00178872
0.00017042
0.00162614
0.000185766
0.00144606
0.000199059
0.0012504
0.000210149
0.00104124
0.000218913
0.000820859
0.000225252
0.000591638
0.000229096
0.000356083
0.000116921
0.000230406
2.28651e-05
0.00231587
1.21701e-07
4.61403e-05
0.002271
6.91382e-05
0.00221234
9.14826e-05
0.00213375
0.000112879
0.00203347
0.000133063
0.00191192
0.000151798
0.00176999
0.000168865
0.00160908
0.000184072
0.00143086
0.000197244
0.00123723
0.000208234
0.00103025
0.000216919
0.000812176
0.000223201
0.00058536
0.000227011
0.000352278
0.000115632
0.00022831
2.26527e-05
0.00229309
1.24754e-07
4.57159e-05
0.00224794
6.85043e-05
0.00218955
9.06453e-05
0.00211161
0.000111847
0.00201227
0.000131848
0.00189192
0.000150412
0.00175142
0.000167325
0.00159216
0.000182393
0.00141579
0.000195446
0.00122417
0.000206337
0.00101936
0.000214944
0.000803567
0.000221169
0.000579132
0.000224945
0.000348497
0.000114335
0.000226233
2.24422e-05
0.00227052
1.27625e-07
4.52953e-05
0.00222508
6.78761e-05
0.00216697
8.98156e-05
0.00208967
0.000110825
0.00199126
0.000130643
0.0018721
0.000149039
0.00173303
0.000165798
0.0015754
0.00018073
0.00140086
0.000193665
0.00121124
0.000204457
0.00100857
0.000212986
0.000795041
0.000219155
0.000572967
0.000222897
0.00034476
0.000113068
0.000224174
2.22336e-05
0.00224816
1.30326e-07
4.48785e-05
0.00220244
6.72537e-05
0.00214459
8.89934e-05
0.00206793
0.000109811
0.00197044
0.00012945
0.00185246
0.000147679
0.0017148
0.000164286
0.0015588
0.000179082
0.00138606
0.0001919
0.00119842
0.000202594
0.000997869
0.000211046
0.000786587
0.00021716
0.00056685
0.000220869
0.000341046
0.000111794
0.000222134
2.2027e-05
0.002226
1.32884e-07
4.44655e-05
0.00218
6.66369e-05
0.00212242
8.81787e-05
0.00204638
0.000108807
0.00194981
0.000128267
0.001833
0.00014633
0.00169674
0.000162787
0.00154234
0.000177449
0.0013714
0.000190151
0.00118572
0.000200749
0.000987273
0.000209124
0.000778214
0.000215183
0.000560795
0.000218859
0.000337376
0.000110549
0.000220113
2.18222e-05
0.00220404
1.35335e-07
4.40563e-05
0.00215776
6.60257e-05
0.00210045
8.73714e-05
0.00202504
0.000107812
0.00192937
0.000127096
0.00181372
0.000144994
0.00167884
0.000161302
0.00152603
0.000175831
0.00135687
0.000188417
0.00117313
0.00019892
0.000976769
0.000207219
0.000769912
0.000213224
0.000554787
0.000216867
0.000333728
0.000109298
0.00021811
2.16192e-05
0.00218228
1.3772e-07
4.36508e-05
0.00213573
6.542e-05
0.00207868
8.65714e-05
0.00200389
0.000106826
0.00190912
0.000125934
0.00179461
0.000143671
0.0016611
0.00015983
0.00150987
0.000174228
0.00134247
0.0001867
0.00116066
0.000197107
0.000966364
0.000205332
0.00076169
0.000211283
0.00054884
0.000214893
0.000330122
0.000108075
0.000216126
2.14182e-05
0.00216072
1.4008e-07
4.32489e-05
0.0021139
6.48199e-05
0.00205711
8.57788e-05
0.00198293
0.000105849
0.00188904
0.000124784
0.00177567
0.000142359
0.00164352
0.000158372
0.00149386
0.000172639
0.00132821
0.000184998
0.0011483
0.000195311
0.00095605
0.000203462
0.000753536
0.000209359
0.00054294
0.000212938
0.000326539
0.000106845
0.00021416
2.12189e-05
0.00213936
1.42453e-07
4.28507e-05
0.00209227
6.42252e-05
0.00203574
8.49933e-05
0.00196216
0.000104881
0.00186916
0.000123644
0.00175691
0.000141059
0.00162611
0.000156927
0.00147799
0.000171064
0.00131407
0.000183312
0.00113605
0.000193532
0.000945832
0.000201609
0.000745462
0.000207454
0.0005371
0.000211
0.000322998
0.000105643
0.000212211
2.10215e-05
0.0021182
1.44869e-07
4.24562e-05
0.00207084
6.3636e-05
0.00201456
8.4215e-05
0.00194158
0.000103922
0.00184945
0.000122514
0.00173832
0.000139771
0.00160885
0.000155495
0.00146227
0.000169504
0.00130006
0.000181641
0.00112392
0.000191769
0.000935702
0.000199773
0.000737455
0.000205565
0.000531305
0.00020908
0.000319478
0.000104434
0.000210281
2.0826e-05
0.00209722
1.47349e-07
4.20653e-05
0.0020496
6.30521e-05
0.00199357
8.34438e-05
0.00192119
0.000102972
0.00182992
0.000121394
0.0017199
0.000138495
0.00159175
0.000154076
0.00144669
0.000167959
0.00128618
0.000179986
0.00111189
0.000190022
0.000925669
0.000197954
0.000729525
0.000203694
0.000525569
0.000207178
0.000315999
0.000103252
0.000208368
2.06322e-05
0.00207644
1.49903e-07
4.16779e-05
0.00202855
6.24735e-05
0.00197277
8.26796e-05
0.00190098
0.00010203
0.00181057
0.000120285
0.00170164
0.000137231
0.0015748
0.00015267
0.00143125
0.000166427
0.00127242
0.000178345
0.00109997
0.000188291
0.000915721
0.000196152
0.000721662
0.00020184
0.000519877
0.000205293
0.000312542
0.000102064
0.000206473
2.04402e-05
0.00205585
1.52532e-07
4.12941e-05
0.0020077
6.19003e-05
0.00195217
8.19223e-05
0.00188096
0.000101097
0.0017914
0.000119186
0.00168355
0.000135978
0.00155801
0.000151277
0.00141595
0.000164909
0.00125879
0.00017672
0.00108816
0.000186576
0.000905868
0.000194366
0.000713874
0.000200003
0.000514244
0.000203425
0.000309125
0.000100903
0.000204595
2.02499e-05
0.00203544
1.55226e-07
4.09137e-05
0.00198703
6.13322e-05
0.00193175
8.1172e-05
0.00186112
0.000100172
0.0017724
0.000118097
0.00166563
0.000134736
0.00154137
0.000149897
0.00140079
0.000163406
0.00124528
0.000175109
0.00107646
0.000184876
0.000896099
0.000192596
0.000706152
0.000198183
0.000508654
0.000201574
0.000305729
9.9736e-05
0.000202734
2.00614e-05
0.00201522
1.57972e-07
4.05369e-05
0.00196656
6.07694e-05
0.00191152
8.04285e-05
0.00184146
9.92556e-05
0.00175357
0.000117018
0.00164787
0.000133506
0.00152489
0.000148529
0.00138577
0.000161916
0.00123189
0.000173513
0.00106486
0.000183192
0.000886423
0.000190843
0.000698504
0.000196379
0.000503121
0.000199741
0.000302373
9.85951e-05
0.00020089
1.98747e-05
0.00199519
1.60748e-07
4.01635e-05
0.00194627
6.02116e-05
0.00189147
7.96918e-05
0.00182198
9.83476e-05
0.00173491
0.000115948
0.00163026
0.000132287
0.00150855
0.000147174
0.00137088
0.000160439
0.00121863
0.000171932
0.00105337
0.000181524
0.00087683
0.000189105
0.00069092
0.000194592
0.000497631
0.000197924
0.000299037
9.74481e-05
0.000199063
1.96897e-05
0.00197534
1.6353e-07
3.97936e-05
0.00192617
5.9659e-05
0.0018716
7.89619e-05
0.00180268
9.74479e-05
0.00171643
0.000114889
0.00161282
0.000131079
0.00149236
0.000145831
0.00135613
0.000158976
0.00120548
0.000170365
0.00104198
0.00017987
0.000867327
0.000187384
0.00068341
0.000192822
0.000492197
0.000196123
0.00029574
9.6327e-05
0.000197253
1.95063e-05
0.00195566
1.66291e-07
3.9427e-05
0.00190624
5.91114e-05
0.00185192
7.82386e-05
0.00178355
9.65565e-05
0.00169811
0.000113839
0.00159554
0.000129882
0.00147631
0.000144501
0.00134151
0.000157527
0.00119246
0.000168813
0.00103069
0.000178232
0.000857907
0.000185678
0.000675961
0.000191067
0.000486805
0.00019434
0.000292464
9.51998e-05
0.00019546
1.93247e-05
0.00193617
1.69005e-07
3.90638e-05
0.00188651
5.85689e-05
0.00183241
7.75219e-05
0.0017646
9.56732e-05
0.00167996
0.000112799
0.00157842
0.000128696
0.00146042
0.000143182
0.00132702
0.000156091
0.00117955
0.000167275
0.00101951
0.000176609
0.000848575
0.000183988
0.000668585
0.000189329
0.000481467
0.000192572
0.000289225
9.40979e-05
0.000193682
1.91447e-05
0.00191685
1.71645e-07
3.87039e-05
0.00186695
5.80313e-05
0.00181309
7.68117e-05
0.00174582
9.4798e-05
0.00166197
0.000111768
0.00156145
0.000127521
0.00144466
0.000141876
0.00131267
0.000154668
0.00116676
0.000165751
0.00100842
0.000175001
0.000839323
0.000182313
0.00066127
0.000187606
0.000476171
0.000190821
0.000286006
9.29902e-05
0.000191922
1.89664e-05
0.00189771
1.74192e-07
3.83473e-05
0.00184757
5.74986e-05
0.00179394
7.6108e-05
0.00172721
9.39307e-05
0.00164415
0.000110746
0.00154463
0.000126357
0.00142905
0.000140582
0.00129844
0.000153258
0.00115408
0.000164241
0.000997443
0.000173407
0.000830159
0.000180654
0.000654026
0.0001859
0.000470929
0.000189086
0.000282825
9.19073e-05
0.000190177
1.87897e-05
0.00187875
1.76627e-07
3.7994e-05
0.00182836
5.69708e-05
0.00177496
7.54108e-05
0.00170877
9.30714e-05
0.00162649
0.000109734
0.00152797
0.000125203
0.00141358
0.000139299
0.00128435
0.00015186
0.00114152
0.000162744
0.000986557
0.000171828
0.000821073
0.00017901
0.000646842
0.000184209
0.000465728
0.000187367
0.000279664
9.08187e-05
0.000188448
1.86147e-05
0.00185995
1.78941e-07
3.76439e-05
0.00180933
5.64478e-05
0.00175615
7.472e-05
0.0016905
9.222e-05
0.00160899
0.000108732
0.00151146
0.00012406
0.00139826
0.000138028
0.00127038
0.000150476
0.00112907
0.000161262
0.000975773
0.000170264
0.000812073
0.000177381
0.000639728
0.000182534
0.000460579
0.000185663
0.000276539
8.97546e-05
0.000186735
1.84413e-05
0.00184133
1.81129e-07
3.7297e-05
0.00179048
5.59296e-05
0.00173752
7.40354e-05
0.00167239
9.13763e-05
0.00159165
0.000107738
0.00149509
0.000122928
0.00138307
0.000136769
0.00125654
0.000149105
0.00111674
0.000159793
0.000965083
0.000168714
0.00080315
0.000175767
0.000632672
0.000180874
0.00045547
0.000183975
0.000273433
8.86848e-05
0.000185038
1.82694e-05
0.00182288
1.83199e-07
3.69533e-05
0.00177179
5.54161e-05
0.00171906
7.33572e-05
0.00165445
9.05404e-05
0.00157447
0.000106753
0.00147888
0.000121805
0.00136801
0.000135522
0.00124282
0.000147746
0.00110451
0.000158337
0.000954493
0.000167178
0.000794311
0.000174168
0.000625685
0.000179229
0.000450413
0.000182303
0.000270363
8.7639e-05
0.000183357
1.80991e-05
0.00180459
1.85162e-07
3.66128e-05
0.00175328
5.49074e-05
0.00170076
7.26851e-05
0.00163667
8.97121e-05
0.00155744
0.000105778
0.00146282
0.000120694
0.0013531
0.000134286
0.00122923
0.000146399
0.0010924
0.000156895
0.000943995
0.000165657
0.000785548
0.000172584
0.000618756
0.000177599
0.000445395
0.000180646
0.000267313
8.65877e-05
0.000181691
1.79304e-05
0.00178648
1.87041e-07
3.62753e-05
0.00173493
5.44033e-05
0.00168264
7.20192e-05
0.00161906
8.88914e-05
0.00154057
0.000104811
0.0014469
0.000119592
0.00133832
0.000133061
0.00121576
0.000145065
0.0010804
0.000155467
0.000933595
0.000164149
0.000776868
0.000171014
0.000611893
0.000175985
0.000440428
0.000179005
0.000264297
8.556e-05
0.00018004
1.77633e-05
0.00176852
1.88861e-07
3.5941e-05
0.00171676
5.39038e-05
0.00166467
7.13594e-05
0.0016016
8.80783e-05
0.00152385
0.000103854
0.00143112
0.0001185
0.00132367
0.000131847
0.00120241
0.000143743
0.0010685
0.000154051
0.000923286
0.000162655
0.000768262
0.000169459
0.000605088
0.000174385
0.000435499
0.000177378
0.0002613
8.45268e-05
0.000178404
1.75977e-05
0.00175074
1.90654e-07
3.56097e-05
0.00169875
5.34089e-05
0.00164688
7.07057e-05
0.00158431
8.72726e-05
0.00150728
0.000102905
0.00141549
0.000117419
0.00130916
0.000130645
0.00118919
0.000142433
0.00105672
0.000152648
0.000913072
0.000161175
0.000759737
0.000167917
0.000598348
0.0001728
0.00043062
0.000175766
0.000258338
8.35168e-05
0.000176784
1.74336e-05
0.00173311
1.92447e-07
3.52814e-05
0.0016809
5.29185e-05
0.00162924
7.00579e-05
0.00156717
8.64743e-05
0.00149087
0.000101965
0.0014
0.000116347
0.00129478
0.000129454
0.00117608
0.000141135
0.00104503
0.000151258
0.000902948
0.000159709
0.000751285
0.000166391
0.000591664
0.000171229
0.000425779
0.000174169
0.000255394
8.25013e-05
0.000175178
1.7271e-05
0.00171565
1.94272e-07
3.49561e-05
0.00166321
5.24326e-05
0.00161176
6.94161e-05
0.00155018
8.56833e-05
0.0014746
0.000101033
0.00138465
0.000115285
0.00128053
0.000128273
0.00116309
0.000139849
0.00103346
0.000149881
0.000892917
0.000158256
0.000742913
0.000164878
0.000585044
0.000169673
0.000420987
0.000172587
0.000252484
8.15086e-05
0.000173588
1.71098e-05
0.00169834
1.96148e-07
3.46339e-05
0.00164569
5.19511e-05
0.00159444
6.87801e-05
0.00153335
8.48995e-05
0.00145848
0.00010011
0.00136944
0.000114233
0.0012664
0.000127104
0.00115022
0.000138575
0.00102199
0.000148517
0.000882975
0.000156816
0.000734613
0.000163379
0.00057848
0.000168131
0.000416232
0.00017102
0.000249592
8.05105e-05
0.000172011
1.69502e-05
0.00168119
1.98093e-07
3.43145e-05
0.00162832
5.14741e-05
0.00157729
6.815e-05
0.00151668
8.4123e-05
0.00144251
9.91957e-05
0.00135436
0.000113191
0.00125241
0.000125945
0.00113747
0.000137313
0.00101062
0.000147165
0.000873124
0.00015539
0.00072639
0.000161894
0.000571978
0.000166604
0.000411526
0.000169467
0.000246734
7.95348e-05
0.00017045
1.6792e-05
0.0016642
2.00112e-07
3.39981e-05
0.00161112
5.10015e-05
0.00156028
6.75257e-05
0.00150015
8.33536e-05
0.00142668
9.82896e-05
0.00133943
0.000112158
0.00123854
0.000124797
0.00112483
0.000136063
0.000999352
0.000145826
0.00086336
0.000153976
0.000718238
0.000160422
0.000565531
0.00016509
0.000406855
0.000167928
0.000243893
7.85538e-05
0.000168903
1.66353e-05
0.00164736
2.02203e-07
3.36846e-05
0.00159407
5.05332e-05
0.00154343
6.69071e-05
0.00148378
8.25912e-05
0.001411
9.73918e-05
0.00132463
0.000111134
0.0012248
0.000123659
0.0011123
0.000134823
0.00098819
0.000144499
0.000853686
0.000152576
0.000710163
0.000158964
0.000559145
0.000163591
0.000402232
0.000166403
0.000241084
7.75947e-05
0.00016737
1.648e-05
0.00163068
2.04353e-07
3.3374e-05
0.00157717
5.00691e-05
0.00152674
6.62942e-05
0.00146755
8.18359e-05
0.00139545
9.65022e-05
0.00130996
0.00011012
0.00121118
0.000122532
0.00109989
0.000133596
0.000977125
0.000143184
0.000844096
0.000151189
0.000702156
0.00015752
0.000552812
0.000162105
0.000397644
0.000164893
0.000238293
7.66302e-05
0.000165851
1.63261e-05
0.00161414
2.06545e-07
3.30662e-05
0.00156043
4.96094e-05
0.0015102
6.56869e-05
0.00145148
8.10875e-05
0.00138005
9.56209e-05
0.00129543
0.000109116
0.00119768
0.000121416
0.00108759
0.000132379
0.000966163
0.000141881
0.000834596
0.000149814
0.000694225
0.000156088
0.000546541
0.000160633
0.000393103
0.000163396
0.000235535
7.56874e-05
0.000164346
1.61737e-05
0.00159776
2.08755e-07
3.27613e-05
0.00154385
4.91539e-05
0.0014938
6.50852e-05
0.00143555
8.03459e-05
0.00136479
9.47477e-05
0.00128103
0.000108121
0.00118431
0.000120309
0.0010754
0.000131174
0.000955297
0.000140591
0.000825178
0.000148453
0.000686362
0.000154671
0.000540321
0.000159175
0.000388597
0.000161913
0.000232792
7.47392e-05
0.000162855
1.60226e-05
0.00158153
2.10955e-07
3.24592e-05
0.00152741
4.87025e-05
0.00147756
6.4489e-05
0.00141976
7.96113e-05
0.00134967
9.38824e-05
0.00126676
0.000107134
0.00117106
0.000119213
0.00106332
0.00012998
0.000944532
0.000139312
0.000815848
0.000147103
0.000678572
0.000153266
0.000534161
0.00015773
0.000384136
0.000160444
0.000230082
7.38122e-05
0.000161378
1.5873e-05
0.00156544
2.13118e-07
3.21598e-05
0.00151112
4.82553e-05
0.00146146
6.38983e-05
0.00140412
7.88833e-05
0.00133468
9.30252e-05
0.00125261
0.000106157
0.00115793
0.000118127
0.00105135
0.000128797
0.000933861
0.000138045
0.000806598
0.000145766
0.000670849
0.000151874
0.000528051
0.000156298
0.00037971
0.000158989
0.000227388
7.28801e-05
0.000159915
1.57247e-05
0.0015495
2.1522e-07
3.18632e-05
0.00149499
4.78123e-05
0.00144552
6.33131e-05
0.00138862
7.81621e-05
0.00131984
9.21759e-05
0.0012386
0.000105189
0.00114491
0.000117051
0.00103949
0.000127625
0.000923289
0.00013679
0.000797435
0.000144442
0.000663199
0.000150495
0.000522001
0.00015488
0.000375328
0.000157547
0.000224726
7.19687e-05
0.000158465
1.55778e-05
0.00153371
2.17241e-07
3.15693e-05
0.00147899
4.73733e-05
0.00142971
6.27332e-05
0.00137326
7.74475e-05
0.00130512
9.13344e-05
0.00122471
0.00010423
0.00113202
0.000115985
0.00102774
0.000126463
0.000912809
0.000135546
0.000788351
0.00014313
0.000655614
0.000149128
0.000516
0.000153474
0.00037098
0.000156118
0.000222079
7.10522e-05
0.000157029
1.54322e-05
0.00151806
2.19166e-07
3.12782e-05
0.00146315
4.69383e-05
0.00141405
6.21587e-05
0.00135804
7.67395e-05
0.00129054
9.05006e-05
0.00121095
0.00010328
0.00111924
0.000114928
0.00101609
0.000125313
0.000902427
0.000134314
0.000779352
0.00014183
0.0006481
0.000147775
0.000510058
0.000152082
0.000366676
0.000154702
0.000219463
7.01561e-05
0.000155605
1.5288e-05
0.00150255
2.20989e-07
3.09897e-05
0.00144745
4.65073e-05
0.00139853
6.15894e-05
0.00134295
7.6038e-05
0.00127609
8.96745e-05
0.00119732
0.000102338
0.00110658
0.000113882
0.00100455
0.000124173
0.000892135
0.000133093
0.00077043
0.000140542
0.00064065
0.000146434
0.000504164
0.000150703
0.000362404
0.0001533
0.000216862
6.92549e-05
0.000154195
1.51451e-05
0.00148718
2.2271e-07
3.07039e-05
0.00143189
4.60804e-05
0.00138316
6.10255e-05
0.00132801
7.5343e-05
0.00126178
8.88561e-05
0.0011838
0.000101405
0.00109403
0.000112845
0.000993107
0.000123043
0.000881938
0.000131883
0.000761591
0.000139265
0.00063327
0.000145105
0.000498326
0.000149336
0.000358176
0.000151911
0.000214292
6.83739e-05
0.000152799
1.50035e-05
0.00147195
2.24339e-07
3.04207e-05
0.00141647
4.56573e-05
0.00136792
6.04667e-05
0.0013132
7.46544e-05
0.00124759
8.80452e-05
0.00117041
0.000100481
0.00108159
0.000111818
0.00098177
0.000121924
0.00087183
0.000130685
0.000752829
0.000138001
0.000625953
0.000143789
0.000492537
0.000147982
0.00035398
0.000150534
0.000211737
6.74877e-05
0.000151415
1.48633e-05
0.00145686
2.2589e-07
3.01401e-05
0.00140119
4.52382e-05
0.00135282
5.9913e-05
0.00129853
7.39721e-05
0.00123353
8.72418e-05
0.00115714
9.95655e-05
0.00106927
0.0001108
0.000970537
0.000120816
0.000861816
0.000129498
0.000744148
0.000136748
0.000618704
0.000142484
0.000486804
0.000146641
0.000349827
0.00014917
0.000209212
6.66212e-05
0.000150044
1.47243e-05
0.00144191
2.27383e-07
2.98621e-05
0.00138606
4.48229e-05
0.00133786
5.93645e-05
0.00128398
7.32961e-05
0.0012196
8.64458e-05
0.00114399
9.86583e-05
0.00105705
0.000109791
0.000959403
0.000119717
0.000851889
0.000128322
0.000735543
0.000135507
0.000611517
0.000141192
0.000481117
0.000145312
0.000345705
0.000147819
0.000206701
6.57497e-05
0.000148685
1.45867e-05
0.0014271
2.28841e-07
2.95867e-05
0.00137106
4.44114e-05
0.00132304
5.8821e-05
0.00126957
7.26264e-05
0.00120579
8.56571e-05
0.00113096
9.77594e-05
0.00104495
0.000108792
0.000948371
0.000118629
0.000842054
0.000127156
0.000727017
0.000134278
0.000604398
0.000139912
0.000475485
0.000143995
0.000341625
0.000146481
0.00020422
6.48975e-05
0.00014734
1.44503e-05
0.00141241
2.30287e-07
2.93138e-05
0.00135619
4.40038e-05
0.00130835
5.82826e-05
0.00125529
7.19629e-05
0.00119211
8.48758e-05
0.00111805
9.68689e-05
0.00103296
0.000107803
0.000937437
0.000117551
0.000832305
0.000126002
0.000718564
0.00013306
0.000597339
0.000138644
0.000469899
0.000142691
0.000337576
0.000145155
0.000201753
6.40403e-05
0.000146006
1.43152e-05
0.00139787
2.31745e-07
2.90434e-05
0.00134146
4.35999e-05
0.00129379
5.77491e-05
0.00124115
7.13055e-05
0.00117856
8.41017e-05
0.00110525
9.59867e-05
0.00102108
0.000106822
0.000926602
0.000116483
0.000822646
0.000124858
0.00071019
0.000131853
0.000590346
0.000137387
0.000464367
0.000141399
0.000333568
0.000143841
0.000199315
6.32021e-05
0.000144686
1.41813e-05
0.00138345
2.33231e-07
2.87755e-05
0.00132687
4.31997e-05
0.00127937
5.72205e-05
0.00122713
7.06542e-05
0.00116512
8.33347e-05
0.00109257
9.51126e-05
0.0010093
0.00010585
0.000915864
0.000115424
0.000813071
0.000123725
0.000701889
0.000130657
0.000583412
0.000136143