/*--------------------------------*- C++ -*----------------------------------*\
  =========                 |
  \\      /  F ield         | OpenFOAM: The Open Source CFD Toolbox
   \\    /   O peration     | Website:  https://openfoam.org
    \\  /    A nd           | Version:  6.0
     \\/     M anipulation  |
\*---------------------------------------------------------------------------*/
FoamFile
{
    version     2.0;
    format      ascii;
    class       volVectorField;
    location    "16";
    object      U;
}
// * * * * * * * * * * * * * * * * * * * * * * * * * * * * * * * * * * * * * //

dimensions      [0 1 -1 0 0 0 0];

internalField   nonuniform List<vector> 
2000
(
(-0.00199145 0.00173799 3.40891e-20)
(-0.00761625 0.00330129 3.62058e-20)
(-0.015317 0.00365789 -3.32152e-20)
(-0.0223108 0.00332997 -6.55309e-20)
(-0.0276424 0.00262847 -4.44454e-20)
(-0.0311605 0.00175681 5.76955e-20)
(-0.0329654 0.000860766 3.28525e-20)
(-0.0333265 4.75615e-05 -1.30219e-20)
(-0.032666 -0.000603195 -3.19392e-20)
(-0.0312823 -0.00102848 1.8782e-20)
(-0.00248954 0.00512038 -8.44859e-20)
(-0.00836541 0.00968181 1.04307e-19)
(-0.0157126 0.0106856 1.00133e-20)
(-0.0220035 0.0096745 -5.62193e-20)
(-0.0264205 0.00756348 2.61161e-19)
(-0.0288888 0.00495027 -1.11999e-19)
(-0.0295563 0.00226434 -1.18447e-19)
(-0.0287194 -0.000174482 1.40015e-19)
(-0.0268185 -0.00212317 -1.35666e-19)
(-0.0242263 -0.00339144 5.52291e-20)
(-0.00343494 0.0082241 1.40327e-20)
(-0.00972309 0.0154046 4.45316e-21)
(-0.01629 0.0168672 3.00764e-19)
(-0.0211222 0.015103 1.02008e-19)
(-0.0236772 0.011576 1.96371e-20)
(-0.0240313 0.00723942 1.58308e-19)
(-0.0224251 0.00278105 -2.93912e-19)
(-0.0192047 -0.00127386 6.24538e-21)
(-0.0148432 -0.00450689 -1.67344e-19)
(-0.00986877 -0.00659663 1.49108e-19)
(-0.0047225 0.0108685 -2.63871e-20)
(-0.0113991 0.0200557 1.35738e-19)
(-0.0166082 0.0216947 -3.80645e-19)
(-0.019115 0.0190992 -4.75927e-20)
(-0.0187895 0.014189 -2.63041e-19)
(-0.0159312 0.00820379 2.65452e-19)
(-0.0109139 0.00204111 -2.75225e-19)
(-0.00414797 -0.00358681 1.8944e-19)
(0.0038537 -0.00806911 7.82356e-20)
(0.0123152 -0.0109465 -7.16991e-20)
(-0.00618492 0.0128779 -2.93497e-19)
(-0.012937 0.0232551 2.34731e-21)
(-0.0159752 0.0247389 4.68743e-19)
(-0.0151132 0.0212826 1.35923e-19)
(-0.0107692 0.0151281 -4.19558e-19)
(-0.00353676 0.00769946 2.54199e-19)
(0.00603925 2.31411e-05 2.8174e-19)
(0.0174796 -0.00704393 -2.46191e-19)
(0.0302413 -0.0126851 1.72473e-19)
(0.0431946 -0.0162968 3.44324e-20)
(-0.0075813 0.0140815 4.01304e-20)
(-0.0136946 0.0246671 6.6528e-21)
(-0.0134247 0.0256721 -5.99064e-19)
(-0.00789881 0.0214448 -3.2413e-19)
(0.00178556 0.0143812 3.7546e-19)
(0.0146665 0.00595632 -4.28467e-19)
(0.0299851 -0.00279659 4.80024e-19)
(0.0471938 -0.0109654 -4.05824e-20)
(0.0657599 -0.0175451 -1.30052e-19)
(0.0840891 -0.0217965 -3.08745e-19)
(-0.00858528 0.0143163 -8.71838e-20)
(-0.0128325 0.0240139 -1.42462e-19)
(-0.00771026 0.0242818 -1.68474e-19)
(0.0041048 0.0195583 3.4764e-19)
(0.0207178 0.0122089 6.26301e-19)
(0.0407183 0.00361106 -1.26109e-19)
(0.063068 -0.00536302 -3.00258e-19)
(0.0871363 -0.0139207 8.97406e-20)
(0.112484 -0.0209743 -5.55572e-19)
(0.136982 -0.0256952 5.00725e-19)
(-0.00878109 0.0134422 5.33156e-19)
(-0.00932936 0.0211008 -2.60253e-19)
(0.00265111 0.0204787 4.89364e-19)
(0.0227702 0.0157523 -7.73191e-19)
(0.0482467 0.00909008 -3.58836e-19)
(0.0771346 0.001652 -4.8441e-19)
(0.108008 -0.00603069 1.37526e-19)
(0.140075 -0.013556 -3.75784e-19)
(0.17312 -0.0199899 8.03928e-19)
(0.204597 -0.0245838 1.85739e-19)
(-0.0076788 0.011371 3.90416e-20)
(-0.00204348 0.0158597 4.23957e-19)
(0.0192685 0.0143031 8.10961e-19)
(0.0501175 0.0102435 2.3981e-19)
(0.0868022 0.00555733 6.89132e-19)
(0.126747 0.00120448 3.68319e-20)
(0.167949 -0.00262103 -4.69201e-22)
(0.209188 -0.00598629 2.59498e-19)
(0.250488 -0.00828815 2.06356e-19)
(0.289451 -0.00980759 -5.57078e-19)
(-0.00476466 0.00811363 -3.15458e-19)
(0.010156 0.00840867 -4.729e-19)
(0.0436746 0.00592172 -6.61884e-19)
(0.0880811 0.0031643 1.50058e-20)
(0.138895 0.00167832 -3.17008e-19)
(0.193012 0.00242558 4.86931e-19)
(0.247861 0.00572849 -1.31087e-18)
(0.30149 0.0117762 5.76988e-19)
(0.353212 0.0211175 2.13318e-19)
(0.400455 0.0298414 5.61497e-19)
(0.00039945 0.00383893 1.57867e-19)
(0.0281427 -0.000850465 -5.40459e-19)
(0.0768711 -0.00428918 4.64565e-19)
(0.137698 -0.00549567 -1.74367e-19)
(0.205767 -0.0034953 1.84161e-19)
(0.278112 0.00263532 3.90928e-19)
(0.352895 0.0136279 -5.13043e-19)
(0.429701 0.0304013 6.54053e-20)
(0.50954 0.0522607 -2.36923e-19)
(0.594894 0.0694518 4.18412e-19)
(0.0080791 -0.00107678 2.25898e-19)
(0.0523092 -0.0110732 -4.89784e-19)
(0.118861 -0.0153509 6.42501e-19)
(0.197949 -0.015048 -3.87104e-19)
(0.28435 -0.0103143 -1.37881e-19)
(0.375006 -0.00101134 7.95534e-20)
(0.468103 0.0127691 4.01989e-20)
(0.563072 0.0307126 5.35042e-19)
(0.659609 0.0501785 1.51321e-19)
(0.755474 0.0625244 5.66545e-19)
(0.0183821 -0.00607115 -2.01528e-19)
(0.0826944 -0.0209053 6.33046e-19)
(0.169167 -0.0252935 -5.08613e-19)
(0.267333 -0.02286 -5.77163e-19)
(0.371487 -0.0151262 7.84113e-19)
(0.478133 -0.00288791 -5.81278e-19)
(0.584868 0.012922 1.50064e-19)
(0.690135 0.031193 -8.72313e-19)
(0.792194 0.0493026 6.41878e-19)
(0.887102 0.0619024 2.82897e-20)
(0.0313144 -0.0105156 -2.62502e-19)
(0.119098 -0.0287869 -2.27066e-19)
(0.227094 -0.0318219 -4.65461e-19)
(0.344426 -0.0259199 5.45561e-19)
(0.464946 -0.0140568 -2.67986e-20)
(0.584687 0.00206774 3.34078e-19)
(0.700709 0.0208517 5.96024e-19)
(0.810769 0.0407983 -1.7951e-19)
(0.912522 0.0598522 -6.2395e-19)
(1.002 0.0749893 1.08996e-18)
(0.0468059 -0.0138013 -1.35614e-19)
(0.161079 -0.0332138 -1.44809e-19)
(0.291635 -0.0328212 2.51013e-19)
(0.427565 -0.021688 -4.51367e-19)
(0.56248 -0.00426649 7.48214e-20)
(0.692166 0.0168895 6.49716e-20)
(0.813497 0.0396326 2.78823e-20)
(0.924118 0.0622567 -4.33931e-21)
(1.02184 0.0832759 -6.57126e-20)
(1.10334 0.101068 -9.22014e-19)
(0.064698 -0.0153656 5.50593e-19)
(0.207903 -0.032859 -3.43836e-19)
(0.361354 -0.0265746 4.23851e-21)
(0.514593 -0.0083488 -4.87903e-19)
(0.661342 0.0159218 -1.69688e-19)
(0.797513 0.0429088 1.54527e-19)
(0.920267 0.0700415 1.17479e-19)
(1.0277 0.0955272 -4.10273e-19)
(1.11835 0.118396 3.2966e-19)
(1.18989 0.13784 -3.80102e-19)
(0.0847112 -0.0146966 2.37539e-19)
(0.258503 -0.0266313 -1.89e-19)
(0.434349 -0.01186 7.55941e-19)
(0.602848 0.0151125 7.46371e-20)
(0.75832 0.0470618 1.66428e-19)
(0.897294 0.0800324 7.23522e-19)
(1.01774 0.11121 -1.08029e-19)
(1.11872 0.138884 9.68418e-20)
(1.19988 0.162624 3.94653e-20)
(1.26019 0.182119 -4.23921e-20)
(0.106415 -0.0113434 1.65903e-19)
(0.311471 -0.0137156 3.57222e-19)
(0.508304 0.0120098 -3.68506e-19)
(0.689309 0.0489315 -1.20785e-19)
(0.849998 0.0887423 -1.4493e-19)
(0.988079 0.127114 2.18789e-19)
(1.10285 0.161258 -1.11379e-19)
(1.19475 0.189789 2.93779e-19)
(1.26482 0.21291 9.72992e-20)
(1.31344 0.230666 -1.38591e-19)
(0.129215 -0.00494212 -1.78819e-19)
(0.365085 0.00637881 1.42296e-19)
(0.580608 0.0451663 -2.92343e-19)
(0.770805 0.0926221 1.22006e-19)
(0.933051 0.139769 -1.22977e-19)
(1.06681 0.182287 -1.49683e-19)
(1.17314 0.217767 -1.17659e-19)
(1.25419 0.245438 1.28955e-19)
(1.31246 0.266265 -2.39252e-19)
(1.34976 0.280615 1.25868e-19)
(0.152357 0.00474742 -6.3726e-20)
(0.417378 0.033763 -1.11641e-19)
(0.648505 0.0871698 5.1163e-20)
(0.844249 0.145044 3.03305e-21)
(1.00453 0.198336 3.9901e-20)
(1.13106 0.243227 5.34304e-20)
(1.22702 0.2781 4.84868e-20)
(1.29633 0.303085 -6.30015e-20)
(1.34295 0.320031 5.28365e-20)
(1.36998 0.329634 -7.165e-20)
(0.174959 0.0178002 -3.69067e-20)
(0.466246 0.0681186 -1.24029e-20)
(0.709275 0.137012 4.75182e-20)
(0.906858 0.204489 -2.1134e-20)
(1.06204 0.262192 5.48368e-20)
(1.1792 0.307376 -6.9021e-20)
(1.26373 0.339628 1.5618e-20)
(1.32133 0.360233 1.643e-20)
(1.35718 0.371984 -6.80945e-21)
(1.37549 0.375927 2.21564e-20)
(0.196056 0.0340908 -3.98184e-20)
(0.509574 0.108667 -1.61383e-19)
(0.760416 0.193143 -1.07899e-20)
(0.956334 0.268777 3.11569e-21)
(1.10393 0.328793 -1.90168e-19)
(1.21041 0.372108 2.44427e-20)
(1.28336 0.399878 -2.03767e-20)
(1.33003 0.414707 -4.84023e-20)
(1.35656 0.420338 9.95053e-20)
(1.36798 0.418159 -1.55338e-19)
(0.214655 0.0532685 -1.92621e-20)
(0.545374 0.154169 3.27097e-19)
(0.799804 0.253538 5.07021e-20)
(0.990998 0.335385 -2.6818e-19)
(1.1293 0.395453 -2.11487e-20)
(1.22466 0.434863 -2.44077e-19)
(1.28667 0.456608 1.75185e-19)
(1.32379 0.464676 -6.26268e-20)
(1.34279 0.463684 1.09287e-19)
(1.34924 0.455342 -6.83004e-20)
(0.229802 0.0747487 -1.21434e-19)
(0.57192 0.202956 1.0416e-19)
(0.825828 0.315784 -7.23755e-20)
(1.00986 0.401571 5.26841e-19)
(1.13798 0.45947 2.52943e-19)
(1.22263 0.493238 -5.73233e-20)
(1.27497 0.507845 1.89302e-19)
(1.30431 0.508617 -1.22317e-19)
(1.31775 0.500909 -3.38014e-20)
(1.32109 0.486721 1.86995e-19)
(0.24065 0.0977215 -2.10436e-19)
(0.587874 0.253005 2.40192e-19)
(0.837488 0.377207 -4.54962e-19)
(1.01266 0.464515 6.20061e-20)
(1.13052 0.518241 1.35062e-19)
(1.20554 0.545046 -2.00979e-19)
(1.24997 0.551884 -2.31291e-19)
(1.27353 0.545265 1.00189e-19)
(1.28337 0.53111 -1.19244e-19)
(1.28533 0.511683 1.21783e-19)
(0.246518 0.121178 -5.31349e-20)
(0.592368 0.302025 -2.44497e-19)
(0.834434 0.435007 1.29954e-19)
(0.999796 0.521447 2.1239e-19)
(1.10805 0.569341 -1.23722e-19)
(1.17507 0.588343 -9.04864e-20)
(1.21365 0.587255 -5.1109e-20)
(1.23351 0.573549 -2.48539e-20)
(1.2416 0.5535 4.22449e-21)
(1.24369 0.529657 4.55493e-20)
(0.246952 0.143958 3.96001e-20)
(0.585079 0.347595 -2.0703e-19)
(0.816971 0.486409 3.32854e-19)
(0.972292 0.569778 -1.90391e-19)
(1.07219 0.610614 5.34747e-20)
(1.13322 0.621455 -7.34455e-20)
(1.16813 0.612711 7.74621e-20)
(1.18632 0.592529 1.74528e-20)
(1.19436 0.567312 -2.59271e-20)
(1.19786 0.539967 4.23296e-20)
(0.241768 0.16481 -1.0452e-19)
(0.56625 0.387296 1.83466e-19)
(0.786022 0.528819 -7.53074e-21)
(0.931675 0.607218 -3.78314e-20)
(1.02487 0.640237 -9.64237e-20)
(1.08213 0.643017 1.24403e-20)
(1.11568 0.627257 2.10026e-20)
(1.13419 0.601454 -6.15251e-20)
(1.14379 0.571843 6.99598e-20)
(1.14989 0.541822 5.08287e-20)
(0.231089 0.182479 2.80251e-20)
(0.536693 0.418875 -4.40741e-20)
(0.743039 0.559966 9.06187e-21)
(0.879822 0.631863 1.45449e-20)
(0.96817 0.656724 2.86229e-20)
(1.02397 0.65188 -6.17891e-20)
(1.05851 0.629993 -1.30801e-19)
(1.07956 0.599602 -5.28764e-20)
(1.09282 0.566443 -6.6863e-20)
(1.10313 0.534582 4.51227e-20)
(0.215362 0.195809 5.9526e-20)
(0.497743 0.440423 -8.51077e-20)
(0.689904 0.578079 7.92977e-20)
(0.818774 0.642319 -1.48109e-19)
(0.903969 0.658949 3.4586e-20)
(0.960259 0.646883 2.32436e-19)
(0.997853 0.619335 -6.98094e-20)
(1.02374 0.584596 8.04431e-20)
(1.04325 0.547755 1.16539e-19)
(1.05947 0.514645 3.41901e-19)
(0.195357 0.203863 3.91818e-19)
(0.451225 0.45056 -2.37521e-19)
(0.628877 0.582108 5.5824e-19)
(0.750703 0.63808 -9.2303e-20)
(0.83386 0.646853 4.50776e-19)
(0.89155 0.62806 2.75519e-19)
(0.932815 0.594664 -6.32265e-19)
(0.964029 0.553764 9.41968e-19)
(0.989823 0.507712 -1.96139e-19)
(1.00701 0.460322 3.46419e-19)
(0.172138 0.205989 -2.16498e-19)
(0.39941 0.448484 -1.38807e-19)
(0.562682 0.571742 1.30097e-19)
(0.678286 0.619624 -3.08789e-19)
(0.760052 0.622074 -9.36623e-19)
(0.819108 0.598975 -3.67476e-19)
(0.863103 0.563096 -3.23079e-19)
(0.897471 0.521607 1.53827e-19)
(0.925445 0.477976 1.25528e-18)
(0.94332 0.43686 -2.34751e-19)
(0.146966 0.201812 1.14724e-19)
(0.344887 0.433843 -4.1609e-19)
(0.494464 0.546955 8.79031e-20)
(0.604951 0.58725 -6.19001e-19)
(0.686371 0.585064 1.31485e-18)
(0.747614 0.559907 -1.48781e-19)
(0.794896 0.523993 6.82747e-19)
(0.832679 0.484134 -9.57886e-19)
(0.86358 0.443797 2.95446e-19)
(0.885206 0.40705 4.13155e-20)
(0.12118 0.191224 8.46461e-20)
(0.290285 0.406708 4.58597e-19)
(0.427283 0.508046 -1.29723e-18)
(0.533809 0.541324 6.09897e-19)
(0.615877 0.536021 -1.68152e-21)
(0.680136 0.510597 -1.94692e-19)
(0.731439 0.47636 2.39858e-19)
(0.77342 0.439527 -2.33217e-19)
(0.808334 0.403225 -7.86441e-19)
(0.834672 0.370553 -1.94195e-19)
(0.0961042 0.174383 2.77601e-19)
(0.238127 0.367599 2.78604e-19)
(0.36397 0.45574 1.10658e-18)
(0.467588 0.482591 -5.95245e-19)
(0.551021 0.475532 1.19095e-18)
(0.618756 0.45134 -2.49845e-19)
(0.674389 0.420088 -2.57933e-19)
(0.720833 0.387228 2.98821e-19)
(0.76005 0.355425 1.91135e-19)
(0.791179 0.326913 6.24339e-19)
(0.0729983 0.151702 -2.82059e-19)
(0.190737 0.317472 8.24602e-20)
(0.307065 0.391211 2.15382e-20)
(0.408662 0.412213 6.07201e-19)
(0.493849 0.404616 -1.47118e-18)
(0.565136 0.382948 2.43591e-19)
(0.624998 0.355786 5.25205e-19)
(0.675719 0.327701 -6.22131e-19)
(0.719019 0.300852 2.15104e-19)
(0.754604 0.276768 -9.00169e-19)
(0.053001 0.123846 6.01356e-20)
(0.150172 0.257695 2.90089e-19)
(0.258769 0.316049 1.08507e-19)
(0.359041 0.33174 1.42237e-19)
(0.446054 0.324658 2.64433e-19)
(0.520617 0.306608 7.66716e-19)
(0.584259 0.284466 -9.17258e-19)
(0.638738 0.261849 -5.06088e-19)
(0.685588 0.240406 8.23832e-20)
(0.725028 0.221125 5.84168e-19)
(0.0370879 0.0917023 -3.63711e-19)
(0.118161 0.19 -3.8644e-20)
(0.2209 0.232213 -3.11715e-19)
(0.320361 0.243056 4.29433e-20)
(0.409 0.23735 -2.50337e-19)
(0.486275 0.223802 -2.78432e-19)
(0.552976 0.20743 -4.05438e-19)
(0.610458 0.190847 1.07029e-18)
(0.66012 0.175213 1.81268e-19)
(0.702619 0.161117 -2.4923e-19)
(0.026031 0.0563481 1.9605e-19)
(0.0960477 0.116419 2.31756e-19)
(0.19486 0.141959 8.77576e-20)
(0.293871 0.148313 -4.58154e-19)
(0.383716 0.144624 -2.07005e-19)
(0.462921 0.136228 -4.34339e-20)
(0.531768 0.126179 8.28977e-20)
(0.591334 0.116055 6.52307e-20)
(0.64294 0.106543 -4.9515e-19)
(0.687558 0.0979468 2.56356e-19)
(0.0203656 0.0190069 -1.02104e-19)
(0.0847566 0.0392145 -1.03892e-19)
(0.181598 0.0477625 7.96358e-20)
(0.280414 0.0498546 6.83411e-20)
(0.3709 0.0485805 6.79854e-20)
(0.451105 0.0457369 1.01263e-19)
(0.521056 0.042349 -5.21739e-21)
(0.581689 0.0389448 -1.27156e-19)
(0.634286 0.0357516 1.186e-19)
(0.679989 0.0328626 -1.60986e-19)
(0.0203656 -0.0190068 -1.02774e-19)
(0.0847566 -0.0392143 -9.90011e-20)
(0.181598 -0.0477624 8.77585e-20)
(0.280414 -0.0498545 1.66069e-19)
(0.3709 -0.0485803 1.07387e-19)
(0.451105 -0.0457368 -1.37835e-19)
(0.521056 -0.0423488 -7.31611e-20)
(0.581689 -0.0389447 3.12788e-20)
(0.634286 -0.0357515 6.90301e-20)
(0.679989 -0.0328625 -3.70855e-20)
(0.026031 -0.056348 2.45242e-19)
(0.0960477 -0.116419 -2.78719e-19)
(0.19486 -0.141958 -2.22655e-20)
(0.293871 -0.148312 1.43601e-19)
(0.383716 -0.144624 -6.30068e-19)
(0.462921 -0.136228 2.62231e-19)
(0.531768 -0.126179 2.64458e-19)
(0.591334 -0.116055 -3.05891e-19)
(0.64294 -0.106542 2.86939e-19)
(0.687558 -0.0979467 -1.13659e-19)
(0.0370879 -0.0917023 -4.24002e-20)
(0.118161 -0.19 -4.81365e-21)
(0.2209 -0.232213 -7.24014e-19)
(0.320361 -0.243056 -2.22546e-19)
(0.409 -0.23735 -2.26719e-20)
(0.486274 -0.223802 -3.46189e-19)
(0.552976 -0.20743 6.30287e-19)
(0.610458 -0.190847 -2.17495e-20)
(0.66012 -0.175213 3.46315e-19)
(0.702619 -0.161117 -2.74508e-19)
(0.053001 -0.123846 7.15896e-20)
(0.150172 -0.257695 -2.96236e-19)
(0.258769 -0.316049 8.77207e-19)
(0.359041 -0.33174 1.20037e-19)
(0.446054 -0.324658 5.72462e-19)
(0.520617 -0.306608 -5.45034e-19)
(0.584259 -0.284466 5.59116e-19)
(0.638738 -0.261849 -3.95065e-19)
(0.685588 -0.240406 -1.70482e-19)
(0.725028 -0.221125 1.30398e-19)
(0.0729983 -0.151702 6.38779e-19)
(0.190737 -0.317472 1.48912e-21)
(0.307064 -0.391211 -9.23809e-19)
(0.408662 -0.412213 -2.59022e-19)
(0.493849 -0.404616 8.3511e-19)
(0.565135 -0.382948 -4.76635e-19)
(0.624998 -0.355786 -5.39233e-19)
(0.675719 -0.327701 4.75439e-19)
(0.719019 -0.300852 -3.17823e-19)
(0.754604 -0.276768 -6.17126e-20)
(0.0961042 -0.174383 -9.53851e-20)
(0.238127 -0.367599 -3.97942e-21)
(0.36397 -0.45574 1.00168e-18)
(0.467588 -0.482591 5.55273e-19)
(0.55102 -0.475532 -6.35537e-19)
(0.618756 -0.45134 7.4979e-19)
(0.674389 -0.420088 -7.94724e-19)
(0.720833 -0.387228 7.76282e-20)
(0.76005 -0.355425 2.28075e-19)
(0.791179 -0.326913 4.74244e-19)
(0.121179 -0.191224 1.08971e-19)
(0.290285 -0.406708 1.56787e-19)
(0.427283 -0.508046 1.63827e-19)
(0.533809 -0.541324 -5.10975e-19)
(0.615877 -0.536021 -8.83133e-19)
(0.680136 -0.510597 1.81225e-19)
(0.731439 -0.47636 5.12988e-19)
(0.77342 -0.439527 -1.4383e-19)
(0.808334 -0.403225 8.49268e-19)
(0.834672 -0.370553 -7.455e-19)
(0.146966 -0.201812 -6.16493e-19)
(0.344887 -0.433842 2.11125e-19)
(0.494464 -0.546955 -5.50116e-19)
(0.604951 -0.58725 8.59583e-19)
(0.686371 -0.585064 4.17331e-19)
(0.747614 -0.559907 5.74048e-19)
(0.794896 -0.523993 -1.29521e-19)
(0.832679 -0.484134 5.01523e-19)
(0.863579 -0.443796 -1.0426e-18)
(0.885206 -0.40705 -2.44384e-19)
(0.172138 -0.205989 3.68716e-20)
(0.39941 -0.448484 -3.69471e-19)
(0.562682 -0.571742 -5.67281e-19)
(0.678286 -0.619624 -2.33217e-19)
(0.760052 -0.622074 -6.39399e-19)
(0.819108 -0.598975 -6.36971e-20)
(0.863103 -0.563096 5.35458e-20)
(0.897471 -0.521607 -2.32914e-19)
(0.925445 -0.477976 -2.55253e-19)
(0.94332 -0.43686 6.06075e-19)
(0.195357 -0.203863 1.93624e-19)
(0.451225 -0.45056 2.40823e-19)
(0.628877 -0.582108 4.16308e-19)
(0.750703 -0.638079 1.82354e-20)
(0.83386 -0.646853 2.61586e-19)
(0.89155 -0.62806 -3.48124e-19)
(0.932815 -0.594664 1.04007e-18)
(0.964029 -0.553764 -4.49736e-19)
(0.989823 -0.507712 -2.17001e-19)
(1.00701 -0.460322 -5.88348e-19)
(0.215362 -0.195809 -7.58773e-20)
(0.497742 -0.440423 1.17018e-19)
(0.689904 -0.578079 -1.1592e-19)
(0.818774 -0.642319 6.10393e-20)
(0.903968 -0.658949 -7.01869e-20)
(0.960259 -0.646883 -1.75876e-19)
(0.997852 -0.619335 2.25972e-19)
(1.02374 -0.584596 -7.35271e-20)
(1.04325 -0.547755 1.10267e-19)
(1.05947 -0.514645 -1.94247e-19)
(0.231089 -0.182479 -2.28502e-21)
(0.536693 -0.418875 -6.06291e-20)
(0.743039 -0.559966 1.7238e-20)
(0.879822 -0.631863 6.64539e-20)
(0.96817 -0.656724 -3.24446e-20)
(1.02397 -0.65188 8.959e-21)
(1.05851 -0.629993 -7.36731e-21)
(1.07956 -0.599602 -1.63166e-19)
(1.09282 -0.566443 -7.54122e-20)
(1.10313 -0.534582 -1.9098e-19)
(0.241768 -0.16481 -5.81308e-20)
(0.56625 -0.387295 1.83979e-19)
(0.786022 -0.528818 -1.11507e-19)
(0.931675 -0.607217 -4.31883e-20)
(1.02487 -0.640237 2.44167e-20)
(1.08213 -0.643017 2.65307e-20)
(1.11568 -0.627257 -1.50337e-21)
(1.13419 -0.601454 1.18872e-19)
(1.14379 -0.571843 -1.0205e-19)
(1.14989 -0.541822 -9.11444e-22)
(0.246952 -0.143958 -1.4101e-19)
(0.585079 -0.347595 -7.99318e-20)
(0.816971 -0.486409 -1.90434e-19)
(0.972292 -0.569777 2.09786e-19)
(1.07219 -0.610614 -1.48595e-20)
(1.13322 -0.621455 6.64683e-20)
(1.16813 -0.612711 7.60933e-20)
(1.18632 -0.592529 -2.67483e-20)
(1.19436 -0.567312 1.46958e-20)
(1.19786 -0.539967 -4.42177e-20)
(0.246518 -0.121178 -9.55106e-20)
(0.592368 -0.302025 -1.09782e-19)
(0.834434 -0.435007 1.59754e-19)
(0.999795 -0.521447 -2.33077e-19)
(1.10805 -0.569341 3.9678e-20)
(1.17507 -0.588343 1.9878e-20)
(1.21365 -0.587255 4.18788e-20)
(1.23351 -0.573549 -2.66332e-20)
(1.2416 -0.5535 -3.23254e-20)
(1.24369 -0.529657 -9.63722e-20)
(0.24065 -0.0977215 3.98194e-19)
(0.587874 -0.253005 -2.78572e-19)
(0.837488 -0.377207 1.244e-20)
(1.01266 -0.464515 -3.33359e-19)
(1.13052 -0.518241 -9.4446e-20)
(1.20554 -0.545046 7.37701e-20)
(1.24997 -0.551884 5.30983e-20)
(1.27353 -0.545265 -1.73817e-19)
(1.28337 -0.53111 7.69263e-20)
(1.28533 -0.511683 -1.14947e-19)
(0.229802 -0.0747487 1.97248e-19)
(0.57192 -0.202956 -1.74644e-19)
(0.825828 -0.315784 6.04363e-19)
(1.00986 -0.401571 4.68461e-20)
(1.13798 -0.45947 1.28835e-19)
(1.22263 -0.493238 4.49851e-19)
(1.27497 -0.507845 -9.08662e-20)
(1.30431 -0.508616 2.27491e-20)
(1.31775 -0.500909 -1.1806e-20)
(1.32109 -0.486721 -1.87091e-20)
(0.214655 -0.0532685 1.51879e-19)
(0.545374 -0.154169 3.09274e-19)
(0.799804 -0.253538 -3.03745e-19)
(0.990998 -0.335385 -8.94704e-20)
(1.1293 -0.395453 -9.22286e-20)
(1.22466 -0.434863 1.76277e-19)
(1.28667 -0.456608 -8.15594e-20)
(1.32378 -0.464676 1.88986e-19)
(1.34279 -0.463684 4.5222e-20)
(1.34924 -0.455342 -6.73133e-20)
(0.196056 -0.0340908 -1.64097e-19)
(0.509574 -0.108667 1.36296e-19)
(0.760416 -0.193143 -2.69508e-19)
(0.956334 -0.268777 1.09205e-19)
(1.10393 -0.328793 -1.06361e-19)
(1.21041 -0.372108 -1.2343e-19)
(1.28336 -0.399878 -9.38192e-20)
(1.33003 -0.414707 1.01557e-19)
(1.35656 -0.420338 -1.74061e-19)
(1.36798 -0.418159 9.42164e-20)
(0.174959 -0.0178002 -6.14411e-20)
(0.466247 -0.0681185 -1.07984e-19)
(0.709275 -0.137012 4.88917e-20)
(0.906858 -0.204489 3.46858e-21)
(1.06204 -0.262192 3.65895e-20)
(1.1792 -0.307376 5.11517e-20)
(1.26373 -0.339628 4.27009e-20)
(1.32133 -0.360233 -5.65937e-20)
(1.35718 -0.371984 4.55001e-20)
(1.37549 -0.375927 -6.19071e-20)
(0.152357 -0.00474741 -3.8714e-20)
(0.417378 -0.033763 -1.397e-20)
(0.648505 -0.0871698 5.01406e-20)
(0.844249 -0.145044 -2.18583e-20)
(1.00452 -0.198336 5.95174e-20)
(1.13106 -0.243227 -7.33501e-20)
(1.22702 -0.2781 1.83822e-20)
(1.29633 -0.303085 1.55015e-20)
(1.34295 -0.320031 -5.49904e-21)
(1.36998 -0.329634 2.1729e-20)
(0.129215 0.00494212 -4.64177e-20)
(0.365085 -0.00637879 -1.76292e-19)
(0.580608 -0.0451662 -1.36818e-20)
(0.770805 -0.092622 5.28352e-21)
(0.933051 -0.139769 -2.21367e-19)
(1.06681 -0.182287 2.27804e-20)
(1.17314 -0.217767 -2.35855e-20)
(1.25419 -0.245438 -6.30244e-20)
(1.31246 -0.266265 1.3728e-19)
(1.34976 -0.280615 -2.17508e-19)
(0.106415 0.0113435 -2.63236e-20)
(0.311471 0.0137156 3.78204e-19)
(0.508304 -0.0120098 4.86092e-20)
(0.689309 -0.0489315 -3.18085e-19)
(0.849998 -0.0887423 -3.69157e-20)
(0.988079 -0.127114 -3.39894e-19)
(1.10284 -0.161258 2.58497e-19)
(1.19475 -0.189789 -1.0301e-19)
(1.26482 -0.21291 1.91764e-19)
(1.31344 -0.230666 -1.48119e-19)
(0.0847113 0.0146966 -1.48947e-19)
(0.258503 0.0266313 1.55345e-19)
(0.434349 0.0118601 -1.04482e-19)
(0.602848 -0.0151124 6.98271e-19)
(0.75832 -0.0470618 3.59165e-19)
(0.897294 -0.0800323 -9.17242e-20)
(1.01774 -0.11121 3.48667e-19)
(1.11872 -0.138884 -2.23638e-19)
(1.19988 -0.162624 -7.09238e-20)
(1.26019 -0.182119 4.48231e-19)
(0.0646981 0.0153656 -2.75471e-19)
(0.207903 0.032859 3.68144e-19)
(0.361354 0.0265746 -6.72256e-19)
(0.514593 0.00834884 1.12562e-19)
(0.661342 -0.0159218 2.72776e-19)
(0.797513 -0.0429087 -3.3395e-19)
(0.920267 -0.0700414 -5.78703e-19)
(1.0277 -0.0955271 3.04106e-19)
(1.11835 -0.118396 -3.88918e-19)
(1.18989 -0.13784 5.4709e-19)
(0.046806 0.0138013 -6.80768e-20)
(0.161079 0.0332138 -3.70664e-19)
(0.291635 0.0328213 1.76058e-19)
(0.427565 0.021688 4.26349e-19)
(0.562481 0.00426655 -2.2234e-19)
(0.692166 -0.0168895 -2.13986e-19)
(0.813497 -0.0396326 -3.54928e-19)
(0.924118 -0.0622566 -1.5951e-19)
(1.02184 -0.0832759 -3.7717e-20)
(1.10334 -0.101067 5.47267e-19)
(0.0313144 0.0105156 1.14429e-19)
(0.119099 0.028787 -5.03742e-19)
(0.227094 0.0318219 8.2955e-19)
(0.344426 0.02592 -4.46645e-19)
(0.464946 0.0140569 2.81281e-19)
(0.584687 -0.00206767 -3.41092e-19)
(0.700709 -0.0208516 3.7142e-19)
(0.810769 -0.0407983 3.18059e-19)
(0.912522 -0.0598521 6.82788e-19)
(1.002 -0.0749892 -9.93223e-19)
(0.0183821 0.00607117 -3.55516e-19)
(0.0826944 0.0209053 6.39214e-19)
(0.169167 0.0252935 8.28311e-21)
(0.267333 0.0228601 -2.14285e-19)
(0.371488 0.0151263 -1.10402e-19)
(0.478133 0.00288801 8.62016e-20)
(0.584868 -0.0129219 -5.98167e-19)
(0.690135 -0.0311929 4.53009e-19)
(0.792194 -0.0493025 -5.73595e-19)
(0.887102 -0.0619023 -2.30081e-19)
(0.00807913 0.0010768 6.12094e-19)
(0.0523092 0.0110733 -1.70873e-19)
(0.118861 0.015351 -3.08753e-19)
(0.19795 0.0150481 8.10924e-19)
(0.28435 0.0103144 -7.73708e-19)
(0.375006 0.00101146 4.2143e-19)
(0.468103 -0.0127689 4.3895e-19)
(0.563072 -0.0307124 1.1776e-19)
(0.659609 -0.0501784 1.20239e-19)
(0.755474 -0.0625243 -1.49662e-19)
(0.000399477 -0.00383891 -5.85621e-19)
(0.0281428 0.000850524 4.98257e-19)
(0.0768712 0.00428928 -4.2447e-19)
(0.137698 0.00549578 5.15197e-19)
(0.205767 0.00349544 -1.4944e-19)
(0.278112 -0.00263517 -5.06177e-19)
(0.352895 -0.0136277 1.41855e-19)
(0.429701 -0.0304011 -2.2941e-19)
(0.50954 -0.0522606 -2.66732e-19)
(0.594894 -0.0694516 -7.25495e-19)
(-0.00476464 -0.0081136 -7.32077e-19)
(0.0101561 -0.0084086 5.20833e-19)
(0.0436747 -0.00592161 -9.82465e-19)
(0.0880812 -0.00316415 1.69925e-19)
(0.138895 -0.00167814 -6.39409e-19)
(0.193012 -0.00242538 -3.73872e-19)
(0.247861 -0.00572827 8.74812e-19)
(0.30149 -0.0117759 -1.17261e-18)
(0.353212 -0.0211172 2.21943e-19)
(0.400455 -0.0298411 -3.0679e-19)
(-0.00767878 -0.011371 3.60694e-19)
(-0.00204342 -0.0158596 1.36739e-19)
(0.0192686 -0.014303 -3.92635e-20)
(0.0501176 -0.0102434 3.6114e-19)
(0.0868022 -0.00555711 1.0301e-18)
(0.126748 -0.00120423 3.46602e-19)
(0.167949 0.00262131 3.50193e-19)
(0.209188 0.00598659 -1.1862e-19)
(0.250488 0.00828847 -1.08878e-18)
(0.289451 0.00980793 2.29687e-19)
(-0.00878106 -0.0134421 -1.01947e-19)
(-0.00932931 -0.0211007 2.90295e-19)
(0.00265119 -0.0204785 -7.32125e-20)
(0.0227703 -0.0157521 4.99801e-19)
(0.0482468 -0.00908981 -1.12203e-18)
(0.0771347 -0.00165169 9.2904e-20)
(0.108008 0.00603104 -5.08907e-19)
(0.140076 0.0135563 7.34407e-19)
(0.17312 0.0199903 -2.1075e-19)
(0.204597 0.0245842 -2.48889e-20)
(-0.00858526 -0.0143163 -6.93693e-20)
(-0.0128324 -0.0240137 -3.49119e-19)
(-0.0077102 -0.0242816 8.45343e-19)
(0.00410487 -0.019558 -4.30905e-19)
(0.0207179 -0.0122086 2.9346e-20)
(0.0407184 -0.00361068 1.3085e-19)
(0.063068 0.00536344 -1.17058e-19)
(0.0871363 0.0139212 1.48982e-19)
(0.112484 0.0209747 5.07465e-19)
(0.136981 0.0256957 1.08982e-19)
(-0.00758128 -0.0140814 -1.55736e-19)
(-0.0136946 -0.024667 -1.55003e-19)
(-0.0134246 -0.0256719 -6.62075e-19)
(-0.00789874 -0.0214445 3.4094e-19)
(0.00178562 -0.0143808 -6.82855e-19)
(0.0146666 -0.00595588 1.51133e-19)
(0.0299851 0.00279708 1.66137e-19)
(0.0471938 0.0109659 -1.72236e-19)
(0.0657599 0.0175457 -1.09495e-19)
(0.084089 0.0217971 -4.01762e-19)
(-0.0061849 -0.0128778 1.21758e-19)
(-0.0129369 -0.0232549 -2.56331e-20)
(-0.0159752 -0.0247386 4.69758e-22)
(-0.0151132 -0.0212822 -3.07807e-19)
(-0.0107692 -0.0151277 7.56489e-19)
(-0.00353674 -0.00769896 -1.14981e-19)
(0.00603925 -2.25892e-05 -2.80544e-19)
(0.0174796 0.00704453 3.36541e-19)
(0.0302412 0.0126858 -1.16207e-19)
(0.0431945 0.0162974 5.22514e-19)
(-0.00472248 -0.0108684 -2.28619e-20)
(-0.011399 -0.0200555 -1.19886e-19)
(-0.0166081 -0.0216944 -4.55388e-20)
(-0.0191149 -0.0190988 -5.6253e-20)
(-0.0187895 -0.0141885 -1.17399e-19)
(-0.0159312 -0.00820324 -3.59289e-19)
(-0.0109139 -0.0020405 4.39308e-19)
(-0.004148 0.00358746 2.5157e-19)
(0.00385364 0.00806979 -4.42517e-20)
(0.0123151 0.0109472 -3.1943e-19)
(-0.00343493 -0.00822401 1.2985e-19)
(-0.00972306 -0.0154043 2.02803e-20)
(-0.01629 -0.0168669 1.32169e-19)
(-0.0211221 -0.0151025 -1.46484e-20)
(-0.0236772 -0.0115755 1.12971e-19)
(-0.0240313 -0.00723882 1.24214e-19)
(-0.0224251 -0.0027804 1.82067e-19)
(-0.0192047 0.00127455 -5.05478e-19)
(-0.0148433 0.00450763 -9.16648e-20)
(-0.00986884 0.00659739 1.32832e-19)
(-0.00248953 -0.00512029 -6.55818e-20)
(-0.00836539 -0.00968157 -8.3366e-20)
(-0.0157126 -0.0106852 -3.85826e-20)
(-0.0220035 -0.00967403 1.8248e-19)
(-0.0264205 -0.00756293 8.59939e-20)
(-0.0288887 -0.00494965 1.71857e-20)
(-0.0295563 -0.00226366 -3.64152e-20)
(-0.0287194 0.000175208 -2.76912e-20)
(-0.0268186 0.00212393 2.33509e-19)
(-0.0242264 0.00339224 -1.28368e-19)
(-0.00199144 -0.0017379 3.3436e-20)
(-0.00761624 -0.00330105 3.72046e-20)
(-0.015317 -0.00365752 -3.05262e-20)
(-0.0223108 -0.00332949 -2.69948e-20)
(-0.0276424 -0.0026279 -2.71742e-20)
(-0.0311605 -0.00175617 -4.22557e-20)
(-0.0329654 -0.000860072 1.32249e-21)
(-0.0333265 -4.68194e-05 5.61658e-20)
(-0.032666 0.000603975 -5.54041e-20)
(-0.0312823 0.00102929 8.13041e-20)
(-0.00756794 -0.00259899 3.84227e-21)
(0.0626515 -0.00667495 2.36771e-21)
(0.280129 -0.00680208 3.35119e-22)
(0.381698 -0.0044666 -2.26692e-22)
(0.485846 -0.00383475 -1.66748e-23)
(0.565693 -0.00273028 4.22802e-23)
(0.61673 -0.00243678 6.44706e-23)
(0.685118 -0.00182917 -1.66438e-23)
(0.706402 -0.00189614 -1.91049e-25)
(0.780484 -0.00148554 8.63364e-23)
(0.00927106 -0.00810321 6.07249e-21)
(0.0779701 -0.0198606 2.44915e-22)
(0.291677 -0.0202465 -4.30376e-21)
(0.390493 -0.0132953 3.62479e-21)
(0.492618 -0.0114286 2.41652e-22)
(0.570927 -0.00814417 -1.99178e-22)
(0.621071 -0.00727325 2.638e-22)
(0.688424 -0.00546017 4.08027e-23)
(0.709353 -0.00565968 1.23122e-22)
(0.782577 -0.004436 -7.96011e-23)
(0.04265 -0.014492 6.32586e-21)
(0.108126 -0.0325642 -8.60936e-21)
(0.314338 -0.0332284 4.39981e-21)
(0.407766 -0.0218217 -3.04774e-21)
(0.505922 -0.0187906 2.34425e-22)
(0.581223 -0.013405 -1.89598e-22)
(0.629621 -0.0119883 -1.05077e-22)
(0.694945 -0.00900543 7.98394e-24)
(0.715179 -0.00935029 -9.57208e-23)
(0.786719 -0.00733596 -1.16819e-22)
(0.0919589 -0.0222445 -9.8009e-21)
(0.152182 -0.0444851 -1.19715e-20)
(0.347266 -0.0454601 -5.69991e-21)
(0.432895 -0.0298613 3.13786e-21)
(0.52529 -0.025778 -4.06069e-21)
(0.596248 -0.0184184 1.19813e-21)
(0.642119 -0.0165063 -8.54959e-23)
(0.704502 -0.0124113 7.64785e-23)
(0.723735 -0.0129218 -1.05868e-22)
(0.792821 -0.0101532 4.29651e-23)
(0.156255 -0.0316351 2.76045e-20)
(0.208795 -0.0553351 1.77414e-20)
(0.389254 -0.0566763 6.50289e-21)
(0.464999 -0.037251 -6.23252e-21)
(0.550054 -0.0322643 3.36325e-21)
(0.615525 -0.0231006 9.8439e-22)
(0.658193 -0.0207589 8.64132e-22)
(0.716838 -0.0156294 1.39364e-22)
(0.73481 -0.0163314 2.63295e-22)
(0.800756 -0.0128575 -2.30591e-22)
(0.234242 -0.0426024 -1.24483e-20)
(0.276269 -0.0648036 9.44571e-21)
(0.438802 -0.0666241 1.189e-21)
(0.502977 -0.0438472 7.13334e-21)
(0.579389 -0.0381406 -1.66587e-21)
(0.638461 -0.0273804 -1.20922e-21)
(0.677379 -0.024687 -8.95073e-22)
(0.73163 -0.0186176 -1.23815e-22)
(0.74814 -0.0195408 -1.23455e-22)
(0.810359 -0.0154217 2.40542e-22)
(0.324274 -0.0548772 -9.62674e-21)
(0.352613 -0.0726283 -2.54576e-20)
(0.494191 -0.0751005 -4.43379e-21)
(0.545576 -0.0495338 -3.95845e-21)
(0.612355 -0.0433222 2.03433e-21)
(0.664378 -0.0312012 -6.09052e-22)
(0.699143 -0.0282429 8.91928e-22)
(0.748506 -0.0213411 2.28333e-22)
(0.763413 -0.0225178 -3.64196e-23)
(0.821438 -0.0178212 9.35321e-23)
(0.424401 -0.0686349 2.87456e-20)