/*--------------------------------*- C++ -*----------------------------------*\
  =========                 |
  \\      /  F ield         | OpenFOAM: The Open Source CFD Toolbox
   \\    /   O peration     | Website:  https://openfoam.org
    \\  /    A nd           | Version:  6.0
     \\/     M anipulation  |
\*---------------------------------------------------------------------------*/
FoamFile
{
    version     2.0;
    format      ascii;
    class       volScalarField;
    location    "5";
    object      p;
}
// * * * * * * * * * * * * * * * * * * * * * * * * * * * * * * * * * * * * * //

dimensions      [0 2 -2 0 0 0 0];

internalField   nonuniform List<scalar> 
47000
(
0.0184235
0.0182546
0.018707
0.0198914
0.0217898
0.0242424
0.0269314
0.0294775
0.0315128
0.0327703
0.0331253
0.0325851
0.0312745
0.0293682
0.0270726
0.0245674
0.0220132
0.0195184
0.0171667
0.0149975
0.0130379
0.0112874
0.00974314
0.00838954
0.00721317
0.00619683
0.00532849
0.0045965
0.00411212
0.00446999
0.0183916
0.0182145
0.018663
0.0198608
0.0218149
0.0243952
0.0273088
0.0301865
0.0326487
0.034397
0.0352615
0.0352015
0.0342994
0.0326992
0.0305922
0.0281545
0.0255555
0.0229162
0.020339
0.0178786
0.0155798
0.0134535
0.0115089
0.00973658
0.00812913
0.00667171
0.00535608
0.00418223
0.00330722
0.00290018
0.0183039
0.0180088
0.0182421
0.0191392
0.0207365
0.0229472
0.0255268
0.0281482
0.0304581
0.0321634
0.0330798
0.0331393
0.0323917
0.0309504
0.0289825
0.0266484
0.0241107
0.021489
0.0188901
0.0163746
0.0139955
0.0117706
0.0097171
0.00783245
0.00611746
0.00456691
0.00318696
0.00200676
0.00116131
0.000731315
0.0181791
0.0177254
0.0176691
0.0181582
0.0192593
0.0209314
0.0229846
0.0251439
0.0270949
0.0285644
0.0293668
0.0294174
0.0287393
0.0274172
0.0255922
0.0234049
0.0210046
0.0185039
0.016008
0.0135786
0.0112728
0.00911291
0.00712239
0.00530445
0.00366743
0.00221425
0.000960442
-5.28502e-05
-0.000743311
-0.00107658
0.0180304
0.0174264
0.0171005
0.0172079
0.0178384
0.0189885
0.0205164
0.0221958
0.0237525
0.0249377
0.0255721
0.025562
0.0249104
0.0236784
0.0219833
0.019946
0.0177014
0.015353
0.0130016
0.0107074
0.00852925
0.00649165
0.00462189
0.00292679
0.00141875
0.000104141
-0.00100036
-0.00185585
-0.00243126
-0.00271352
0.0178714
0.0171421
0.0165944
0.0163849
0.0166177
0.0173164
0.0183776
0.0196169
0.0207975
0.0216965
0.0221449
0.0220462
0.0213892
0.0202166
0.0186251
0.0167183
0.0146168
0.0124146
0.0102067
0.00805047
0.00600461
0.00409427
0.00234861
0.000776082
-0.000609269
-0.00180056
-0.00278349
-0.00352525
-0.0040302
-0.0042893
0.0177058
0.0168793
0.0161575
0.0156962
0.0156067
0.0159304
0.0165936
0.0174467
0.0182861
0.0189141
0.0191743
0.0189713
0.0182847
0.0171428
0.0156257
0.0138217
0.0118385
0.00976062
0.00767713
0.00564189
0.00371225
0.00191312
0.000274304
-0.00119516
-0.00248078
-0.00357621
-0.00447023
-0.00513538
-0.00559841
-0.00584677
0.0175501
0.0166461
0.0157903
0.0151322
0.0147852
0.0148014
0.0151292
0.0156474
0.0161812
0.0165568
0.0166311
0.0163127
0.0155757
0.014438
0.0129659
0.0112349
0.00934112
0.00736064
0.00537641
0.00343861
0.00160271
-0.000107166
-0.00166126
-0.00305043
-0.00426027
-0.00528511
-0.00611654
-0.00673101
-0.0071684
-0.00741301
0.0174075
0.0164383
0.0154781
0.0146647
0.0141099
0.0138716
0.0139148
0.014141
0.0144008
0.0145417
0.0144344
0.0139932
0.0131893
0.0120331
0.0105801
0.00889495
0.00706372
0.00515478
0.00324536
0.00138202
-0.00038191
-0.00202332
-0.00351286
-0.0048415
-0.0059951
-0.00696865
-0.00775605
-0.00833635
-0.00875742
-0.00900073
0.0172848
0.0162597
0.0152156
0.0142759
0.0135493
0.0130959
0.0128929
0.0128604
0.0128707
0.0127913
0.0125058
0.0119355
0.0110505
0.00985639
0.00839973
0.00673649
0.00494392
0.00308363
0.00122746
-0.000581479
-0.00229208
-0.00388238
-0.00532367
-0.00660714
-0.00771906
-0.00865497
-0.00941074
-0.0099671
-0.0103764
-0.0106198
0.0171791
0.0161028
0.0149872
0.0139396
0.0130651
0.0124239
0.0120024
0.0117361
0.0115163
0.0112279
0.0107676
0.0100637
0.00908688
0.00783941
0.00636098
0.00470024
0.00292693
0.00109664
-0.000723716
-0.00249426
-0.00416613
-0.00571859
-0.00712373
-0.00837306
-0.00945335
-0.0103607
-0.0110926
-0.011631
-0.0120309
-0.0122741
0.0170959
0.0159715
0.014791
0.0136464
0.012639
0.0118282
0.0112074
0.0107251
0.010289
0.00980001
0.00916668
0.00832512
0.00724719
0.00593348
0.00441804
0.00274371
0.000973547
-0.000842027
-0.00264071
-0.00438562
-0.0060302
-0.00755491
-0.00893284
-0.0101559
-0.0112115
-0.0120963
-0.0128094
-0.0133332
-0.0137245
-0.0139673
0.0170304
0.015858
0.0146147
0.013378
0.0122457
0.0112765
0.0104692
0.00978342
0.00914124
0.00845815
0.00765381
0.00667171
0.00548593
0.00409604
0.00253187
0.000831312
-0.000948212
-0.00276097
-0.00454882
-0.00627774
-0.00790342
-0.00940762
-0.0107645
-0.0119666
-0.013002
-0.013868
-0.0145651
-0.0150761
-0.015459
-0.0157007
0.0169868
0.0157676
0.014461
0.013133
0.0118796
0.0107582
0.00977245
0.00889152
0.00805016
0.00717725
0.00620253
0.00507712
0.00377735
0.00230288
0.000679992
-0.0010573
-0.00285664
-0.00467637
-0.00646227
-0.00818292
-0.00979637
-0.0112856
-0.0126262
-0.0138111
-0.0148295
-0.0156791
-0.0163621
-0.0168614
-0.0172355
-0.0174755
0.0169592
0.0156928
0.0143201
0.0128992
0.0115248
0.0102539
0.00909425
0.0080236
0.00698816
0.00592864
0.00478445
0.00351367
0.0020955
0.000529917
-0.00115937
-0.00294169
-0.00476901
-0.00660335
-0.00839408
-0.0101123
-0.0117184
-0.0131967
-0.014524
-0.0156943
-0.0166975
-0.0175323
-0.0182021
-0.0186899
-0.019055
-0.0192925
0.0169539
0.0156403
0.014198
0.0126806
0.0111836
0.00976349
0.00843212
0.00717487
0.00594811
0.00470377
0.00338982
0.00197143
0.00043043
-0.00123211
-0.00299473
-0.00482931
-0.00669178
-0.00854735
-0.0103488
-0.0120697
-0.0136726
-0.0151432
-0.01646
-0.0176176
-0.0186073
-0.0194282
-0.0200855
-0.0205619
-0.0209174
-0.0211518
0.0169653
0.0156032
0.0140866
0.0124682
0.0108451
0.00927445
0.00777176
0.00632945
0.00491338
0.00348536
0.00200165
0.000433802
-0.00123331
-0.00299755
-0.00483897
-0.00673173
-0.00863509
-0.0105172
-0.0123341
-0.0140615
-0.0156643
-0.0171297
-0.0184377
-0.0195839
-0.0205609
-0.0213686
-0.0220134
-0.0224782
-0.0228236
-0.0230543
0.0170006
0.0155897
0.0139939
0.0122695
0.0105163
0.00879256
0.00711756
0.00549038
0.00388525
0.00227363
0.000619013
-0.00110053
-0.00289744
-0.00476796
-0.00669352
-0.00864994
-0.0105996
-0.0125133
-0.01435
-0.0160876
-0.0176934
-0.0191559
-0.0204569
-0.0215929
-0.0225581
-0.0233529
-0.0239855
-0.0244385
-0.0247731
-0.0249996
0.0170547
0.015593
0.0139127
0.0120766
0.0101885
0.00830828
0.00645915
0.00464635
0.0028522
0.00105663
-0.000769721
-0.00264299
-0.00457262
-0.00655334
-0.00856742
-0.0105922
-0.0125927
-0.0145421
-0.0164022
-0.018153
-0.019764
-0.0212252
-0.0225204
-0.0236471
-0.0246007
-0.0253829
-0.026003
-0.0264438
-0.0267672
-0.0269887
0.0171361
0.0156226
0.0138526
0.011899
0.00987097
0.00783037
0.00580438
0.00380431
0.00181971
-0.000161037
-0.00216111
-0.00419066
-0.00625652
-0.00835149
-0.0104587
-0.0125564
-0.0146122
-0.0166015
-0.0184887
-0.0202557
-0.0218744
-0.0233363
-0.024627
-0.0257452
-0.026688
-0.0274576
-0.0280653
-0.0284934
-0.0288049
-0.0290208
0.0172396
0.0156715
0.0138065
0.0117294
0.00955585
0.0073504
0.00514434
0.00295474
0.000778282
-0.00138919
-0.00356463
-0.00575289
-0.00795793
-0.0101708
-0.012375
-0.0145497
-0.0166648
-0.0186974
-0.0206147
-0.0224004
-0.0240287
-0.0254926
-0.0267797
-0.02789
-0.0288219
-0.0295789
-0.0301737
-0.0305887
-0.0308876
-0.0310973
0.0173747
0.0157507
0.0137851
0.0115785
0.00925383
0.0068787
0.00448868
0.00210657
-0.000264498
-0.00262104
-0.00497465
-0.00732464
-0.00967252
-0.0120072
-0.0143126
-0.0165686
-0.018747
-0.0208267
-0.0227773
-0.0245844
-0.0262245
-0.0276921
-0.0289768
-0.0300797
-0.0310013
-0.0317457
-0.0323274
-0.0327288
-0.0330143
-0.033217
0.0175362
0.015853
0.0137814
0.0114389
0.00895704
0.00640698
0.00382872
0.00125065
-0.00131759
-0.00386579
-0.00640001
-0.00891468
-0.0114086
-0.0138687
-0.0162791
-0.0186201
-0.0208654
-0.0229953
-0.024982
-0.0268126
-0.0284661
-0.0299385
-0.0312215
-0.0323174
-0.0332286
-0.0339601
-0.0345282
-0.0349151
-0.0351866
-0.0353816
0.0177345
0.0159901
0.0138069
0.0113222
0.00867712
0.00594654
0.00317517
0.000397065
-0.00237224
-0.00511543
-0.00783387
-0.0105168
-0.0131607
-0.0157503
-0.0182699
-0.0206999
-0.0230158
-0.0251994
-0.0272252
-0.0290819
-0.0307508
-0.0322294
-0.0335117
-0.0346012
-0.0355023
-0.0362207
-0.0367748
-0.0371467
-0.0374034
-0.0375897
0.0179643
0.016155
0.0138544
0.011221
0.0084059
0.00548875
0.00251908
-0.000463559
-0.00343751
-0.00637922
-0.00928508
-0.0121398
-0.0149371
-0.01766
-0.0202925
-0.0228152
-0.0252051
-0.0274454
-0.0295127
-0.0313974
-0.0330832
-0.034569
-0.0358511
-0.0369343
-0.037825
-0.03853
-0.0390694
-0.0394254
-0.0396662
-0.039843
0.0182365
0.0163601
0.0139365
0.0111475
0.00815578
0.00504571
0.00187195
-0.00132031
-0.00450385
-0.00764835
-0.010746
-0.0137766
-0.0167318
-0.0195921
-0.0223417
-0.0249611
-0.0274287
-0.029729
-0.0318407
-0.0337557
-0.0354602
-0.0369545
-0.0382373
-0.0393147
-0.0401951
-0.0408864
-0.0414107
-0.0417499
-0.0419739
-0.0421399
0.0185462
0.0165986
0.0140456
0.0110939
0.0079181
0.00460824
0.00122426
-0.0021831
-0.00558074
-0.00893245
-0.0122259
-0.0154364
-0.0185534
-0.0215551
-0.0244256
-0.0271453
-0.0296939
-0.0320569
-0.0342153
-0.0361625
-0.037887
-0.0393905
-0.0406743
-0.0417459
-0.0426156
-0.0432926
-0.0438008
-0.0441222
-0.0443283
-0.0444825
0.0189047
0.0168835
0.0141951
0.0110732
0.00770601
0.00418916
0.000588247
-0.00304025
-0.00665792
-0.010222
-0.0137164
-0.0171116
-0.0203951
-0.0235427
-0.0265384
-0.0293623
-0.0319956
-0.0344246
-0.0366324
-0.0386139
-0.04036
-0.041874
-0.0431596
-0.0442256
-0.0450846
-0.0457469
-0.0462384
-0.0465411
-0.046728
-0.046869
0.0193068
0.0172077
0.0143771
0.0110771
0.00751016
0.00377859
-4.62837e-05
-0.00390232
-0.00774543
-0.0115271
-0.0152271
-0.0188117
-0.022266
-0.0255638
-0.0286886
-0.0316204
-0.0343415
-0.0368392
-0.0390986
-0.041116
-0.0428849
-0.0444099
-0.0456974
-0.0467576
-0.0476054
-0.0482522
-0.0487259
-0.0490086
-0.0491751
-0.0493014
0.0197643
0.0175851
0.0146055
0.0111191
0.00734443
0.00339012
-0.000666335
-0.00475689
-0.00883231
-0.0128376
-0.0167491
-0.0205284
-0.0241587
-0.0276114
-0.0308699
-0.0339136
-0.0367262
-0.0392956
-0.0416093
-0.0436647
-0.0454579
-0.0469949
-0.0482849
-0.0493395
-0.050176
-0.0508067
-0.0512619
-0.0515236
-0.0516681
-0.0517782
0.0202719
0.0180081
0.0148718
0.0111904
0.00719866
0.00301302
-0.0012829
-0.00561528
-0.00992925
-0.0141643
-0.0182926
-0.0222718
-0.0260829
-0.0296951
-0.0330913
-0.0362507
-0.0391578
-0.0418017
-0.0441716
-0.0462664
-0.0480848
-0.0496343
-0.0509268
-0.0519753
-0.0527997
-0.0534134
-0.0538488
-0.054088
-0.0542092
-0.0543012
0.0208416
0.0184898
0.0151902
0.0113049
0.00708747
0.00266171
-0.00188217
-0.00646422
-0.0110246
-0.0154961
-0.019848
-0.024033
-0.0280307
-0.0318073
-0.035346
-0.0386251
-0.0416306
-0.0443519
-0.0467805
-0.0489167
-0.0507617
-0.0523246
-0.0536201
-0.0546626
-0.0554745
-0.0560706
-0.0564853
-0.0567008
-0.0567972
-0.0568694
0.0214673
0.0190222
0.015551
0.0114528
0.0069997
0.00232453
-0.00247598
-0.00731585
-0.0121296
-0.0168445
-0.021426
-0.0258227
-0.030012
-0.033958
-0.0376434
-0.0410461
-0.044153
-0.0469543
-0.0494436
-0.0516225
-0.0534948
-0.0550713
-0.0563694
-0.0574054
-0.058204
-0.0587812
-0.0591739
-0.0593641
-0.0594341
-0.0594843
0.0221609
0.0196193
0.0159691
0.0116487
0.00695084
0.00201677
-0.00304964
-0.00815605
-0.013232
-0.0181979
-0.0230164
-0.0276313
-0.0320185
-0.0361394
-0.0399764
-0.0435069
-0.0467189
-0.0496032
-0.0521556
-0.054379
-0.05628
-0.0578707
-0.059172
-0.0602011
-0.0609859
-0.0615435
-0.0619132
-0.0620768
-0.062119
-0.0621454
0.0229163
0.0202718
0.0164339
0.0118817
0.00692871
0.00172582
-0.00361591
-0.00899781
-0.0143437
-0.0195683
-0.0246305
-0.0294701
-0.0340607
-0.0383616
-0.0423548
-0.046017
-0.0493373
-0.0523071
-0.0549244
-0.0571933
-0.0591236
-0.0607287
-0.0620325
-0.0630541
-0.063824
-0.0643607
-0.0647058
-0.0648413
-0.0648541
-0.0648545
0.0237457
0.0209939
0.0169609
0.0121674
0.00694977
0.00146799
-0.00415913
-0.00982607
-0.0154515
-0.0209434
-0.0262575
-0.0313288
-0.0361297
-0.0406164
-0.044771
-0.0485692
-0.0520015
-0.0550598
-0.0577444
-0.0600606
-0.0620212
-0.0636413
-0.0649479
-0.0659616
-0.066716
-0.0672308
-0.0675503
-0.0676563
-0.0676384
-0.0676114
0.0246423
0.0217758
0.0175385
0.012494
0.00700084
0.00122964
-0.00469296
-0.0106547
-0.0165684
-0.0223357
-0.0279091
-0.0332193
-0.0382365
-0.0429145
-0.0472352
-0.0511736
-0.0547211
-0.0578702
-0.0606238
-0.0629883
-0.0649797
-0.0666146
-0.0679234
-0.0689282
-0.0696658
-0.0701572
-0.0704494
-0.0705244
-0.0704744
-0.0704183
0.025619
0.0226328
0.0181834
0.0128782
0.00709956
0.00102825
-0.00520071
-0.0114676
-0.0176801
-0.0237324
-0.0295741
-0.0351309
-0.0403715
-0.0452471
-0.0497393
-0.0538223
-0.0574889
-0.0607319
-0.0635567
-0.0659711
-0.0679944
-0.0696446
-0.0709556
-0.071951
-0.072671
-0.0731379
-0.0734016
-0.0734442
-0.0733609
-0.0732752
0.0266692
0.023555
0.0188838
0.0133073
0.00723183
0.000849177
-0.00569701
-0.0122797
-0.0188003
-0.0251466
-0.0312647
-0.0370757
-0.0425465
-0.0476255
-0.0522943
-0.056526
-0.0603148
-0.0636541
-0.0665517
-0.0690169
-0.0710723
-0.0727375
-0.0740498
-0.0750347
-0.0757356
-0.0761764
-0.0764098
-0.0764182
-0.0763005
-0.0761845
0.0278065
0.0245589
0.0196575
0.0137995
0.00741658
0.000711132
-0.00616401
-0.0130738
-0.0199141
-0.0265647
-0.0329689
-0.0390426
-0.0447513
-0.0500403
-0.0548913
-0.0592765
-0.0631914
-0.0666299
-0.0696025
-0.0721201
-0.0742086
-0.0758891
-0.0772027
-0.0781764
-0.0788571
-0.0792704
-0.0794721
-0.0794451
-0.0792915
-0.0791452
0.0290238
0.0256344
0.0204921
0.0143415
0.00763879
0.000598502
-0.00661732
-0.0138657
-0.0210358
-0.0280007
-0.0346997
-0.0410444
-0.046998
-0.0525033
-0.0575417
-0.0620847
-0.066129
-0.0696691
-0.0727183
-0.0752889
-0.0774106
-0.0791061
-0.0804199
-0.0813808
-0.0820397
-0.0824236
-0.0825917
-0.0825274
-0.0823365
-0.0821595
0.0303357
0.0267991
0.021407
0.0149525
0.00791879
0.000531298
-0.00703791
-0.0146372
-0.0221497
-0.0294399
-0.0364445
-0.0430691
-0.049276
-0.0550045
-0.0602364
-0.064942
-0.0691196
-0.0727643
-0.0758923
-0.0785175
-0.0806733
-0.0823839
-0.0836976
-0.0846449
-0.0852807
-0.0856338
-0.0857666
-0.0856635
-0.0854338
-0.0852254
0.0317351
0.0280428
0.0223893
0.0156188
0.0082406
0.000492867
-0.00744241
-0.0154049
-0.0232709
-0.0308972
-0.0382168
-0.0451303
-0.051598
-0.0575564
-0.0629873
-0.0678599
-0.0721741
-0.0759256
-0.079134
-0.0818144
-0.0840044
-0.0857295
-0.0870418
-0.0879739
-0.0885846
-0.0889046
-0.089
-0.0888558
-0.0885858
-0.0883454
0.0332372
0.0293838
0.0234597
0.0163609
0.00862598
0.00050459
-0.00781052
-0.0161496
-0.0243827
-0.0323571
-0.0400031
-0.0472154
-0.0539527
-0.0601485
-0.0657845
-0.0708291
-0.075284
-0.0791455
-0.0824364
-0.0851735
-0.0873984
-0.0891381
-0.0904488
-0.0913643
-0.0919484
-0.0922337
-0.0922896
-0.0921026
-0.0917905
-0.0915164
0.0348344
0.0308115
0.0246043
0.0171641
0.00905789
0.000548732
-0.00815994
-0.0168891
-0.0255011
-0.0338354
-0.041818
-0.0493384
-0.0563535
-0.0627936
-0.0686405
-0.0738617
-0.0784606
-0.0824345
-0.0858093
-0.0886037
-0.0908635
-0.0926171
-0.0939244
-0.0948215
-0.0953768
-0.0956247
-0.0956388
-0.0954063
-0.0950501
-0.0947406
0.0365426
0.0323452
0.025845
0.0180503
0.00955953
0.000648059
-0.00846911
-0.0176027
-0.0266086
-0.0353156
-0.0436472
-0.0514863
-0.0587885
-0.0654806
-0.071545
-0.076948
-0.0816952
-0.0857844
-0.0892454
-0.0920986
-0.0943941
-0.0961614
-0.0974649
-0.0983422
-0.0988668
-0.0990753
-0.0990452
-0.0987651
-0.0983624
-0.0980149
0.0383544
0.0339738
0.0271674
0.019004
0.0101128
0.000783673
-0.00875682
-0.0183095
-0.0277218
-0.0368142
-0.0455057
-0.0536736
-0.0612715
-0.0682231
-0.0745108
-0.0801004
-0.0849993
-0.0892063
-0.092755
-0.0956676
-0.0979985
-0.0997788
-0.101077
-0.101932
-0.102423
-0.102589
-0.102512
-0.102181
-0.10173
-0.101342
0.0402863
0.0357173
0.0285945
0.0200481
0.0107422
0.000979759
-0.00900023
-0.0189874
-0.0288224
-0.0383141
-0.0473787
-0.0558866
-0.0637901
-0.0710093
-0.0775273
-0.0833088
-0.0883637
-0.0926918
-0.0963304
-0.0993038
-0.101671
-0.103464
-0.104755
-0.105586
-0.106042
-0.106164
-0.106037
-0.105653
-0.105149
-0.104718
0.0423304
0.0375644
0.0301109
0.0211663
0.0114286
0.00121621
-0.00921927
-0.0196567
-0.029928
-0.0398325
-0.0492819
-0.0581406
-0.0663588
-0.0738532
-0.0806077
-0.086586
-0.0918006
-0.0962522
-0.0999823
-0.103017
-0.10542
-0.107225
-0.108507
-0.109312
-0.10973
-0.109803
-0.109623
-0.109182
-0.108624
-0.108146
0.044504
0.0395357
0.0317407
0.0223828
0.0121978
0.00151864
-0.00938976
-0.0202942
-0.0310191
-0.0413513
-0.0511996
-0.0604209
-0.0689643
-0.0767427
-0.0837408
-0.0899217
-0.0953004
-0.0998788
-0.103703
-0.1068
-0.10924
-0.111056
-0.112329
-0.113105
-0.113482
-0.113505
-0.113268
-0.112767
-0.11215
-0.111623
0.0467995
0.0416197
0.033468
0.0236803
0.0130296
0.00186568
-0.00953287
-0.0209212
-0.0321143
-0.0428886
-0.0531484
-0.0627436
-0.0716217
-0.0796921
-0.0869404
-0.0933289
-0.0988756
-0.103583
-0.107503
-0.110664
-0.11314
-0.114966
-0.116227
-0.116971
-0.117303
-0.117272
-0.116976
-0.116411
-0.115732
-0.11515
0.0492343
0.0438375
0.035318
0.025084
0.0139512
0.00228438
-0.00962307
-0.0215132
-0.0331932
-0.0444256
-0.0551116
-0.0650934
-0.0743173
-0.0826888
-0.0901948
-0.096797
-0.102516
-0.107357
-0.111374
-0.1146
-0.117113
-0.118948
-0.120196
-0.120906
-0.121191
-0.121102
-0.120743
-0.12011
-0.119365
-0.118725
0.0518009
0.0461778
0.0372737
0.026576
0.014941
0.00275206
-0.00968275
-0.0220929
-0.0342752
-0.045981
-0.0571066
-0.0674871
-0.0770666
-0.0857476
-0.0935183
-0.100339
-0.106235
-0.111212
-0.115328
-0.11862
-0.121169
-0.123012
-0.124243
-0.124916
-0.12515
-0.125
-0.124572
-0.123867
-0.123053
-0.12235
0.054517
0.0486618
0.0393613
0.0281825
0.0160278
0.00329727
-0.00968501
-0.0226343
-0.0353389
-0.0475352
-0.059116
-0.0699083
-0.0798553
-0.0888554
-0.0968987
-0.103945
-0.110023
-0.115138
-0.119356
-0.122715
-0.125301
-0.127152
-0.128365
-0.128997
-0.129176
-0.128961
-0.128462
-0.127681
-0.126792
-0.126022
0.0573759
0.0512784
0.0415636
0.0298846
0.0171887
0.00389597
-0.00965355
-0.0231613
-0.0364048
-0.0491076
-0.0611579
-0.0723746
-0.0826995
-0.0920276
-0.100351
-0.107628
-0.113891
-0.119149
-0.123471
-0.126897
-0.129519
-0.131376
-0.132567
-0.133154
-0.133276
-0.132991
-0.132416
-0.131553
-0.130586
-0.129744
0.0603948
0.054049
0.0439075
0.0317096
0.018454
0.00457817
-0.00956009
-0.0236468
-0.0374503
-0.0506778
-0.0632139
-0.074869
-0.0855843
-0.0952504
-0.103862
-0.111377
-0.117831
-0.123235
-0.127663
-0.131158
-0.133817
-0.135677
-0.136846
-0.137385
-0.137444
-0.137085
-0.13643
-0.135481
-0.134431
-0.133513
0.0635676
0.0569627
0.046375
0.0336381
0.0197995
0.00531847
-0.00942961
-0.0241159
-0.0384969
-0.0522661
-0.0653029
-0.0774097
-0.0885261
-0.0985398
-0.107447
-0.115206
-0.121856
-0.127408
-0.131945
-0.135509
-0.138203
-0.140066
-0.141208
-0.141694
-0.141686
-0.141249
-0.140508
-0.139469
-0.13833
-0.13733
0.0669108
0.060041
0.048994
0.0356979
0.0212567
0.00614836
-0.00923245
-0.0245401
-0.0395211
-0.053851
-0.0674058
-0.0799789
-0.0915098
-0.101882
-0.111094
-0.119104
-0.125955
-0.13166
-0.136306
-0.139941
-0.142672
-0.144535
-0.145648
-0.146078
-0.145998
-0.145478
-0.144647
-0.143512
-0.14228
-0.141193
0.0704203
0.0632732
0.0517458
0.037869
0.0228003
0.00704102
-0.00899497
-0.0249458
-0.0405452
-0.0554538
-0.0695422
-0.0825956
-0.0945523
-0.105292
-0.114818
-0.123085
-0.130142
-0.136003
-0.140762
-0.144467
-0.147233
-0.149095
-0.150173
-0.150542
-0.150386
-0.149778
-0.148851
-0.147614
-0.146283
-0.145105
0.0741106
0.0666805
0.0546591
0.0401802
0.0244632
0.00802938
-0.00868609
-0.0253032
-0.0415448
-0.057052
-0.0716921
-0.0852411
-0.0976377
-0.108757
-0.118606
-0.127138
-0.134406
-0.140427
-0.1453
-0.149078
-0.151878
-0.153737
-0.154779
-0.155081
-0.154845
-0.154144
-0.153116
-0.151772
-0.150337
-0.149061
0.0779801
0.0702531
0.0577146
0.0426106
0.0262186
0.00908519
-0.00833357
-0.02564
-0.0425432
-0.0586679
-0.0738761
-0.0879354
-0.100784
-0.112293
-0.122473
-0.131277
-0.138761
-0.144945
-0.149935
-0.153786
-0.15662
-0.158472
-0.159472
-0.159703
-0.15938
-0.158581
-0.157447
-0.155988
-0.154443
-0.153064
0.0820409
0.0740112
0.0609411
0.0451895
0.0281007
0.0102428
-0.00790492
-0.025925
-0.0435149
-0.0602779
-0.0760731
-0.0906586
-0.103974
-0.115885
-0.126407
-0.13549
-0.143196
-0.149548
-0.154657
-0.15858
-0.161447
-0.163291
-0.164248
-0.164402
-0.163988
-0.163085
-0.161839
-0.160261
-0.1586
-0.157112
0.0862945
0.0779459
0.064319
0.0478953
0.0300814
0.0114725
-0.00742937
-0.0261874
-0.0444843
-0.0619055
-0.0783047
-0.0934319
-0.107226
-0.119551
-0.130424
-0.139794
-0.147727
-0.154249
-0.159478
-0.163475
-0.166374
-0.168206
-0.169113
-0.169184
-0.168672
-0.167661
-0.166296
-0.164592
-0.162809
-0.161206
0.090749
0.0820761
0.0678776
0.050758
0.0321962
0.0128099
-0.00687301
-0.0263946
-0.0454247
-0.0635259
-0.0805487
-0.0962344
-0.110524
-0.123274
-0.134509
-0.144175
-0.15234
-0.159036
-0.164388
-0.168459
-0.171389
-0.173208
-0.174061
-0.174044
-0.17343
-0.172304
-0.170816
-0.168979
-0.167068
-0.165343
0.095409
0.0863934
0.071596
0.0537549
0.0344152
0.0142238
-0.00626662
-0.0265773
-0.046362
-0.0651637
-0.0828281
-0.0990884
-0.113885
-0.127074
-0.13868
-0.148648
-0.157052
-0.163925
-0.169402
-0.173547
-0.176506
-0.178307
-0.1791
-0.178989
-0.178265
-0.17702
-0.175401
-0.173425
-0.171378
-0.169526
0.100278
0.0909146
0.0755035
0.0569163
0.0367754
0.0157512
-0.00557484
-0.0267014
-0.0472681
-0.0667932
-0.0851194
-0.101972
-0.117294
-0.130933
-0.142923
-0.153202
-0.161849
-0.168903
-0.174505
-0.178725
-0.181712
-0.183493
-0.184224
-0.184011
-0.183174
-0.181804
-0.180049
-0.177926
-0.175738
-0.17375
0.105362
0.0956318
0.0795786
0.0602189
0.0392452
0.0173593
-0.00483011
-0.0267991
-0.0481703
-0.0684404
-0.087447
-0.104908
-0.120768
-0.134871
-0.147254
-0.157852
-0.166746
-0.173984
-0.179715
-0.184009
-0.187022
-0.18878
-0.18944
-0.18912
-0.188161
-0.18666
-0.184762
-0.182486
-0.180149
-0.178017
0.110662
0.10056
0.0838507
0.0636932
0.0418626
0.0190861
-0.00399564
-0.0268351
-0.0490394
-0.070078
-0.089786
-0.107874
-0.124291
-0.13887
-0.151659
-0.162584
-0.171732
-0.179157
-0.185017
-0.189385
-0.192424
-0.194154
-0.194742
-0.194307
-0.193222
-0.191584
-0.189537
-0.1871
-0.184607
-0.182324
0.116184
0.105692
0.0882976
0.0673156
0.044595
0.0208976
-0.00310538
-0.0268429
-0.049904
-0.0717337
-0.0921623
-0.110895
-0.127881
-0.142951
-0.156154
-0.167414
-0.17682
-0.184436
-0.190428
-0.19487
-0.197932
-0.199631
-0.200137
-0.199581
-0.198362
-0.19658
-0.194376
-0.19177
-0.189115
-0.186672
0.121927
0.11104
0.0929486
0.0711169
0.0474816
0.0228333
-0.00212101
-0.0267858
-0.0507332
-0.0733784
-0.0945495
-0.113945
-0.131522
-0.147095
-0.160725
-0.172329
-0.181999
-0.189809
-0.195933
-0.200451
-0.203533
-0.205198
-0.205619
-0.204934
-0.203577
-0.201644
-0.199274
-0.196493
-0.193668
-0.191059
0.1279
0.1166
0.0977834
0.0750742
0.0504889
0.0248578
-0.00107787
-0.0266987
-0.0515572
-0.0750415
-0.0969749
-0.117052
-0.135231
-0.15132
-0.165387
-0.177343
-0.187283
-0.195293
-0.201553
-0.206145
-0.209245
-0.210871
-0.211199
-0.210378
-0.208871
-0.206776
-0.204233
-0.201267
-0.198266
-0.195484
0.134097
0.122383
0.10283
0.0792189
0.053658
0.0270126
6.43106e-05
-0.0265427
-0.0523428
-0.0766915
-0.0994107
-0.120188
-0.138992
-0.155612
-0.170127
-0.182444
-0.192661
-0.200875
-0.207272
-0.211939
-0.215055
-0.216637
-0.216868
-0.215903
-0.214242
-0.211975
-0.209248
-0.206089
-0.202903
-0.199941
0.140534
0.128386
0.108071
0.0835286
0.0569547
0.0292615
0.00126899
-0.0263541
-0.0531219
-0.0783596
-0.101885
-0.123382
-0.142822
-0.159984
-0.174959
-0.187645
-0.198149
-0.206575
-0.213115
-0.217859
-0.220986
-0.222519
-0.222642
-0.221524
-0.219693
-0.217239
-0.214317
-0.210956
-0.207577
-0.204426
0.147201
0.134621
0.11353
0.0880387
0.060423
0.0316488
0.00257928
-0.0260914
-0.053858
-0.0800111
-0.104369
-0.126605
-0.146705
-0.164425
-0.179873
-0.192939
-0.203738
-0.212384
-0.219068
-0.223889
-0.227024
-0.228504
-0.228513
-0.227237
-0.225224
-0.222569
-0.219436
-0.215863
-0.212282
-0.208932
0.154118
0.141087
0.119196
0.0927217
0.0640263
0.0341363
0.00395669
-0.0257925
-0.0545855
-0.0816797
-0.106889
-0.129884
-0.150654
-0.168944
-0.184876
-0.198337
-0.209447
-0.218325
-0.225163
-0.230063
-0.233205
-0.234625
-0.234507
-0.233055
-0.230838
-0.227959
-0.224602
-0.220806
-0.217016
-0.213458
0.161273
0.147792
0.125087
0.0976138
0.0678124
0.0367733
0.00544862
-0.0254118
-0.055263
-0.0833261
-0.109418
-0.133193
-0.154659
-0.173534
-0.189965
-0.203834
-0.215268
-0.224388
-0.231382
-0.236363
-0.239507
-0.240861
-0.24061
-0.238973
-0.236536
-0.233416
-0.229816
-0.225788
-0.221777
-0.218003
0.168689
0.15474
0.131195
0.102683
0.0717383
0.0395158
0.00701139
-0.0249923
-0.0559306
-0.0849898
-0.111983
-0.136555
-0.158727
-0.178198
-0.195143
-0.20944
-0.221216
-0.230593
-0.237754
-0.24282
-0.245966
-0.247245
-0.246846
-0.245003
-0.24232
-0.238935
-0.235077
-0.230805
-0.226568
-0.22257
0.176353
0.161933
0.13753
0.107972
0.0758586
0.0424208
0.00870048
-0.0244839
-0.0565404
-0.0866263
-0.114551
-0.13995
-0.162851
-0.182938
-0.200411
-0.215151
-0.227284
-0.236926
-0.244258
-0.249406
-0.25255
-0.25375
-0.253194
-0.25114
-0.248192
-0.244521
-0.240388
-0.235862
-0.231389
-0.227156
0.18429
0.169381
0.144091
0.11344
0.0801213
0.0454323
0.0104599
-0.0239383
-0.057144
-0.0882844
-0.117159
-0.1434
-0.167038
-0.187752
-0.205769
-0.220975
-0.233485
-0.243409
-0.25092
-0.256159
-0.259299
-0.260412
-0.259686
-0.257393
-0.254152
-0.250173
-0.245748
-0.240959
-0.236242
-0.23177
0.192479
0.177079
0.150881
0.119132
0.0845822
0.0486101
0.0123474
-0.0233055
-0.0576921
-0.0899183
-0.119775
-0.146889
-0.171287
-0.192646
-0.211222
-0.226908
-0.239809
-0.250022
-0.257716
-0.26304
-0.266173
-0.267195
-0.26629
-0.263755
-0.260201
-0.255897
-0.251164
-0.2461
-0.241132
-0.236411
0.200956
0.185042
0.157902
0.125
0.0891805
0.051887
0.0142963
-0.0226449
-0.0582446
-0.0915849
-0.122441
-0.150437
-0.175602
-0.197618
-0.216769
-0.232959
-0.246268
-0.256782
-0.264666
-0.270082
-0.273208
-0.27413
-0.273035
-0.270229
-0.266339
-0.26169
-0.256637
-0.25129
-0.246064
-0.241089
0.209691
0.193257
0.165154
0.131092
0.0939774
0.0553297
0.0163707
-0.0219035
-0.0587481
-0.0932336
-0.12512
-0.154034
-0.179989
-0.202681
-0.222418
-0.23912
-0.252847
-0.263665
-0.271738
-0.27724
-0.280355
-0.281174
-0.279882
-0.276806
-0.272566
-0.267557
-0.262172
-0.256531
-0.251038
-0.2458
0.218723
0.201747
0.172642
0.137359
0.0989062
0.0588613
0.0184942
-0.0211466
-0.0592697
-0.0949283
-0.127862
-0.157699
-0.184448
-0.207828
-0.228166
-0.2454
-0.259559
-0.270691
-0.278958
-0.284549
-0.287654
-0.288362
-0.286863
-0.28349
-0.278878
-0.273495
-0.267766
-0.261823
-0.256057
-0.250548
0.228018
0.210493
0.180364
0.143852
0.104029
0.0625499
0.0207325
-0.0203228
-0.0597558
-0.0966186
-0.130627
-0.161427
-0.188989
-0.213075
-0.234025
-0.251795
-0.26639
-0.277834
-0.286294
-0.291967
-0.295056
-0.29565
-0.293939
-0.290271
-0.285278
-0.279506
-0.27342
-0.267164
-0.261116
-0.255326
0.23762
0.219522
0.188328
0.15052
0.109275
0.0663139
0.0230048
-0.0194978
-0.0602749
-0.0983698
-0.133471
-0.165231
-0.193611
-0.218414
-0.239989
-0.258311
-0.273354
-0.285119
-0.293774
-0.299533
-0.302604
-0.303079
-0.301145
-0.297155
-0.291759
-0.285586
-0.279133
-0.272555
-0.266216
-0.260138
0.247487
0.228811
0.19653
0.157417
0.114713
0.0702282
0.0253832
-0.0186151
-0.060769
-0.100124
-0.136345
-0.169107
-0.198325
-0.223863
-0.246071
-0.264945
-0.280437
-0.292519
-0.301366
-0.307202
-0.310251
-0.310601
-0.308438
-0.30413
-0.298324
-0.291735
-0.284902
-0.277989
-0.27135
-0.264972
0.25767
0.23839
0.20498
0.16449
0.120273
0.0742117
0.0277877
-0.0177379
-0.0613033
-0.101946
-0.139307
-0.173064
-0.203127
-0.229407
-0.252263
-0.271704
-0.287655
-0.300063
-0.309103
-0.315021
-0.318044
-0.318264
-0.31586
-0.311205
-0.304967
-0.297946
-0.290723
-0.283466
-0.276517
-0.26983
0.268119
0.248235
0.213673
0.171796
0.126025
0.0783449
0.030296
-0.0168058
-0.0618163
-0.103774
-0.142302
-0.177097
-0.208026
-0.235065
-0.258575
-0.278582
-0.294994
-0.307723
-0.316955
-0.322943
-0.325935
-0.326019
-0.323369
-0.318369
-0.311688
-0.304222
-0.296594
-0.288979
-0.281709
-0.274701
0.278893
0.258376
0.22262
0.179281
0.131897
0.0825437
0.0328261
-0.0158829
-0.0623731
-0.105676
-0.145388
-0.181213
-0.213014
-0.24082
-0.264999
-0.285588
-0.302471
-0.31553
-0.324954
-0.331016
-0.333975
-0.333916
-0.331003
-0.325628
-0.318483
-0.310555
-0.30251
-0.294528
-0.286927
-0.279589
0.289936
0.268785
0.231814
0.187004
0.137967
0.086896
0.0354626
-0.0149029
-0.0629077
-0.107579
-0.148505
-0.185405
-0.218101
-0.246689
-0.271544
-0.292713
-0.310067
-0.323452
-0.333065
-0.339191
-0.342109
-0.341899
-0.33872
-0.332973
-0.325352
-0.316946
-0.308469
-0.300105
-0.292163
-0.284481
0.301311
0.279498
0.241267
0.194907
0.144159
0.0913154
0.0381219
-0.0139308
-0.0634845
-0.109556
-0.151713
-0.189679
-0.223276
-0.252653
-0.278197
-0.299965
-0.317802
-0.33152
-0.341324
-0.347518
-0.350392
-0.350024
-0.346562
-0.340409
-0.332288
-0.323387
-0.314466
-0.30571
-0.297415
-0.289379
0.312957
0.290483
0.25097
0.203054
0.150554
0.0958935
0.040892
-0.0128978
-0.0640357
-0.111531
-0.154948
-0.194027
-0.228548
-0.25873
-0.284971
-0.307335
-0.325656
-0.339705
-0.349696
-0.355946
-0.358767
-0.358233
-0.354482
-0.347927
-0.339295
-0.32988
-0.320498
-0.311336
-0.302677
-0.294276
0.324942
0.301776
0.260936
0.211382
0.157069
0.100538
0.0436842
-0.0118728
-0.0646287
-0.11358
-0.158273
-0.198454
-0.233903
-0.264897
-0.29185
-0.314831
-0.333649
-0.348036
-0.358216
-0.364526
-0.367292
-0.366584
-0.362525
-0.355532
-0.346361
-0.336417
-0.326562
-0.316983
-0.30795
-0.299174
0.337198
0.313342
0.271154
0.219956
0.163792
0.105345
0.0465912
-0.0107834
-0.0651925
-0.115621
-0.161621
-0.202951
-0.239355
-0.271176
-0.298848
-0.322443
-0.341757
-0.35648
-0.366844
-0.373201
-0.375903
-0.375011
-0.37064
-0.363214
-0.353493
-0.342999
-0.332656
-0.322646
-0.313227