/*--------------------------------*- C++ -*----------------------------------*\
  =========                 |
  \\      /  F ield         | OpenFOAM: The Open Source CFD Toolbox
   \\    /   O peration     | Website:  https://openfoam.org
    \\  /    A nd           | Version:  6.0
     \\/     M anipulation  |
\*---------------------------------------------------------------------------*/
FoamFile
{
    version     2.0;
    format      ascii;
    class       surfaceScalarField;
    location    "5";
    object      phi;
}
// * * * * * * * * * * * * * * * * * * * * * * * * * * * * * * * * * * * * * //

dimensions      [0 3 -1 0 0 0 0];

internalField   nonuniform List<scalar> 
47678
(
2.98121e-05
0.00388594
1.98446e-09
5.98456e-05
0.00381845
8.91114e-05
0.00368584
0.000116959
0.00349006
0.000142851
0.00323443
0.000166312
0.00292344
0.000186915
0.00256258
0.000204298
0.00215808
0.000218148
0.001717
0.000228224
0.00124673
0.000234339
0.000755639
0.000254105
0.000236666
2.96193e-05
0.00385632
5.63726e-09
5.94624e-05
0.00378861
8.85433e-05
0.00365676
0.000116215
0.00346239
0.000141943
0.0032087
0.000165254
0.00290013
0.000185726
0.0025421
0.000202997
0.00214081
0.00021676
0.00170324
0.000226769
0.00123672
0.000232905
0.000749499
0.000251689
0.000235316
2.94275e-05
0.00382688
9.30415e-09
5.90818e-05
0.00375896
8.79794e-05
0.00362786
0.000115477
0.00343489
0.000141043
0.00318314
0.000164206
0.00287697
0.000184548
0.00252176
0.000201708
0.00212365
0.000215384
0.00168956
0.000225323
0.00122678
0.000231428
0.000743394
0.000249294
0.000233829
2.92371e-05
0.00379763
1.28694e-08
5.8704e-05
0.00372949
8.74195e-05
0.00359915
0.000114744
0.00340757
0.000140149
0.00315774
0.000163165
0.00285395
0.000183377
0.00250155
0.000200427
0.0021066
0.000214016
0.00167597
0.000223887
0.0012169
0.000229942
0.000737336
0.000246931
0.000232302
2.90483e-05
0.00376857
1.62737e-08
5.83292e-05
0.00370021
8.68636e-05
0.00357062
0.000114016
0.00338041
0.00013926
0.00313249
0.00016213
0.00283108
0.000182213
0.00248147
0.000199154
0.00208966
0.000212657
0.00166247
0.000222462
0.0012071
0.000228466
0.000731334
0.000244624
0.000230778
2.88612e-05
0.00373969
1.95034e-08
5.79572e-05
0.00367111
8.63115e-05
0.00354227
0.000113293
0.00335343
0.000138377
0.00310741
0.000161101
0.00280836
0.000181056
0.00246151
0.000197888
0.00207282
0.000211306
0.00164905
0.00022105
0.00119735
0.000227005
0.000725376
0.000242358
0.000229268
2.86755e-05
0.00371099
2.24912e-08
5.75879e-05
0.0036422
8.57632e-05
0.00351409
0.000112574
0.00332662
0.000137499
0.00308248
0.000160079
0.00278578
0.000179907
0.00244169
0.000196631
0.0020561
0.000209964
0.00163572
0.000219648
0.00118767
0.000225559
0.000719466
0.000240148
0.000227775
2.84913e-05
0.00368247
2.521e-08
5.72213e-05
0.00361347
8.52184e-05
0.0034861
0.000111859
0.00329998
0.000136627
0.00305772
0.000159063
0.00276334
0.000178764
0.00242198
0.000195381
0.00203948
0.00020863
0.00162247
0.000218255
0.00117805
0.000224127
0.000713592
0.000237969
0.000226303
2.83085e-05
0.00365414
2.76059e-08
5.68572e-05
0.00358492
8.46773e-05
0.00345828
0.00011115
0.00327351
0.00013576
0.00303311
0.000158053
0.00274105
0.000177628
0.00240241
0.000194139
0.00202297
0.000207303
0.00160931
0.000216872
0.00116848
0.000222706
0.00070776
0.000235829
0.000224851
2.81272e-05
0.00362598
2.96485e-08
5.64955e-05
0.00355656
8.41397e-05
0.00343063
0.000110444
0.00324721
0.000134898
0.00300865
0.000157049
0.0027189
0.0001765
0.00238296
0.000192905
0.00200657
0.000205986
0.00159623
0.000215497
0.00115897
0.000221296
0.00070196
0.000233707
0.000223415
2.79472e-05
0.003598
3.13104e-08
5.61363e-05
0.00352837
8.36054e-05
0.00340316
0.000109743
0.00322107
0.000134042
0.00298436
0.000156052
0.00269689
0.000175378
0.00236363
0.000191679
0.00199027
0.000204676
0.00158323
0.000214131
0.00114951
0.000219895
0.000696197
0.000231615
0.000221991
2.77685e-05
0.0035702
3.25934e-08
5.57794e-05
0.00350036
8.30746e-05
0.00337587
0.000109047
0.0031951
0.000133191
0.00296021
0.000155061
0.00267502
0.000174264
0.00234443
0.00019046
0.00197407
0.000203375
0.00157031
0.000212772
0.00114011
0.000218504
0.000690464
0.000229539
0.000220578
2.75911e-05
0.00354258
3.35178e-08
5.54248e-05
0.00347252
8.25471e-05
0.00334875
0.000108355
0.00316929
0.000132345
0.00293622
0.000154076
0.00265329
0.000173156
0.00232535
0.000189249
0.00195798
0.000202082
0.00155748
0.000211423
0.00113077
0.000217121
0.000684767
0.000227491
0.000219173
2.7415e-05
0.00351513
3.41241e-08
5.50725e-05
0.00344487
8.20228e-05
0.0033218
0.000107667
0.00314365
0.000131505
0.00291238
0.000153097
0.0026317
0.000172056
0.00230639
0.000188046
0.00194199
0.000200797
0.00154473
0.000210081
0.00112149
0.000215746
0.0006791
0.000225457
0.000217778
2.72402e-05
0.00348786
3.44672e-08
5.47225e-05
0.00341738
8.15019e-05
0.00329502
0.000106983
0.00311817
0.000130669
0.0028887
0.000152124
0.00261024
0.000170962
0.00228755
0.00018685
0.0019261
0.00019952
0.00153206
0.000208747
0.00111226
0.00021438
0.00067347
0.00022345
0.000216392
2.70665e-05
0.00346076
3.46055e-08
5.43747e-05
0.00339008
8.09842e-05
0.00326841
0.000106303
0.00309285
0.000129839
0.00286516
0.000151157
0.00258893
0.000169875
0.00226884
0.000185662
0.00191031
0.000198251
0.00151947
0.000207422
0.00110309
0.000213021
0.00066787
0.000221454
0.000215016
2.68941e-05
0.00343383
3.45925e-08
5.40292e-05
0.00336294
8.04697e-05
0.00324197
0.000105628
0.00306769
0.000129014
0.00284178
0.000150196
0.00256774
0.000168794
0.00225024
0.000184482
0.00189463
0.00019699
0.00150697
0.000206105
0.00109398
0.000211671
0.000662306
0.000219481
0.000213648
2.67228e-05
0.00340707
3.44732e-08
5.36858e-05
0.00333598
7.99584e-05
0.0032157
0.000104957
0.00304269
0.000128194
0.00281854
0.000149241
0.0025467
0.000167721
0.00223176
0.000183308
0.00187904
0.000195738
0.00149454
0.000204796
0.00108492
0.000210328
0.000656773
0.000217519
0.00021229
2.65527e-05
0.00338048
3.42762e-08
5.33446e-05
0.00330919
7.94503e-05
0.00318959
0.00010429
0.00301785
0.000127378
0.00279545
0.000148291
0.00252578
0.000166654
0.0022134
0.000182143
0.00186355
0.000194493
0.00148219
0.000203495
0.00107592
0.000208994
0.000651276
0.000215579
0.000210941
2.63836e-05
0.00335407
3.40173e-08
5.30055e-05
0.00328257
7.89453e-05
0.00316366
0.000103627
0.00299317
0.000126568
0.00277251
0.000147348
0.00250501
0.000165594
0.00219515
0.000180984
0.00184816
0.000193257
0.00146991
0.000202203
0.00106697
0.000207669
0.000645809
0.000213647
0.000209601
2.62157e-05
0.00332782
3.37017e-08
5.26685e-05
0.00325611
7.84434e-05
0.00313788
0.000102968
0.00296865
0.000125763
0.00274971
0.000146411
0.00248436
0.00016454
0.00217702
0.000179833
0.00183287
0.000192028
0.00145772
0.000200919
0.00105808
0.000206351
0.000640378
0.000211736
0.000208269
2.60489e-05
0.00330174
3.33322e-08
5.23336e-05
0.00322983
7.79447e-05
0.00311227
0.000102313
0.00294428
0.000124963
0.00272706
0.000145479
0.00246384
0.000163494
0.00215901
0.00017869
0.00181767
0.000190808
0.0014456
0.000199643
0.00104925
0.000205042
0.000634978
0.000209832
0.000206946
2.58831e-05
0.00327582
3.2917e-08
5.20008e-05
0.00320371
7.7449e-05
0.00308682
0.000101662
0.00292007
0.000124168
0.00270456
0.000144553
0.00244346
0.000162453
0.00214111
0.000177554
0.00180257
0.000189595
0.00143356
0.000198375
0.00104047
0.000203742
0.000629613
0.000207949
0.000205632
2.57183e-05
0.00325007
3.24791e-08
5.167e-05
0.00317776
7.69563e-05
0.00306154
0.000101015
0.00289601
0.000123378
0.0026822
0.000143633
0.0024232
0.00016142
0.00212332
0.000176424
0.00178757
0.00018839
0.0014216
0.000197115
0.00103174
0.000202449
0.000624278
0.000206071
0.000204327
2.55546e-05
0.00322448
3.20586e-08
5.13413e-05
0.00315197
7.64666e-05
0.00303641
0.000100372
0.0028721
0.000122592
0.00265997
0.000142719
0.00240307
0.000160393
0.00210565
0.000175303
0.00177266
0.000187192
0.00140971
0.000195863
0.00102307
0.000201165
0.000618979
0.000204213
0.000203029
2.53919e-05
0.00319906
3.17145e-08
5.10145e-05
0.00312635
7.598e-05
0.00301145
9.97331e-05
0.00284835
0.000121812
0.0026379
0.000141811
0.00238308
0.000159372
0.00208809
0.000174188
0.00175784
0.000186003
0.00139789
0.00019462
0.00101446
0.000199889
0.000613709
0.000202361
0.00020174
2.52302e-05
0.0031738
3.15163e-08
5.06898e-05
0.00310089
7.54963e-05
0.00298664
9.90981e-05
0.00282475
0.000121036
0.00261596
0.000140908
0.0023632
0.000158358
0.00207064
0.00017308
0.00174312
0.000184821
0.00138615
0.000193384
0.00100589
0.00019862
0.000608475
0.000200528
0.00020046
2.50694e-05
0.0031487
3.15358e-08
5.0367e-05
0.0030756
7.50155e-05
0.00296199
9.8467e-05
0.0028013
0.000120266
0.00259416
0.000140011
0.00234346
0.000157351
0.0020533
0.00017198
0.00172849
0.000183647
0.00137448
0.000192156
0.000997385
0.000197361
0.00060327
0.0001987
0.000199187
2.49096e-05
0.00312376
3.18338e-08
5.00461e-05
0.00305046
7.45377e-05
0.0029375
9.78398e-05
0.002778
0.0001195
0.0025725
0.00013912
0.00232384
0.00015635
0.00203607
0.000170887
0.00171395
0.00018248
0.00136289
0.000190937
0.00098893
0.000196109
0.0005981
0.000196891
0.000197923
2.47508e-05
0.00309898
3.24504e-08
4.97272e-05
0.00302548
7.40628e-05
0.00291317
9.72165e-05
0.00275484
0.000118739
0.00255098
0.000138234
0.00230434
0.000155355
0.00201895
0.0001698
0.00169951
0.000181321
0.00135137
0.000189725
0.000980526
0.000194865
0.000592959
0.000195087
0.000196667
2.45928e-05
0.00307435
3.33973e-08
4.94102e-05
0.00300067
7.35908e-05
0.00288898
9.6597e-05
0.00273184
0.000117982
0.00252959
0.000137354
0.00228497
0.000154366
0.00200193
0.000168721
0.00168515
0.000180169
0.00133992
0.00018852
0.000972176
0.000193629
0.000587853
0.000193302
0.000195419
2.44358e-05
0.00304988
3.46584e-08
4.90952e-05
0.00297601
7.31217e-05
0.00286496
9.59815e-05
0.00270898
0.000117231
0.00250834
0.00013648
0.00226572
0.000153384
0.00198503
0.000167649
0.00167089
0.000179025
0.00132855
0.000187324
0.000963877
0.000192401
0.000582775
0.000191522
0.000194179
2.42796e-05
0.00302556
3.61925e-08
4.8782e-05
0.0029515
7.26555e-05
0.00284108
9.53697e-05
0.00268626
0.000116484
0.00248723
0.000135611
0.0022466
0.000152409
0.00196823
0.000166583
0.00165672
0.000177888
0.00131724
0.000186135
0.000955631
0.000191181
0.000577732
0.00018976
0.000192947
2.41243e-05
0.0030014
3.79439e-08
4.84707e-05
0.00292716
7.21922e-05
0.00281736
9.47618e-05
0.00266369
0.000115742
0.00246625
0.000134747
0.00222759
0.000151439
0.00195154
0.000165524
0.00164263
0.000176758
0.00130601
0.000184954
0.000947435
0.000189968
0.000572717
0.000188004
0.000191723
2.39699e-05
0.00297739
3.98515e-08
4.81613e-05
0.00290297
7.17317e-05
0.00279379
9.41577e-05
0.00264127
0.000115004
0.0024454
0.00013389
0.00220871
0.000150476
0.00193495
0.000164472
0.00162864
0.000175636
0.00129485
0.000183781
0.000939292
0.000188764
0.000567736
0.000186265
0.000190507
2.38164e-05
0.00295353
4.186e-08
4.78538e-05
0.00287893
7.1274e-05
0.00277037
9.35574e-05
0.00261898
0.000114272
0.00242469
0.000133037
0.00218994
0.000149519
0.00191847
0.000163427
0.00161473
0.000174521
0.00128375
0.000182615
0.000931198
0.000187567
0.000562783
0.000184532
0.000189298
2.36638e-05
0.00292983
4.39257e-08
4.75481e-05
0.00285504
7.08192e-05
0.0027471
9.29608e-05
0.00259684
0.000113544
0.0024041
0.00013219
0.00217129
0.000148568
0.0019021
0.000162389
0.00160091
0.000173413
0.00127273
0.000181456
0.000923156
0.000186377
0.000557864
0.000182817
0.000188098
2.35119e-05
0.00290627
4.60202e-08
4.72442e-05
0.00283131
7.03672e-05
0.00272398
9.2368e-05
0.00257484
0.00011282
0.00238365
0.000131349
0.00215276
0.000147623
0.00188582
0.000161357
0.00158717
0.000172312
0.00126177
0.000180305
0.000915164
0.000185196
0.000552972
0.000181108
0.000186905
2.3361e-05
0.00288286
4.8129e-08
4.69422e-05
0.00280773
6.9918e-05
0.002701
9.17789e-05
0.00255298
0.000112101
0.00236333
0.000130513
0.00213435
0.000146684
0.00186965
0.000160332
0.00157353
0.000171218
0.00125089
0.000179161
0.000907222
0.000184022
0.000548114
0.000179415
0.00018572
2.32109e-05
0.0028596
5.02482e-08
4.66421e-05
0.0027843
6.94716e-05
0.00267817
9.11935e-05
0.00253126
0.000111387
0.00234314
0.000129682
0.00211606
0.000145751
0.00185358
0.000159313
0.00155996
0.000170132
0.00124007
0.000178025
0.000899329
0.000182855
0.000543283
0.000177728
0.000184542
2.30616e-05
0.00283648
5.23783e-08
4.63437e-05
0.00276102
6.9028e-05
0.00265549
9.06118e-05
0.00250967
0.000110677
0.00232307
0.000128856
0.00209788
0.000144824
0.00183761
0.000158301
0.00154649
0.000169052
0.00122932
0.000176896
0.000891486
0.000181696
0.000538486
0.000176058
0.000183372
2.29132e-05
0.00281352
5.45193e-08
4.60472e-05
0.00273788
6.85871e-05
0.00263295
9.00338e-05
0.00248823
0.000109972
0.00230313
0.000128036
0.00207981
0.000143903
0.00182175
0.000157296
0.0015331
0.000167979
0.00121863
0.000175774
0.000883691
0.000180544
0.000533715
0.000174393
0.00018221
2.27657e-05
0.00279069
5.66661e-08
4.57524e-05
0.0027149
6.8149e-05
0.00261055
8.94594e-05
0.00246691
0.000109271
0.00228332
0.000127221
0.00206186
0.000142989
0.00180598
0.000156297
0.00151979
0.000166913
0.00120802
0.000174659
0.000875946
0.0001794
0.000528977
0.000172744
0.000181055
2.26189e-05
0.00276802
5.88066e-08
4.54595e-05
0.00269206
6.77136e-05
0.0025883
8.88887e-05
0.00244574
0.000108575
0.00226363
0.000126412
0.00204403
0.000142079
0.00179031
0.000155304
0.00150656
0.000165854
0.00119747
0.000173552
0.000868248
0.000178263
0.000524265
0.0001711
0.000179908
2.24731e-05
0.00274548
6.09213e-08
4.51683e-05
0.00266936
6.72809e-05
0.00256619
8.83216e-05
0.0024247
0.000107883
0.00224407
0.000125607
0.0020263
0.000141176
0.00177474
0.000154318
0.00149342
0.000164802
0.00118699
0.000172451
0.0008606
0.000177133
0.000519586
0.000169472
0.000178768
2.23281e-05
0.00272309
6.29856e-08
4.4879e-05
0.00264681
6.6851e-05
0.00254422
8.7758e-05
0.00240379
0.000107196
0.00222463
0.000124808
0.00200869
0.000140279
0.00175927
0.000153338
0.00148036
0.000163756
0.00117657
0.000171358
0.000852998
0.00017601
0.000514934
0.000167849
0.000177635
2.21839e-05
0.00270084
6.49724e-08
4.45914e-05
0.0026244
6.64237e-05
0.00252238
8.7198e-05
0.00238301
0.000106512
0.00220532
0.000124013
0.00199119
0.000139387
0.0017439
0.000152364
0.00146739
0.000162717
0.00116621
0.000170271
0.000845445
0.000174895
0.000510313
0.000166241
0.000176509
2.20406e-05
0.00267874
6.68568e-08
4.43056e-05
0.00260214
6.59991e-05
0.00250069
8.66416e-05
0.00236237
0.000105834
0.00218613
0.000123224
0.0019738
0.000138501
0.00172862
0.000151397
0.00145449
0.000161685
0.00115593
0.000169192
0.000837938
0.000173787
0.000505718
0.000164638
0.000175391
2.18982e-05
0.00265677
6.86181e-08
4.40216e-05
0.00258001
6.55772e-05
0.00247913
8.60888e-05
0.00234186
0.000105159
0.00216706
0.00012244
0.00195652
0.000137621
0.00171344
0.000150435
0.00144168
0.000160659
0.0011457
0.000168119
0.000830479
0.000172685
0.000501155
0.000163051
0.000174279
2.17566e-05
0.00263494
7.02435e-08
4.37393e-05
0.00255803
6.5158e-05
0.00245771
8.55394e-05
0.00232148
0.000104489
0.00214811
0.000121661
0.00193935
0.000136746
0.00169836
0.00014948
0.00142894
0.00015964
0.00113554
0.000167054
0.000823065
0.000171591
0.000496618
0.000161468
0.000173175
2.1616e-05
0.00261325
7.1728e-08
4.34588e-05
0.00253619
6.47414e-05
0.00243643
8.49936e-05
0.00230122
0.000103824
0.00212927
0.000120887
0.00192228
0.000135877
0.00168337
0.000148531
0.00141629
0.000158628
0.00112545
0.000165995
0.000815699
0.000170504
0.000492112
0.000159901
0.000172077
2.14761e-05
0.00259171
7.30742e-08
4.31801e-05
0.00251448
6.43275e-05
0.00241528
8.44512e-05
0.0022811
0.000103162
0.00211056
0.000120118
0.00190533
0.000135014
0.00166847
0.000147588
0.00140372
0.000157622
0.00111541
0.000164943
0.000808378
0.000169423
0.000487632
0.000158339
0.000170987
2.13372e-05
0.00257029
7.42903e-08
4.29031e-05
0.00249292
6.39162e-05
0.00239427
8.39123e-05
0.0022611
0.000102505
0.00209197
0.000119353
0.00188848
0.000134156
0.00165367
0.000146652
0.00139122
0.000156622
0.00110544
0.000163897
0.000801104
0.00016835
0.000483182
0.000156791
0.000169903
2.11992e-05
0.00254902
7.53874e-08
4.26279e-05
0.00247149
6.35075e-05
0.00237339
8.33769e-05
0.00224124
0.000101852
0.0020735
0.000118594
0.00187174
0.000133303
0.00163896
0.000145721
0.0013788
0.000155629
0.00109553
0.000162859
0.000793874
0.000167283
0.000478758
0.000155249
0.000168826
2.1062e-05
0.00252788
7.63768e-08
4.23545e-05
0.00245019
6.31015e-05
0.00235264
8.28449e-05
0.00222149
0.000101203
0.00205514
0.00011784
0.0018551
0.000132456
0.00162434
0.000144796
0.00136646
0.000154642
0.00108569
0.000161827
0.00078669
0.000166224
0.000474363
0.000153721
0.000167756
2.09258e-05
0.00250688
7.72684e-08
4.20828e-05
0.00242904
6.26981e-05
0.00233203
8.23163e-05
0.00220187
0.000100558
0.00203689
0.00011709
0.00183857
0.000131615
0.00160982
0.000143877
0.0013542
0.000153661
0.0010759
0.000160801
0.000779551
0.000165171
0.000469994
0.000152199
0.000166693
2.07904e-05
0.00248601
7.80696e-08
4.18129e-05
0.00240801
6.22972e-05
0.00231154
8.17912e-05
0.00218238
9.99179e-05
0.00201877
0.000116345
0.00182214
0.000130779
0.00159538
0.000142964
0.00134202
0.000152687
0.00106618
0.000159782
0.000772457
0.000164124
0.000465654
0.000150691
0.000165637
2.0656e-05
0.00246527
7.87863e-08
4.15447e-05
0.00238713
6.1899e-05
0.00229119
8.12694e-05
0.00216301
9.92815e-05
0.00200075
0.000115605
0.00180582
0.000129948
0.00158104
0.000142057
0.00132991
0.000151719
0.00105652
0.00015877
0.000765406
0.000163085
0.00046134
0.000149189
0.000164588
2.05224e-05
0.00244467
7.94245e-08
4.12782e-05
0.00236637
6.15033e-05
0.00227096
8.0751e-05
0.00214376
9.86493e-05
0.00198285
0.00011487
0.00178959
0.000129122
0.00156679
0.000141155
0.00131787
0.000150757
0.00104692
0.000157764
0.000758401
0.000162052
0.000457054
0.0001477
0.000163545
2.03897e-05
0.0024242
7.99928e-08
4.10135e-05
0.00234575
6.11102e-05
0.00225087
8.02359e-05
0.00212463
9.80211e-05
0.00196507
0.00011414
0.00177348
0.000128302
0.00155263
0.00014026
0.00130592
0.000149802
0.00103737
0.000156764
0.000751438
0.000161025
0.000452793
0.000146218
0.000162509
2.02579e-05
0.00240386
8.05049e-08
4.07505e-05
0.00232525
6.07196e-05
0.0022309
7.97242e-05
0.00210563
9.73969e-05
0.0019474
0.000113414
0.00175746
0.000127488
0.00153855
0.00013937
0.00129403
0.000148852
0.00102789
0.000155771
0.00074452
0.000160006
0.000448561
0.000144749
0.00016148
2.0127e-05
0.00238365
8.09807e-08
4.04892e-05
0.00230489
6.03316e-05
0.00221105
7.92158e-05
0.00208674
9.67768e-05
0.00192983
0.000112693
0.00174154
0.000126678
0.00152457
0.000138486
0.00128223
0.000147908
0.00101847
0.000154784
0.000737644
0.000158992
0.000444353
0.000143286
0.000160458
1.9997e-05
0.00236358
8.14469e-08
4.02297e-05
0.00228466
5.99461e-05
0.00219134
7.87106e-05
0.00206797
9.61607e-05
0.00191238
0.000111976
0.00172572
0.000125873
0.00151067
0.000137607
0.00127049
0.000146971
0.00100911
0.000153804
0.000730812
0.000157985
0.000440174
0.000141836
0.000159442
1.98679e-05
0.00234363
8.19346e-08
3.99718e-05
0.00226455
5.95631e-05
0.00217175
7.82088e-05
0.00204933
9.55486e-05
0.00189504
0.000111265
0.00171001
0.000125074
0.00149686
0.000136734
0.00125883
0.000146039
0.0009998
0.00015283
0.000724022
0.000156985
0.000436019
0.000140393
0.000158432
1.97397e-05
0.0023238
8.24777e-08
3.97157e-05
0.00224457
5.91826e-05
0.00215228
7.77102e-05
0.0020308
9.49404e-05
0.00187781
0.000110557
0.00169439
0.00012428
0.00148314
0.000135867
0.00124724
0.000145114
0.000990553
0.000151862
0.000717275
0.000155991
0.000431892
0.000138962
0.000157429
1.96123e-05
0.00230411
8.31076e-08
3.94612e-05
0.00222473
5.88046e-05
0.00213293
7.72148e-05
0.00201239
9.43361e-05
0.00186069
0.000109855
0.00167887
0.000123491
0.0014695
0.000135005
0.00123573
0.000144194
0.000981364
0.0001509
0.00071057
0.000155003
0.000427789
0.000137537
0.000156432
1.94858e-05
0.00228454
8.38508e-08
3.92084e-05
0.002205
5.8429e-05
0.00211371
7.67226e-05
0.00199409
9.37357e-05
0.00184368
0.000109156
0.00166345
0.000122707
0.00145595
0.000134149
0.00122429
0.000143281
0.000972232
0.000149944
0.000703907
0.000154022
0.000423713
0.000136125
0.000155442
1.93602e-05
0.00226509
8.47244e-08
3.89573e-05
0.00218541
5.80559e-05
0.00209461
7.62337e-05
0.00197592
9.31392e-05
0.00182677
0.000108463
0.00164813
0.000121928
0.00144248
0.000133298
0.00121292
0.000142373
0.000963157
0.000148995
0.000697286
0.000153047
0.000419662
0.00013472
0.000154458
1.92354e-05
0.00224577
8.57358e-08
3.87078e-05
0.00216593
5.76852e-05
0.00207563
7.57478e-05
0.00195785
9.25466e-05
0.00180997
0.000107773
0.0016329
0.000121154
0.0014291
0.000132453
0.00120162
0.000141471
0.000954139
0.000148051
0.000690706
0.000152078
0.000415638
0.000133327
0.00015348
1.91114e-05
0.00222657
8.68811e-08
3.846e-05
0.00214658
5.73169e-05
0.00205678
7.52652e-05
0.0019399
9.19578e-05
0.00179328
0.000107089
0.00161777
0.000120385
0.0014158
0.000131613
0.00119039
0.000140574
0.000945178
0.000147114
0.000684167
0.000151116
0.000411637
0.000131941
0.000152508
1.89883e-05
0.0022075
8.81479e-08
3.82138e-05
0.00212736
5.6951e-05
0.00203804
7.47856e-05
0.00192207
9.13727e-05
0.00177669
0.000106408
0.00160273
0.000119621
0.00140259
0.000130779
0.00117923
0.000139684
0.000936272
0.000146183
0.000677669
0.000150159
0.000407663
0.000130566
0.000151543
1.88661e-05
0.00218854
8.95163e-08
3.79693e-05
0.00210825
5.65876e-05
0.00201942
7.43091e-05
0.00190435
9.07914e-05
0.00176021
0.000105732
0.00158779
0.000118862
0.00138946
0.00012995
0.00116814
0.000138799
0.000927422
0.000145257
0.000671211
0.000149209
0.000403713
0.000129199
0.000150583
1.87446e-05
0.00216971
9.09642e-08
3.77263e-05
0.00208927
5.62264e-05
0.00200092
7.38358e-05
0.00188673
9.02139e-05
0.00174383
0.00010506
0.00157294
0.000118108
0.00137641
0.000129126
0.00115712
0.00013792
0.000918627
0.000144338
0.000664794
0.000148265
0.000399788
0.000127843
0.00014963
1.8624e-05
0.00215099
9.24681e-08
3.7485e-05
0.00207041
5.58676e-05
0.00198254
7.33654e-05
0.00186924
8.96401e-05
0.00172755
0.000104393
0.00155819
0.000117358
0.00136344
0.000128307
0.00114617
0.000137046
0.000909888
0.000143424
0.000658417
0.000147327
0.000395887
0.000126493
0.000148683
1.85041e-05
0.00213239
9.4008e-08
3.72452e-05
0.00205167
5.55112e-05
0.00196427
7.28982e-05
0.00185185
8.907e-05
0.00171138
0.00010373
0.00154353
0.000116614
0.00135056
0.000127494
0.00113529
0.000136179
0.000901203
0.000142517
0.00065208
0.000146395
0.000392012
0.000125155
0.000147743
1.83851e-05
0.00211391
9.55666e-08
3.7007e-05
0.00203304
5.5157e-05
0.00194612
7.24339e-05
0.00183457
8.85035e-05
0.00169531
0.000103071
0.00152896
0.000115874
0.00133776
0.000126686
0.00112448
0.000135316
0.000892573
0.000141615
0.000645783
0.000145469
0.00038816
0.000123823
0.000146808
1.82668e-05
0.00209555
9.71321e-08
3.67704e-05
0.00201454
5.48052e-05
0.00192808
7.19726e-05
0.0018174
8.79407e-05
0.00167934
0.000102416
0.00151448
0.000115139
0.00132503
0.000125883
0.00111373
0.00013446
0.000883996
0.000140719
0.000639525
0.00014455
0.000384332
0.000122502
0.00014588
1.81494e-05
0.0020773
9.86952e-08
3.65353e-05
0.00199615
5.44556e-05
0.00191016
7.15143e-05
0.00180034
8.73815e-05
0.00166347
0.000101766
0.00150009
0.000114408
0.00131239
0.000125085
0.00110306
0.000133608
0.000875473
0.000139829
0.000633306
0.000143636
0.000380528
0.000121188
0.000144957
1.80326e-05
0.00205916
1.0025e-07
3.63017e-05
0.00197788
5.41083e-05
0.00189235
7.10589e-05
0.00178339
8.68259e-05
0.0016477
0.00010112
0.0014858
0.000113683
0.00129982
0.000124293
0.00109245
0.000132763
0.000867003
0.000138944
0.000627126
0.000142728
0.000376748
0.000119884
0.000144041
1.79167e-05
0.00204115
1.01792e-07
3.60697e-05
0.00195973
5.37632e-05
0.00187466
7.06064e-05
0.00176654
8.62738e-05
0.00163203
0.000100478
0.00147159
0.000112962
0.00128734
0.000123506
0.0010819
0.000131922
0.000858586
0.000138066
0.000620984
0.000141825
0.000372992
0.000118586
0.000143131
1.78015e-05
0.00202324
1.03314e-07
3.58391e-05
0.00194169
5.34203e-05
0.00185708
7.01569e-05
0.00174981
8.57253e-05
0.00161646
9.98397e-05
0.00145748
0.000112245
0.00127493
0.000122723
0.00107142
0.000131088
0.000850221
0.000137193
0.00061488
0.000140929
0.000369259
0.000117298
0.000142226
1.7687e-05
0.00200545
1.0481e-07
3.561e-05
0.00192377
5.30797e-05
0.00183961
6.97102e-05
0.00173317
8.51804e-05
0.00160099
9.92058e-05
0.00144345
0.000111534
0.0012626
0.000121946
0.00106101
0.000130258
0.000841909
0.000136325
0.000608815
0.000140039
0.000365549
0.000116018
0.000141328
1.75732e-05
0.00198777
1.06273e-07
3.53824e-05
0.00190596
5.27412e-05
0.00182225
6.92664e-05
0.00171665
8.46389e-05
0.00158561
9.8576e-05
0.00142951
0.000110827
0.00125035
0.000121174
0.00105066
0.000129434
0.000833649
0.000135464
0.000602787
0.000139154
0.000361862
0.000114746
0.000140435
1.74602e-05
0.0019702
1.07691e-07
3.51563e-05
0.00188826
5.24049e-05
0.001805
6.88255e-05
0.00170022
8.41009e-05
0.00157034
9.79503e-05
0.00141566
0.000110124
0.00123817
0.000120406
0.00104038
0.000128615
0.00082544
0.000134607
0.000596798
0.000138275
0.000358199
0.000113481
0.000139548
1.73479e-05
0.00195275
1.09056e-07
3.49315e-05
0.00187067
5.20707e-05
0.00178786
6.83873e-05
0.0016839
8.35664e-05
0.00155515
9.73286e-05
0.00140189
0.000109426
0.00122607
0.000119644
0.00103016
0.000127802
0.000817282
0.000133757
0.000590845
0.000137402
0.000354557
0.000112225
0.000138667
1.72362e-05
0.0019354
1.10359e-07
3.47083e-05
0.0018532
5.17387e-05
0.00177082
6.7952e-05
0.00166769
8.30353e-05
0.00154007
9.67109e-05
0.00138822
0.000108733
0.00121405
0.000118887
0.00102
0.000126994
0.000809176
0.000132912
0.000584929
0.000136534
0.000350939
0.000110976
0.000137792
1.71253e-05
0.00191816
1.11593e-07
3.44864e-05
0.00183584
5.14088e-05
0.0017539
6.75195e-05
0.00165158
8.25076e-05
0.00152508
9.60973e-05
0.00137462
0.000108044
0.0012021
0.000118134
0.00100991
0.000126191
0.000801119
0.000132072
0.00057905
0.000135673
0.000347342
0.000109735
0.000136923
1.70151e-05
0.00190104
1.12753e-07
3.42659e-05
0.00181859
5.1081e-05
0.00173708
6.70897e-05
0.00163557
8.19833e-05
0.00151018
9.54875e-05
0.00136112
0.000107359
0.00119023
0.000117387
0.000999884
0.000125393
0.000793113
0.000131238
0.000573208
0.000134816
0.000343768
0.000108502
0.000136059
1.69055e-05
0.00188401
1.13837e-07
3.40468e-05
0.00180144
5.07553e-05
0.00172037
6.66627e-05
0.00161966
8.14624e-05
0.00149538
9.48817e-05
0.0013477
0.000106679
0.00117843
0.000116644
0.000989918
0.000124601
0.000785157
0.000130409
0.000567401
0.000133966
0.000340216
0.000107275
0.000135201
1.67967e-05
0.0018671
1.14846e-07
3.38292e-05
0.00178441
5.04317e-05
0.00170377
6.62385e-05
0.00160385
8.09449e-05
0.00148067
9.42799e-05
0.00133436
0.000106003
0.00116671
0.000115906
0.000980015
0.000123814
0.00077725
0.000129586
0.000561631
0.000133121
0.000336686
0.000106057
0.000134348
1.66885e-05
0.0018503
1.15783e-07
3.36128e-05
0.00176748
5.01101e-05
0.00168727
6.58169e-05
0.00158814
8.04307e-05
0.00146606
9.36819e-05
0.00132111
0.000105332
0.00115505
0.000115173
0.000970173
0.000123032
0.000769392
0.000128768
0.000555897
0.000132281
0.000333178
0.000104845
0.000133501
1.65809e-05
0.0018336
1.1665e-07
3.33979e-05
0.00175067
4.97906e-05
0.00167087
6.53981e-05
0.00157253
7.99198e-05
0.00145153
9.30878e-05
0.00130794
0.000104665
0.00114347
0.000114445
0.000960393
0.000122255
0.000761583
0.000127956
0.000550198
0.000131447
0.000329691
0.000103642
0.00013266
1.64741e-05
0.00181701
1.17454e-07
3.31843e-05
0.00173395
4.94732e-05
0.00165458
6.49819e-05
0.00155702
7.94122e-05
0.0014371
9.24975e-05
0.00129485
0.000104002
0.00113197
0.000113721
0.000950673
0.000121483
0.000753822
0.000127148
0.000544534
0.000130618
0.000326225
0.000102445
0.000131824
1.63679e-05
0.00180052
1.18197e-07
3.2972e-05
0.00171735
4.91577e-05
0.0016384
6.45685e-05
0.0015416
7.89079e-05
0.00142276
9.19111e-05
0.00128184
0.000103344
0.00112053
0.000113002
0.000941014
0.000120716
0.00074611
0.000126347
0.000538905
0.000129795
0.000322782
0.000101256
0.000130994
1.62623e-05
0.00178414
1.18886e-07
3.2761e-05
0.00170085
4.88443e-05
0.00162231
6.41577e-05
0.00152629
7.84069e-05
0.00140851
9.13285e-05
0.00126892
0.00010269
0.00110917
0.000112288
0.000931415
0.000119954
0.000738445
0.00012555
0.000533311
0.000128977
0.000319358
0.000100072
0.000130169
1.61574e-05
0.00176787
1.19527e-07
3.25514e-05
0.00168445
4.85328e-05
0.00160633
6.37495e-05
0.00151107
7.79091e-05
0.00139434
9.07497e-05
0.00125608
0.00010204
0.00109788
0.000111579
0.000921876
0.000119197
0.000730828
0.000124759
0.000527752
0.000128165
0.000315956
9.8898e-05
0.000129349
1.60531e-05
0.00175169
1.20126e-07
3.23431e-05
0.00166816
4.82233e-05
0.00159044
6.33439e-05
0.00149595
7.74146e-05
0.00138027
9.01746e-05
0.00124331
0.000101395
0.00108666
0.000110874
0.000912397
0.000118445
0.000723258
0.000123972
0.000522226
0.000127358
0.000312574
9.77278e-05
0.000128535
1.59495e-05
0.00173562
1.20693e-07
3.21361e-05
0.00165197
4.79159e-05
0.00157466
6.2941e-05
0.00148092
7.69232e-05
0.00136629
8.96033e-05
0.00123063
0.000100754
0.00107551
0.000110174
0.000902976
0.000117698
0.000715735
0.000123191
0.000516735
0.000126556
0.000309214
9.65671e-05
0.000127727
1.58465e-05
0.00171965
1.21242e-07
3.19305e-05
0.00163589
4.76103e-05
0.00155898
6.25407e-05
0.00146598
7.64351e-05
0.00135239
8.90358e-05
0.00121803
0.000100117
0.00106442
0.000109478
0.000893613
0.000116956
0.000708259
0.000122415
0.000511277
0.00012576
0.000305873
9.54103e-05
0.000126923
1.57442e-05
0.00170379
1.21785e-07
3.17261e-05
0.0016199
4.73068e-05
0.0015434
6.21429e-05
0.00145115
7.59501e-05
0.00133858
8.84719e-05
0.00120551
9.94839e-05
0.00105341
0.000108787
0.000884309
0.000116219
0.000700828
0.000121645
0.000505854
0.000124969
0.000302554
9.4263e-05
0.000126125
1.56425e-05
0.00168802
1.22343e-07
3.1523e-05
0.00160402
4.70052e-05
0.00152791
6.17478e-05
0.0014364
7.54683e-05
0.00132486
8.79117e-05
0.00119306
9.88552e-05
0.00104247
0.000108101
0.000875063
0.000115487
0.000693444
0.000120879
0.000500463
0.000124183
0.000299253
9.31192e-05
0.000125333
1.55414e-05
0.00167236
1.22933e-07
3.13211e-05
0.00158824
4.67055e-05
0.00151253
6.13552e-05
0.00142175
7.49896e-05
0.00131122
8.73553e-05
0.00118069
9.82307e-05