/*--------------------------------*- C++ -*----------------------------------*\
  =========                 |
  \\      /  F ield         | OpenFOAM: The Open Source CFD Toolbox
   \\    /   O peration     | Website:  https://openfoam.org
    \\  /    A nd           | Version:  6.0
     \\/     M anipulation  |
\*---------------------------------------------------------------------------*/
FoamFile
{
    version     2.0;
    format      ascii;
    class       surfaceScalarField;
    location    "5";
    object      phi;
}
// * * * * * * * * * * * * * * * * * * * * * * * * * * * * * * * * * * * * * //

dimensions      [0 3 -1 0 0 0 0];

internalField   nonuniform List<scalar> 
68636
(
3.02287e-05
0.00310561
9.11879e-10
6.08425e-05
0.00307075
9.10905e-05
0.00300254
0.000120479
0.0029015
0.000148621
0.00276865
0.000175171
0.00260545
0.000199814
0.00241369
0.000222266
0.0021955
0.00024227
0.00195331
0.000259597
0.00168979
0.000274052
0.00140784
0.000285472
0.00111051
0.000293734
0.000801142
0.000298726
0.000482891
0.000157938
0.000299713
2.995e-05
0.00307565
5.0185e-09
6.02856e-05
0.00304041
9.02587e-05
0.00297257
0.00011938
0.00287238
0.000147266
0.00274077
0.000173573
0.00257914
0.000197992
0.00238927
0.000220239
0.00217326
0.00024006
0.0019335
0.00025723
0.00167263
0.000271553
0.00139352
0.000282868
0.0010992
0.000291072
0.000792943
0.000295942
0.00047803
0.00015689
0.000297004
2.96736e-05
0.00304597
9.44315e-09
5.97336e-05
0.00301035
8.94344e-05
0.00294287
0.000118291
0.00284353
0.000145924
0.00271314
0.000171992
0.00255307
0.000196189
0.00236508
0.000218234
0.00215121
0.000237875
0.00191386
0.000254888
0.00165561
0.000269081
0.00137933
0.00028029
0.00108799
0.000288422
0.000784811
0.000293293
0.000473156
0.000155629
0.000294547
2.93997e-05
0.00301656
1.39412e-08
5.91868e-05
0.00298057
8.8618e-05
0.00291344
0.000117213
0.00281493
0.000144595
0.00268576
0.000170427
0.00252724
0.000194404
0.0023411
0.000216248
0.00212937
0.000235709
0.0018944
0.000252567
0.00163876
0.00026663
0.00136526
0.000277735
0.00107689
0.000285786
0.000776764
0.000290644
0.000468304
0.000154276
0.000292007
2.91282e-05
0.00298741
1.87566e-08
5.8645e-05
0.00295105
8.7809e-05
0.00288428
0.000116144
0.0027866
0.000143278
0.00265862
0.000168875
0.00250165
0.000192634
0.00231734
0.000214279
0.00210773
0.000233563
0.00187511
0.000250266
0.00162205
0.000264201
0.00135133
0.000275204
0.00106588
0.000283172
0.000768794
0.000287992
0.000463481
0.000152846
0.000289415
2.88591e-05
0.00295853
2.37383e-08
5.8108e-05
0.0029218
8.70072e-05
0.00285538
0.000115085
0.00275852
0.000141972
0.00263173
0.000167337
0.00247628
0.000190879
0.0022938
0.000212327
0.00208628
0.000231435
0.00185601
0.000247985
0.00160551
0.000261793
0.00133752
0.000272696
0.00105498
0.000280584
0.000760909
0.000285358
0.000458712
0.000151395
0.000286815
2.85923e-05
0.00292991
2.87882e-08
5.75756e-05
0.00289282
8.62125e-05
0.00282674
0.000114036
0.00273069
0.000140679
0.00260509
0.000165812
0.00245115
0.000189141
0.00227047
0.000210393
0.00206503
0.000229327
0.00183707
0.000245726
0.00158911
0.000259408
0.00132384
0.000270212
0.00104418
0.000278022
0.000753096
0.000282749
0.000453982
0.000149916
0.000284221
2.83278e-05
0.00290155
3.39261e-08
5.7048e-05
0.0028641
8.54249e-05
0.00279836
0.000112995
0.00270312
0.000139397
0.00257869
0.000164302
0.00242624
0.000187418
0.00224736
0.000208477
0.00204397
0.000227238
0.00181831
0.000243487
0.00157286
0.000257044
0.00131028
0.00026775
0.00103348
0.000275486
0.000745362
0.000280167
0.000449305
0.000148443
0.000281644
2.80657e-05
0.00287344
3.90268e-08
5.65252e-05
0.00283564
8.46444e-05
0.00277024
0.000111965
0.0026758
0.000138126
0.00255253
0.000162805
0.00240156
0.000185711
0.00222445
0.000206578
0.0020231
0.000225167
0.00179972
0.000241268
0.00155675
0.000254701
0.00129685
0.00026531
0.00102286
0.000272974
0.000737696
0.000277611
0.000444666
0.000146954
0.000279093
2.78058e-05
0.00284559
4.40215e-08
5.6007e-05
0.00280744
8.38709e-05
0.00274238
0.000110943
0.00264873
0.000136867
0.00252661
0.000161321
0.00237711
0.000184019
0.00220175
0.000204695
0.00200242
0.000223115
0.0017813
0.000239069
0.0015408
0.00025238
0.00128354
0.000262893
0.00101235
0.000270486
0.000730104
0.00027508
0.000440075
0.000145472
0.000276566
2.75483e-05
0.00281799
4.88714e-08
5.54934e-05
0.00277949
8.31043e-05
0.00271477
0.000109931
0.00262191
0.000135619
0.00250092
0.000159851
0.00235288
0.000182342
0.00217926
0.00020283
0.00198194
0.000221082
0.00176305
0.000236891
0.00152499
0.000250079
0.00127035
0.000260497
0.00100193
0.000268021
0.000722578
0.000272574
0.00043552
0.000143977
0.000274063
2.72932e-05
0.00279065
5.35027e-08
5.49844e-05
0.0027518
8.23446e-05
0.00268741
0.000108927
0.00259532
0.000134382
0.00247546
0.000158394
0.00232887
0.00018068
0.00215698
0.000200981
0.00196163
0.000219067
0.00174496
0.000234732
0.00150933
0.0002478
0.00125728
0.000258123
0.000991613
0.000265579
0.000715124
0.000270091
0.00043101
0.000142492
0.000271579
2.70403e-05
0.00276355
5.78811e-08
5.44801e-05
0.00272436
8.15918e-05
0.0026603
0.000107933
0.00256898
0.000133156
0.00245024
0.00015695
0.00230507
0.000179033
0.00213489
0.000199149
0.00194152
0.00021707
0.00172704
0.000232592
0.00149381
0.000245541
0.00124433
0.000255771
0.000981383
0.000263159
0.000707734
0.000267631
0.000426535
0.000141002
0.000269115
2.67898e-05
0.0027367
6.19861e-08
5.39803e-05
0.00269717
8.08456e-05
0.00263343
0.000106947
0.00254288
0.000131941
0.00242525
0.000155518
0.0022815
0.0001774
0.00211301
0.000197334
0.00192158
0.000215092
0.00170929
0.000230472
0.00147843
0.000243303
0.0012315
0.00025344
0.000971247
0.000260761
0.000700414
0.000265194
0.000422105
0.000139528
0.00026667
2.65416e-05
0.00271009
6.58019e-08
5.3485e-05
0.00267023
8.01063e-05
0.00260681
0.000105971
0.00251702
0.000130737
0.00240048
0.0001541
0.00225813
0.000175783
0.00209133
0.000195535
0.00190183
0.000213131
0.00169169
0.000228372
0.00146318
0.000241086
0.00121879
0.00025113
0.000961202
0.000258386
0.000693157
0.000262778
0.00041771
0.000138055
0.000264246
2.62958e-05
0.00268373
6.93422e-08
5.29942e-05
0.00264353
7.93735e-05
0.00258043
0.000105003
0.00249139
0.000129544
0.00237594
0.000152694
0.00223498
0.00017418
0.00206984
0.000193752
0.00188226
0.000211188
0.00167425
0.00022629
0.00144808
0.000238888
0.00120619
0.000248842
0.000951249
0.000256032
0.000685968
0.000260385
0.000413359
0.0001366
0.000261843
2.60522e-05
0.0026576
7.26336e-08
5.25079e-05
0.00261707
7.86474e-05
0.00255429
0.000104044
0.00246599
0.000128362
0.00235162
0.000151301
0.00221204
0.000172591
0.00204855
0.000191985
0.00186286
0.000209263
0.00165698
0.000224227
0.00143312
0.000236711
0.00119371
0.000246574
0.000941386
0.0002537
0.000678841
0.000258014
0.000409042
0.000135147
0.000259462
2.58109e-05
0.00263171
7.57172e-08
5.20259e-05
0.00259086
7.79278e-05
0.00252839
0.000103093
0.00244082
0.00012719
0.00232752
0.000149921
0.00218931
0.000171017
0.00202746
0.000190234
0.00184365
0.000207355
0.00163986
0.000222183
0.00141829
0.000234554
0.00118134
0.000244327
0.000931613
0.000251389
0.000671781
0.000255665
0.000404767
0.000133711
0.000257103
2.55719e-05
0.00260606
7.8651e-08
5.15484e-05
0.00256488
7.72146e-05
0.00250272
0.000102151
0.00241589
0.000126029
0.00230365
0.000148552
0.00216679
0.000169457
0.00200655
0.000188499
0.0018246
0.000205464
0.00162289
0.000220158
0.00140359
0.000232416
0.00116908
0.000242101
0.000921927
0.000249099
0.000664781
0.000253337
0.000400527
0.000132277
0.000254767
2.53351e-05
0.00258065
8.14978e-08
5.10752e-05
0.00253914
7.65079e-05
0.00247729
0.000101217
0.00239118
0.000124878
0.00227998
0.000147197
0.00214447
0.000167911
0.00198584
0.00018678
0.00180573
0.000203591
0.00160608
0.000218151
0.00138903
0.000230298
0.00115693
0.000239895
0.000912331
0.00024683
0.000657847
0.000251031
0.000396327
0.00013086
0.000252451
2.51005e-05
0.00255546
8.43214e-08
5.06063e-05
0.00251364
7.58076e-05
0.00245209
0.000100292
0.00236669
0.000123737
0.00225654
0.000145853
0.00212236
0.000166378
0.00196531
0.000185077
0.00178704
0.000201734
0.00158942
0.000216163
0.00137461
0.000228199
0.0011449
0.000237709
0.00090282
0.000244582
0.000650973
0.000248746
0.000392161
0.000129445
0.000250156
2.4868e-05
0.00253051
8.71814e-08
5.01417e-05
0.00248836
7.51136e-05
0.00242712
9.93754e-05
0.00234243
0.000122607
0.00223331
0.000144521
0.00210044
0.00016486
0.00194498
0.000183389
0.00176851
0.000199895
0.00157292
0.000214192
0.00136031
0.000226119
0.00113297
0.000235543
0.000893397
0.000242354
0.000644163
0.000246481
0.000388036
0.000128049
0.00024788
2.46378e-05
0.00250578
9.01236e-08
4.96812e-05
0.00246332
7.44258e-05
0.00240237
9.84668e-05
0.00231839
0.000121487
0.00221029
0.000143202
0.00207873
0.000163356
0.00192482
0.000181716
0.00175015
0.000198072
0.00155656
0.00021224
0.00134614
0.000224059
0.00112115
0.000233398
0.000884058
0.000240147
0.000637412
0.000244238
0.000383944
0.000126656
0.000245625
2.44096e-05
0.00248128
9.3177e-08
4.9225e-05
0.0024385
7.37443e-05
0.00237785
9.75664e-05
0.00229457
0.000120377
0.00218748
0.000141895
0.00205721
0.000161865
0.00190485
0.000180058
0.00173195
0.000196266
0.00154035
0.000210305
0.0013321
0.000222017
0.00110944
0.000231271
0.000874805
0.000237961
0.000630724
0.000242014
0.000379892
0.000125283
0.00024339
2.41835e-05
0.002457
9.63516e-08
4.87728e-05
0.00241392
7.30689e-05
0.00235356
9.66741e-05
0.00227096
0.000119277
0.00216487
0.000140599
0.00203589
0.000160388
0.00188506
0.000178416
0.00171393
0.000194476
0.00152429
0.000208388
0.00131819
0.000219994
0.00109783
0.000229165
0.000865634
0.000235794
0.000624094
0.000239812
0.000375872
0.000123915
0.000241176
2.39594e-05
0.00243294
9.96375e-08
4.83248e-05
0.00238955
7.23996e-05
0.00232948
9.57899e-05
0.00224757
0.000118187
0.00214248
0.000139315
0.00201476
0.000158924
0.00186545
0.000176788
0.00169606
0.000192703
0.00150838
0.000206489
0.0013044
0.00021799
0.00108633
0.000227077
0.000856547
0.000233647
0.000617525
0.000237629
0.000371892
0.000122565
0.000238982
2.37374e-05
0.0024091
1.03009e-07
4.78808e-05
0.00236541
7.17363e-05
0.00230563
9.49137e-05
0.0022244
0.000117107
0.00212028
0.000138043
0.00199382
0.000157474
0.00184602
0.000175176
0.00167836
0.000190946
0.00149261
0.000204607
0.00129074
0.000216004
0.00107493
0.000225009
0.000847541
0.00023152
0.000611013
0.000235466
0.000367943
0.00012122
0.000236808
2.35174e-05
0.00238547
1.06428e-07
4.74409e-05
0.00234148
7.10791e-05
0.00228199
9.40454e-05
0.00220143
0.000116037
0.00209829
0.000136782
0.00197308
0.000156037
0.00182677
0.000173578
0.00166082
0.000189205
0.00147698
0.000202742
0.00127721
0.000214036
0.00106364
0.00022296
0.000838617
0.000229412
0.000604562
0.000233324
0.000364033
0.000119891
0.000234654
2.32994e-05
0.00236206
1.09854e-07
4.70049e-05
0.00231778
7.04278e-05
0.00225857
9.3185e-05
0.00217867
0.000114977
0.0020765
0.000135533
0.00195252
0.000154613
0.00180769
0.000171994
0.00164344
0.00018748
0.00146149
0.000200894
0.00126379
0.000212086
0.00105245
0.000220929
0.000829774
0.000227323
0.000598166
0.0002312
0.000360154
0.000118568
0.00023252
2.30834e-05
0.00233887
1.13243e-07
4.65729e-05
0.00229429
6.97824e-05
0.00223536
9.23324e-05
0.00215612
0.000113926
0.00205491
0.000134295
0.00193215
0.000153201
0.00178878
0.000170425
0.00162621
0.000185771
0.00144615
0.000199063
0.0012505
0.000210153
0.00104136
0.000218917
0.000821011
0.000225254
0.00059183
0.000229096
0.000356313
0.000117261
0.000230405
2.28692e-05
0.00231588
1.16558e-07
4.61448e-05
0.00227101
6.91429e-05
0.00221236
9.14876e-05
0.00213378
0.000112884
0.00203351
0.000133069
0.00191197
0.000151803
0.00177005
0.000168871
0.00160915
0.000184077
0.00143094
0.000197249
0.00123733
0.000208239
0.00103037
0.000216923
0.000812326
0.000223203
0.000585549
0.000227012
0.000352503
0.00011596
0.00022831
2.26571e-05
0.0022931
1.19769e-07
4.57205e-05
0.00224795
6.85091e-05
0.00218957
9.06504e-05
0.00211164
0.000111852
0.00201231
0.000131853
0.00189197
0.000150418
0.00175148
0.00016733
0.00159223
0.000182398
0.00141588
0.000195451
0.00122428
0.000206342
0.00101948
0.000214948
0.000803721
0.000221171
0.000579326
0.000224946
0.00034873
0.000114676
0.000226233
2.24468e-05
0.00227054
1.22855e-07
4.53001e-05
0.0022251
6.78811e-05
0.00216699
8.98208e-05
0.0020897
0.00011083
0.0019913
0.000130649
0.00187215
0.000149045
0.00173309
0.000165804
0.00157547
0.000180735
0.00140094
0.00019367
0.00121134
0.000204462
0.00100869
0.00021299
0.000795192
0.000219158
0.000573157
0.000222899
0.000344987
0.000113397
0.000224174
2.22384e-05
0.00224817
1.25802e-07
4.48835e-05
0.00220245
6.72588e-05
0.00214461
8.89987e-05
0.00206796
0.000109817
0.00197048
0.000129456
0.00185251
0.000147684
0.00171486
0.000164291
0.00155887
0.000179088
0.00138615
0.000191905
0.00119852
0.000202599
0.000997993
0.000211051
0.000786741
0.000217163
0.000567045
0.000220871
0.000341281
0.000112135
0.000222135
2.20319e-05
0.00222601
1.28602e-07
4.44707e-05
0.00218001
6.66422e-05
0.00212244
8.81841e-05
0.00204641
0.000108813
0.00194985
0.000128273
0.00183305
0.000146336
0.0016968
0.000162793
0.00154241
0.000177455
0.00137149
0.000190156
0.00118582
0.000200754
0.000987395
0.000209129
0.000778366
0.000215186
0.000560987
0.000218861
0.000337605
0.000110879
0.000220114
2.18273e-05
0.00220405
1.31255e-07
4.40616e-05
0.00215778
6.60311e-05
0.00210047
8.7377e-05
0.00202507
0.000107818
0.00192941
0.000127102
0.00181377
0.000145
0.0016789
0.000161308
0.0015261
0.000175837
0.00135696
0.000188423
0.00117324
0.000198925
0.000976894
0.000207224
0.000770067
0.000213228
0.000554984
0.00021687
0.000333964
0.00010964
0.000218111
2.16245e-05
0.00218229
1.33768e-07
4.36562e-05
0.00213575
6.54256e-05
0.0020787
8.65771e-05
0.00200392
0.000106832
0.00190916
0.00012594
0.00179466
0.000143677
0.00166116
0.000159836
0.00150994
0.000174234
0.00134256
0.000186706
0.00116076
0.000197113
0.000966487
0.000205338
0.000761842
0.000211287
0.000549034
0.000214896
0.000330354
0.000108406
0.000216127
2.14236e-05
0.00216073
1.36156e-07
4.32545e-05
0.00211392
6.48256e-05
0.00205713
8.57846e-05
0.00198296
0.000105855
0.00188908
0.00012479
0.00177572
0.000142365
0.00164359
0.000158378
0.00149393
0.000172645
0.00132829
0.000185005
0.0011484
0.000195318
0.000956175
0.000203468
0.000753692
0.000209364
0.000543139
0.000212941
0.000326778
0.000107188
0.000214162
2.12245e-05
0.00213937
1.3844e-07
4.28565e-05
0.00209228
6.42311e-05
0.00203576
8.49993e-05
0.00196219
0.000104888
0.0018692
0.00012365
0.00175696
0.000141066
0.00162617
0.000156933
0.00147806
0.000171071
0.00131415
0.000183319
0.00113616
0.000193538
0.000945955
0.000201615
0.000745615
0.000207458
0.000537295
0.000211004
0.000323231
0.000105975
0.000212214
2.10272e-05
0.0021182
1.40651e-07
4.24621e-05
0.00207085
6.3642e-05
0.00201458
8.42211e-05
0.00194161
0.000103928
0.00184949
0.00012252
0.00173837
0.000139778
0.00160891
0.000155502
0.00146234
0.000169511
0.00130015
0.000181648
0.00112402
0.000191776
0.000935828
0.00019978
0.000737611
0.00020557
0.000531505
0.000209084
0.000319718
0.000104777
0.000210283
2.08317e-05
0.00209723
1.42822e-07
4.20712e-05
0.00204961
6.30582e-05
0.00199359
8.345e-05
0.00192122
0.000102978
0.00182996
0.000121401
0.00171995
0.000138502
0.00159181
0.000154083
0.00144676
0.000167966
0.00128626
0.000179993
0.00111199
0.000190029
0.000925792
0.000197961
0.000729679
0.000203699
0.000525765
0.000207182
0.000316235
0.000103586
0.000208371
2.0638e-05
0.00207645
1.44992e-07
4.1684e-05
0.00202856
6.24798e-05
0.00197279
8.26859e-05
0.00190101
0.000102036
0.00181061
0.000120292
0.00170169
0.000137238
0.00157486
0.000152678
0.00143132
0.000166435
0.00127251
0.000178353
0.00110007
0.000188298
0.000915847
0.000196158
0.000721819
0.000201846
0.000520078
0.000205297
0.000312784
0.000102409
0.000206476
2.04461e-05
0.00205585
1.47194e-07
4.13002e-05
0.00200771
6.19066e-05
0.00195219
8.19288e-05
0.00188099
0.000101103
0.00179144
0.000119193
0.0016836
0.000135985
0.00155807
0.000151285
0.00141602
0.000164917
0.00125887
0.000176728
0.00108826
0.000186583
0.000905991
0.000194373
0.000714029
0.000200009
0.000514441
0.000203429
0.000309362
0.000101239
0.000204598
2.0256e-05
0.00203545
1.49458e-07
4.092e-05
0.00198705
6.13386e-05
0.00193177
8.11786e-05
0.00186115
0.000100179
0.00177244
0.000118104
0.00166568
0.000134744
0.00154143
0.000149905
0.00140086
0.000163414
0.00124536
0.000175117
0.00107656
0.000184884
0.000896225
0.000192603
0.00070631
0.000198189
0.000508856
0.000201579
0.000305973
0.000100083
0.000202737
2.00675e-05
0.00201523
1.51805e-07
4.05432e-05
0.00196657
6.07759e-05
0.00191154
8.04353e-05
0.00184149
9.92626e-05
0.00175361
0.000117025
0.00164791
0.000133514
0.00152495
0.000148537
0.00138584
0.000161924
0.00123198
0.000173522
0.00106496
0.0001832
0.000886547
0.00019085
0.000698659
0.000196386
0.00050332
0.000199745
0.000302612
9.89324e-05
0.000200893
1.98809e-05
0.00199519
1.54243e-07
4.01699e-05
0.00194628
6.02183e-05
0.00189149
7.96987e-05
0.00182201
9.83548e-05
0.00173495
0.000115956
0.00163031
0.000132295
0.00150861
0.000147182
0.00137095
0.000160448
0.00121871
0.000171941
0.00105347
0.000181532
0.000876956
0.000189113
0.000691079
0.000194599
0.000497834
0.000197929
0.000299283
9.77966e-05
0.000199067
1.96959e-05
0.00197534
1.56768e-07
3.98e-05
0.00192618
5.96658e-05
0.00187162
7.89689e-05
0.00180271
9.74553e-05
0.00171647
0.000114897
0.00161287
0.000131087
0.00149242
0.00014584
0.0013562
0.000158985
0.00120557
0.000170374
0.00104208
0.000179878
0.000867452
0.000187391
0.000683565
0.000192828
0.000492397
0.000196129
0.000295981
9.66663e-05
0.000197257
1.95126e-05
0.00195567
1.59365e-07
3.94335e-05
0.00190626
5.91183e-05
0.00185194
7.82457e-05
0.00178358
9.6564e-05
0.00169815
0.000113847
0.00159559
0.00012989
0.00147637
0.000144509
0.00134158
0.000157536
0.00119254
0.000168822
0.00103079
0.00017824
0.000858033
0.000185686
0.000676121
0.000191074
0.000487009
0.000194345
0.000292711
9.555e-05
0.000195463
1.9331e-05
0.00193618
1.6201e-07
3.90704e-05
0.00188652
5.85758e-05
0.00183243
7.75291e-05
0.00176463
9.56808e-05
0.00168
0.000112807
0.00157846
0.000128705
0.00146047
0.000143191
0.00132709
0.000156099
0.00117963
0.000167284
0.00101961
0.000176617
0.000848699
0.000183996
0.000668742
0.000189336
0.000481669
0.000192578
0.000289468
9.44393e-05
0.000193686
1.91511e-05
0.00191686
1.64672e-07
3.87106e-05
0.00186696
5.80383e-05
0.00181311
7.68191e-05
0.00174585
9.48057e-05
0.00166201
0.000111776
0.00156149
0.00012753
0.00144472
0.000141885
0.00131274
0.000154677
0.00116684
0.00016576
0.00100853
0.000175009
0.00083945
0.000182321
0.00066143
0.000187613
0.000476377
0.000190827
0.000286256
9.33422e-05
0.000191925
1.89729e-05
0.00189772
1.67315e-07
3.83541e-05
0.00184758
5.75057e-05
0.00179395
7.61155e-05
0.00172724
9.39386e-05
0.00164419
0.000110755
0.00154468
0.000126366
0.00142911
0.000140591
0.00129851
0.000153267
0.00115416
0.00016425
0.000997544
0.000173416
0.000830284
0.000180662
0.000654184
0.000185907
0.000471132
0.000189091
0.00028307
9.22508e-05
0.000190181
1.87963e-05
0.00187875
1.69908e-07
3.80008e-05
0.00182837
5.6978e-05
0.00177498
7.54184e-05
0.0017088
9.30795e-05
0.00162653
0.000109743
0.00152801
0.000125212
0.00141364
0.000139308
0.00128442
0.00015187
0.0011416
0.000162754
0.00098666
0.000171837
0.0008212
0.000179018
0.000647003
0.000184216
0.000465935
0.000187372
0.000279915
9.11726e-05
0.000188452
1.86213e-05
0.00185996
1.72418e-07
3.76508e-05
0.00180934
5.64551e-05
0.00175617
7.47277e-05
0.00169052
9.22281e-05
0.00160903
0.00010874
0.0015115
0.000124069
0.00139831
0.000138038
0.00127045
0.000150485
0.00112916
0.000161271
0.000975874
0.000170273
0.000812198
0.00017739
0.000639886
0.000182541
0.000460783
0.000185669
0.000276785
9.01001e-05
0.00018674
1.84479e-05
0.00184134
1.74821e-07
3.7304e-05
0.00179049
5.5937e-05
0.00173754
7.40433e-05
0.00167242
9.13846e-05
0.00159168
0.000107747
0.00149514
0.000122937
0.00138312
0.000136779
0.00125661
0.000149114
0.00111682
0.000159802
0.000965186
0.000168723
0.000803278
0.000175776
0.000632834
0.000180881
0.000455678
0.000183981
0.000273686
8.90405e-05
0.000185043
1.82761e-05
0.00182288
1.771e-07
3.69604e-05
0.0017718
5.54236e-05
0.00171908
7.33651e-05
0.00165448
9.05488e-05
0.0015745
0.000106762
0.00147893
0.000121815
0.00136807
0.000135531
0.00124289
0.000147755
0.0011046
0.000158347
0.000954594
0.000167187
0.000794437
0.000174177
0.000625844
0.000179236
0.000450618
0.000182309
0.000270612
8.79865e-05
0.000183361
1.81059e-05
0.0018046
1.79245e-07
3.66199e-05
0.00175329
5.4915e-05
0.00170078
7.26932e-05
0.0016367
8.97206e-05
0.00155747
0.000105787
0.00146286
0.000120703
0.00135315
0.000134295
0.0012293
0.000146409
0.00109248
0.000156905
0.000944098
0.000165666
0.000785677
0.000172592
0.000618918
0.000177607
0.000445604
0.000180652
0.000267567
8.6945e-05
0.000181695
1.79373e-05
0.00178648
1.81257e-07
3.62826e-05
0.00173494
5.4411e-05
0.00168265
7.20274e-05
0.00161908
8.89e-05
0.0015406
0.000104821
0.00144694
0.000119601
0.00133837
0.000133071
0.00121583
0.000145074
0.00108048
0.000155476
0.000933696
0.000164158
0.000776994
0.000171023
0.000612053
0.000175992
0.000440634
0.000179011
0.000264547
8.59091e-05
0.000180045
1.77702e-05
0.00176853
1.83146e-07
3.59483e-05
0.00171676
5.39116e-05
0.00166469
7.13677e-05
0.00160163
8.8087e-05
0.00152388
0.000103863
0.00143116
0.00011851
0.00132373
0.000131857
0.00120248
0.000143753
0.00106858
0.000154061
0.000923388
0.000162664
0.000768391
0.000169467
0.000605251
0.000174392
0.00043571
0.000177384
0.000261556
8.48854e-05
0.000178409
1.76047e-05
0.00175074
1.84931e-07
3.56171e-05
0.00169875
5.34168e-05
0.00164689
7.0714e-05
0.00158433
8.72813e-05
0.00150731
0.000102914
0.00141553
0.000117428
0.00130921
0.000130655
0.00118925
0.000142443
0.0010568
0.000152658
0.000913173
0.000161184
0.000759864
0.000167926
0.000598508
0.000172807
0.000430828
0.000175773
0.00025859
8.38673e-05
0.000176789
1.74407e-05
0.00173311
1.86636e-07
3.52889e-05
0.0016809
5.29265e-05
0.00162925
7.00663e-05
0.00156719
8.64831e-05
0.0014909
0.000101974
0.00140004
0.000116356
0.00129483
0.000129464
0.00117615
0.000141145
0.00104512
0.000151268
0.00090305
0.000159718
0.000751414
0.000166399
0.000591827
0.000171237
0.000425991
0.000174176
0.000255651
8.2861e-05
0.000175184
1.72781e-05
0.00171564
1.88292e-07
3.49638e-05
0.00166322
5.24407e-05
0.00161178
6.94246e-05
0.00155021
8.56922e-05
0.00147463
0.000101043
0.00138469
0.000115295
0.00128058
0.000128283
0.00116316
0.000139859
0.00103354
0.000149891
0.000893019
0.000158265
0.00074304
0.000164887
0.000585206
0.000169681
0.000421196
0.000172594
0.000252738
8.18604e-05
0.000173593
1.71171e-05
0.00169834
1.89929e-07
3.46416e-05
0.00164569
5.19593e-05
0.00159446
6.87887e-05
0.00153338
8.49085e-05
0.00145851
0.00010012
0.00136948
0.000114243
0.00126645
0.000127114
0.00115029
0.000138585
0.00102207
0.000148527
0.000883077
0.000156826
0.000734742
0.000163388
0.000578644
0.000168139
0.000416445
0.000171026
0.000249851
8.08713e-05
0.000172017
1.69576e-05
0.00168119
1.91578e-07
3.43223e-05
0.00162833
5.14824e-05
0.0015773
6.81587e-05
0.0015167
8.4132e-05
0.00144254
9.92052e-05
0.0013544
0.0001132
0.00125246
0.000125955
0.00113753
0.000137323
0.0010107
0.000147175
0.000873226
0.000155399
0.000726518
0.000161903
0.00057214
0.000166612
0.000411735
0.000169474
0.000246988
7.98879e-05
0.000170455
1.67995e-05
0.00166419
1.93267e-07
3.4006e-05
0.00161112
5.10098e-05
0.00156029
6.75344e-05
0.00150018
8.33627e-05
0.00142671
9.82991e-05
0.00133947
0.000112168
0.00123859
0.000124807
0.00112489
0.000136073
0.000999434
0.000145836
0.000863462
0.000153986
0.000718368
0.000160431
0.000565695
0.000165098
0.000407068
0.000167935
0.000244152
7.89156e-05
0.000168908
1.66428e-05
0.00164736
1.95018e-07
3.36926e-05
0.00159407
5.05416e-05
0.00154345
6.69159e-05
0.0014838
8.26004e-05
0.00141102
9.74014e-05
0.00132467
0.000111144
0.00122485
0.00012367
0.00111237
0.000134834
0.00098827
0.000144509
0.000853787
0.000152586
0.00071029
0.000158973
0.000559307
0.000163599
0.000402442
0.00016641
0.00024134
7.79489e-05
0.000167376
1.64876e-05
0.00163067
1.96843e-07
3.33821e-05
0.00157718
5.00776e-05
0.00152675
6.63031e-05
0.00146758
8.18451e-05
0.00139548
9.65119e-05
0.00131
0.00011013
0.00121123
0.000122543
0.00109996
0.000133606
0.000977207
0.000143194
0.000844199
0.000151199
0.000702286
0.000157529
0.000552977
0.000162113
0.000397858
0.0001649
0.000238554
7.6993e-05
0.000165857
1.63338e-05
0.00161414
1.98747e-07
3.30744e-05
0.00156044
4.96179e-05
0.00151021
6.56959e-05
0.0014515
8.10968e-05
0.00138008
9.56306e-05
0.00129547
0.000109126
0.00119773
0.000121426
0.00108766
0.000132389
0.000966243
0.000141891
0.000834697
0.000149824
0.000694353
0.000156098
0.000546704
0.000160642
0.000393314
0.000163403
0.000235792
7.60428e-05
0.000164352
1.61815e-05
0.00159776
2.00725e-07
3.27695e-05
0.00154385
4.91625e-05
0.00149381
6.50942e-05
0.00143557
8.03553e-05
0.00136482
9.47574e-05
0.00128107
0.000108131
0.00118436
0.00012032
0.00107547
0.000131184
0.000955379
0.000140601
0.000825281
0.000148462
0.000686492
0.00015468
0.000540486
0.000159183
0.000388811
0.000161921
0.000233055
7.5103e-05
0.000162862
1.60305e-05
0.00158152
2.02763e-07
3.24674e-05
0.00152741
4.87112e-05
0.00147757
6.44981e-05
0.00141978
7.96207e-05
0.0013497
9.38923e-05
0.00126679
0.000107144
0.00117111
0.000119223
0.00106339
0.00012999
0.000944612
0.000139322
0.000815949
0.000147113
0.000678701
0.000153275
0.000534324
0.000157738
0.000384348
0.000160452
0.00023034
7.41688e-05
0.000161385
1.58809e-05
0.00156544
2.04841e-07
3.21681e-05
0.00151113
4.82641e-05
0.00146147
6.39075e-05
0.00140414
7.88928e-05
0.00133471
9.30351e-05
0.00125265
0.000106167
0.00115798
0.000118137
0.00105142
0.000128807
0.000933942
0.000138055
0.000806701
0.000145777
0.000670979
0.000151883
0.000528217
0.000156307
0.000379925
0.000158996
0.000227651
7.32447e-05
0.000159922
1.57327e-05
0.0015495
2.06932e-07
3.18716e-05
0.00149499
4.7821e-05
0.00144552
6.33223e-05
0.00138863
7.81716e-05
0.00131986
9.21858e-05
0.00123864
0.000105199
0.00114496
0.000117061
0.00103956
0.000127635
0.000923369
0.0001368
0.000797536
0.000144452
0.000663327
0.000150505
0.000522165
0.000154889
0.00037554
0.000157554
0.000224985
7.23262e-05
0.000158472
1.55858e-05
0.0015337
2.09009e-07
3.15778e-05
0.00147899
4.73821e-05
0.00142972
6.27425e-05
0.00137327
7.74571e-05
0.00130515
9.13443e-05
0.00122475
0.00010424
0.00113207
0.000115995
0.0010278
0.000126474
0.00091289
0.000135556
0.000788453
0.00014314
0.000655744
0.000149138
0.000516167
0.000153484
0.000371196
0.000156126
0.000222343
7.14175e-05
0.000157036
1.54403e-05
0.00151805
2.11043e-07
3.12867e-05
0.00146315
4.69472e-05
0.00141406
6.2168e-05
0.00135805
7.67491e-05
0.00129057
9.05106e-05
0.00121099
0.00010329
0.00111929
0.000114939
0.00101615
0.000125323
0.000902506
0.000134324
0.000779452
0.00014184
0.000648228
0.000147785
0.000510222
0.000152091
0.000366889
0.000154711
0.000219723
7.05145e-05
0.000155613
1.52961e-05
0.00150254
2.1301e-07
3.09982e-05
0.00144745
4.65163e-05
0.00139854
6.15988e-05
0.00134297
7.60477e-05
0.00127612
8.96846e-05
0.00119735
0.000102349
0.00110662
0.000113892
0.00100461
0.000124183
0.000892215
0.000133104
0.000770532
0.000140552
0.00064078
0.000146444
0.00050433
0.000150712
0.000362621
0.000153308
0.000217127
6.96209e-05
0.000154203
1.51533e-05
0.00148718
2.14891e-07
3.07125e-05
0.00143189
4.60894e-05
0.00138316
6.10349e-05
0.00132803
7.53527e-05
0.0012618
8.88662e-05
0.00118384
0.000101416
0.00109407
0.000112856
0.000993169
0.000123054
0.000882017
0.000131894
0.000761692
0.000139276
0.000633398
0.000145115
0.000498491
0.000149346
0.00035839
0.000151919
0.000214553
6.87328e-05
0.000152806
1.50118e-05
0.00147195
2.16674e-07
3.04293e-05
0.00141647
4.56664e-05
0.00136793
6.04761e-05
0.00131322
7.46642e-05
0.00124761
8.80554e-05
0.00117045
0.000100492
0.00108164
0.000111828
0.000981832
0.000121935
0.00087191
0.000130696
0.000752931
0.000138012
0.000626083
0.000143799
0.000492704
0.000147992
0.000354197
0.000150543
0.000212002
6.7854e-05
0.000151422
1.48716e-05
0.00145686
2.18353e-07
3.01488e-05
0.00140119
4.52473e-05
0.00135283
5.99225e-05
0.00129854
7.39819e-05
0.00123355
8.7252e-05
0.00115718
9.9576e-05
0.00106931
0.000110811
0.000970598
0.000120826
0.000861894
0.000129509
0.000744248
0.000136759
0.000618833
0.000142495
0.000486968
0.000146651
0.000350041
0.000149179
0.000209473
6.69807e-05
0.000150051
1.47327e-05
0.0014419
2.19934e-07
2.98709e-05
0.00138605
4.4832e-05
0.00133787
5.9374e-05
0.001284
7.3306e-05
0.00121962
8.64561e-05
0.00114403
9.86688e-05
0.0010571
0.000109802
0.000959464
0.000119728
0.000851969
0.000128333
0.000735644
0.000135518
0.000611647
0.000141203
0.000481284
0.000145322
0.000345922
0.000147828
0.000206967
6.61163e-05
0.000148693
1.45951e-05
0.00142709
2.21427e-07
2.95955e-05
0.00137105
4.44206e-05
0.00132304
5.88306e-05
0.00126959
7.26364e-05
0.00120582
8.56675e-05
0.001131
9.77701e-05
0.001045
0.000108803
0.000948431
0.00011864
0.000842132
0.000127167
0.000727116
0.000134289
0.000604526
0.000139923
0.000475649
0.000144005
0.000341839
0.00014649
0.000204482
6.52574e-05
0.000147348
1.44587e-05
0.00141241
2.22849e-07
2.93227e-05
0.00135619
4.4013e-05
0.00130835
5.82922e-05
0.00125531
7.19729e-05
0.00119214
8.48862e-05
0.00111808
9.68796e-05
0.00103301
0.000107813
0.000937497
0.000117562
0.000832384
0.000126013
0.000718665
0.000133071
0.000597468
0.000138655
0.000470066
0.000142701
0.000337793
0.000145164
0.00020202
6.44071e-05
0.000146015
1.43237e-05
0.00139786
2.2422e-07
2.90523e-05
0.00134146
4.36091e-05
0.0012938
5.77588e-05
0.00124116
7.13155e-05
0.00117858
8.41121e-05
0.00110529
9.59974e-05
0.00102112
0.000106833
0.000926662
0.000116494
0.000822723
0.000124869
0.00071029
0.000131864
0.000590474
0.000137398
0.000464532
0.000141409
0.000333782
0.00014385
0.000199578
6.35623e-05
0.000144694
1.41898e-05
0.00138344
2.25563e-07
2.87845e-05
0.00132687
4.3209e-05
0.00127937
5.72303e-05
0.00122714
7.06643e-05
0.00116514
8.33453e-05
0.00109261
9.51233e-05
0.00100934
0.000105861
0.000915924
0.000115436
0.000813149
0.000123736
0.000701989