/*--------------------------------*- C++ -*----------------------------------*\
  =========                 |
  \\      /  F ield         | OpenFOAM: The Open Source CFD Toolbox
   \\    /   O peration     | Website:  https://openfoam.org
    \\  /    A nd           | Version:  6.0
     \\/     M anipulation  |
\*---------------------------------------------------------------------------*/
FoamFile
{
    version     2.0;
    format      ascii;
    class       surfaceScalarField;
    location    "5";
    object      phi;
}
// * * * * * * * * * * * * * * * * * * * * * * * * * * * * * * * * * * * * * //

dimensions      [0 3 -1 0 0 0 0];

internalField   nonuniform List<scalar> 
26699
(
4.0304e-05
0.0051807
3.0231e-09
8.066e-05
0.0050914
0.00011988
0.0049154
0.00015717
0.0046554
0.0001918
0.0043158
0.00022317
0.0039024
0.00025068
0.0034223
0.00027387
0.0028837
0.00029237
0.0022957
0.00030427
0.0016699
0.00031694
0.0010081
0.00056741
9.174e-05
4.0043e-05
0.0051407
9.0556e-09
8.0147e-05
0.0050513
0.00011911
0.0048764
0.00015617
0.0046183
0.00019057
0.0042814
0.00022174
0.0038713
0.00024904
0.003395
0.000272
0.0028607
0.00029054
0.0022771
0.00029898
0.0016615
0.00031899
0.00098809
0.00070255
0.00018385
3.9784e-05
0.0051009
1.5034e-08
7.9634e-05
0.0050114
0.00011836
0.0048377
0.00015518
0.0045815
0.00018935
0.0042473
0.00022031
0.0038403
0.00024742
0.0033679
0.00027012
0.002838
0.0002889
0.0022583
0.00029401
0.0016564
0.00031789
0.00096421
0.00077154
0.0002489
3.9527e-05
0.0050613
2.0943e-08
7.9125e-05
0.0049718
0.0001176
0.0047992
0.00015419
0.0045449
0.00018814
0.0042133
0.0002189
0.0038096
0.00024581
0.003341
0.00026822
0.0028156
0.00028744
0.0022391
0.00028972
0.0016541
0.00031405
0.00093988
0.00079695
0.00028864
3.9271e-05
0.005022
2.6784e-08
7.8619e-05
0.0049325
0.00011685
0.004761
0.00015321
0.0045086
0.00018694
0.0041796
0.00021749
0.003779
0.00024422
0.0033143
0.00026631
0.0027935
0.00028611
0.0022193
0.00028629
0.0016539
0.00030832
0.00091785
0.00079479
0.00031048
3.9017e-05
0.004983
3.2558e-08
7.8117e-05
0.0048934
0.00011611
0.004723
0.00015223
0.0044724
0.00018574
0.0041461
0.00021609
0.0037486
0.00024265
0.0032877
0.00026438
0.0027718
0.00028481
0.0021989
0.00028375
0.001655
0.00030184
0.00089977
0.00077599
0.00032063
3.8765e-05
0.0049442
3.8265e-08
7.7617e-05
0.0048545
0.00011537
0.0046852
0.00015126
0.0044365
0.00018455
0.0041128
0.00021471
0.0037185
0.0002411
0.0032614
0.00026243
0.0027505
0.0002835
0.0021778
0.00028204
0.0016565
0.00029547
0.00088633
0.00074819
0.00032328
3.8514e-05
0.0049056
4.3905e-08
7.7121e-05
0.0048159
0.00011463
0.0046477
0.0001503
0.0044009
0.00018338
0.0040797
0.00021333
0.0036885
0.00023958
0.0032351
0.00026048
0.0027296
0.00028212
0.0021562
0.00028101
0.0016576
0.00028976
0.00087757
0.00071662
0.00032133
3.8265e-05
0.0048673
4.9481e-08
7.6627e-05
0.0047775
0.0001139
0.0046104
0.00014934
0.0043654
0.00018221
0.0040468
0.00021196
0.0036588
0.00023808
0.003209
0.00025852
0.0027091
0.00028064
0.0021341
0.00028049
0.0016577
0.00028498
0.00087308
0.00068475
0.00031685
3.8017e-05
0.0048292
5.4992e-08
7.6137e-05
0.0047394
0.00011317
0.0045734
0.00014839
0.0043302
0.00018104
0.0040142
0.0002106
0.0036292
0.0002366
0.003183
0.00025657
0.0026891
0.00027904
0.0021116
0.00028032
0.0016564
0.00028122
0.00087219
0.00065466
0.00031131
3.7771e-05
0.0047914
6.044e-08
7.565e-05
0.0047015
0.00011245
0.0045366
0.00014744
0.0042952
0.00017989
0.0039817
0.00020924
0.0035999
0.00023515
0.0031571
0.00025464
0.0026697
0.0002773
0.0020889
0.00028034
0.0016534
0.00027842
0.0008741
0.00062746
0.00030562
3.7526e-05
0.0047538
6.5825e-08
7.5166e-05
0.0046639
0.00011173
0.0045
0.0001465
0.0042605
0.00017874
0.0039495
0.00020789
0.0035707
0.00023372
0.0031313
0.00025273
0.0026506
0.00027543
0.0020662
0.00028041
0.0016484
0.00027649
0.00087801
0.00060362
0.00030033
3.7284e-05
0.0047165
7.1149e-08
7.4685e-05
0.0046265
0.00011102
0.0044637
0.00014557
0.0042259
0.0001776
0.0039174
0.00020655
0.0035418
0.00023231
0.0031055
0.00025086
0.0026321
0.00027345
0.0020436
0.00028041
0.0016415
0.00027527
0.00088316
0.00058317
0.00029572
3.7042e-05
0.0046794
7.6412e-08
7.4208e-05
0.0045893
0.00011031
0.0044276
0.00014464
0.0041916
0.00017647
0.0038856
0.00020522
0.003513
0.00023092
0.0030798
0.00024903
0.002614
0.00027135
0.0020213
0.00028028
0.0016325
0.00027458
0.00088886
0.00056586
0.00029189
3.6802e-05
0.0046425
8.1614e-08
7.3733e-05
0.0045524
0.00010961
0.0043917
0.00014372
0.0041575
0.00017535
0.003854
0.00020389
0.0034845
0.00022955
0.0030541
0.00024725
0.0025963
0.00026916
0.0019994
0.00027996
0.0016217
0.00027427
0.00089454
0.00055132
0.00028881
3.6564e-05
0.0046058
8.6757e-08
7.3261e-05
0.0045157
0.00010891
0.0043561
0.00014281
0.0041236
0.00017423
0.0038226
0.00020257
0.0034562
0.00022819
0.0030285
0.00024552
0.0025789
0.0002669
0.001978
0.0002794
0.0016092
0.00027419
0.00089976
0.0005391
0.00028641
3.6327e-05
0.0045694
9.1842e-08
7.2792e-05
0.0044792
0.00010822
0.0043206
0.0001419
0.0040899
0.00017313
0.0037913
0.00020125
0.003428
0.00022685
0.0030029
0.00024385
0.0025619
0.00026459
0.0019573
0.0002786
0.0015952
0.0002742
0.00090416
0.00052874
0.00028456
3.6092e-05
0.0045332
9.6868e-08
7.2327e-05
0.004443
0.00010753
0.0042854
0.00014099
0.0040564
0.00017203
0.0037603
0.00019994
0.0034001
0.00022552
0.0029773
0.00024225
0.0025452
0.00026226
0.0019373
0.00027756
0.0015799
0.00027421
0.00090751
0.00051981
0.00028313
3.5858e-05
0.0044972
1.0184e-07
7.1864e-05
0.004407
0.00010684
0.0042505
0.0001401
0.0040232
0.00017094
0.0037294
0.00019863
0.0033724
0.0002242
0.0029518
0.00024071
0.0025287
0.00025992
0.0019181
0.00027627
0.0015636
0.00027414
0.00090965
0.00051194
0.00028201
3.5626e-05
0.0044615
1.0675e-07
7.1404e-05
0.0043712
0.00010616
0.0042157
0.0001392
0.0039901
0.00016986
0.0036988
0.00019733
0.003345
0.00022288
0.0029262
0.00023922
0.0025124
0.0002576
0.0018997
0.00027477
0.0015464
0.00027393
0.00091049
0.00050481
0.00028106
3.5396e-05
0.004426
1.1161e-07
7.0947e-05
0.0043357
0.00010548
0.0041812
0.00013832
0.0039573
0.00016878
0.0036683
0.00019604
0.0033177
0.00022157
0.0029007
0.00023781
0.0024961
0.00025531
0.0018822
0.00027308
0.0015286
0.00027354
0.00091003
0.00049815
0.0002802
3.5166e-05
0.0043907
1.1641e-07
7.0493e-05
0.0043003
0.00010481
0.0041469
0.00013744
0.0039247
0.00016772
0.003638
0.00019475
0.0032907
0.00022026
0.0028752
0.00023644
0.0024799
0.00025307
0.0018656
0.00027122
0.0015105
0.00027295
0.0009083
0.00049174
0.00027936
3.4939e-05
0.0043557
1.2116e-07
7.0042e-05
0.0042652
0.00010414
0.0041128
0.00013656
0.0038923
0.00016666
0.003608
0.00019347
0.0032639
0.00021896
0.0028497
0.00023514
0.0024638
0.0002509
0.0018498
0.00026922
0.0014921
0.00027216
0.00090536
0.00048544
0.00027846
3.4712e-05
0.0043208
1.2586e-07
6.9594e-05
0.0042304
0.00010348
0.0040789
0.00013569
0.00386
0.00016561
0.003578
0.00019219
0.0032373
0.00021765
0.0028242
0.00023388
0.0024475
0.0002488
0.0018349
0.00026712
0.0014738
0.00027117
0.00090132
0.00047911
0.00027749
3.4488e-05
0.0042862
1.305e-07
6.9148e-05
0.0041957
0.00010282
0.0040452
0.00013483
0.003828
0.00016457
0.0035483
0.00019092
0.0032109
0.00021633
0.0027988
0.00023267
0.0024312
0.00024678
0.0018208
0.00026495
0.0014557
0.00026998
0.00089628
0.0004727
0.0002764
3.4264e-05
0.0042518
1.3509e-07
6.8706e-05
0.0041613
0.00010217
0.0040117
0.00013397
0.0037962
0.00016354
0.0035187
0.00018966
0.0031848
0.00021502
0.0027735
0.00023149
0.0024147
0.00024485
0.0018074
0.00026273
0.0014378
0.00026863
0.00089038
0.00046615
0.00027518
3.4042e-05
0.0042176
1.3964e-07
6.8266e-05
0.004127
0.00010151
0.0039785
0.00013312
0.0037646
0.00016251
0.0034893
0.00018841
0.0031589
0.00021369
0.0027482
0.00023035
0.0023981
0.00024301
0.0017948
0.00026049
0.0014203
0.00026713
0.00088374
0.00045943
0.00027384
3.3822e-05
0.0041837
1.4413e-07
6.7829e-05
0.004093
0.00010087
0.0039454
0.00013227
0.0037332
0.0001615
0.0034601
0.00018717
0.0031333
0.00021236
0.002723
0.00022924
0.0023812
0.00024127
0.0017827
0.00025825
0.0014033
0.0002655
0.00087649
0.00045255
0.00027238
3.3603e-05
0.0041499
1.4857e-07
6.7395e-05
0.0040592
0.00010023
0.0039126
0.00013143
0.003702
0.00016049
0.003431
0.00018593
0.0031078
0.00021102
0.0026979
0.00022814
0.0023641
0.00023962
0.0017713
0.00025605
0.0013869
0.00026377
0.00086877
0.00044552
0.0002708
3.3385e-05
0.0041164
1.5296e-07
6.6964e-05
0.0040257
9.9588e-05
0.00388
0.00013059
0.003671
0.00015949
0.0034021
0.00018471
0.0030826
0.00020968
0.0026729
0.00022707
0.0023467
0.00023806
0.0017603
0.00025388
0.0013711
0.00026197
0.00086068
0.00043835
0.00026913
3.3169e-05
0.004083
1.573e-07
6.6536e-05
0.0039923
9.8954e-05
0.0038476
0.00012976
0.0036402
0.0001585
0.0033734
0.00018349
0.0030576
0.00020833
0.0026481
0.00022599
0.002329
0.00023659
0.0017497
0.00025177
0.0013559
0.00026011
0.00085234
0.00043108
0.00026738
3.2954e-05
0.0040499
1.616e-07
6.611e-05
0.0039591
9.8324e-05
0.0038154
0.00012893
0.0036096
0.00015751
0.0033448
0.00018229
0.0030328
0.00020697
0.0026234
0.00022493
0.002311
0.0002352
0.0017394
0.00024974
0.0013413
0.00025823
0.00084385
0.00042374
0.00026557
3.2741e-05
0.004017
1.6585e-07
6.5687e-05
0.0039262
9.7698e-05
0.0037833
0.00012811
0.0035792
0.00015653
0.0033164
0.00018109
0.0030083
0.0002056
0.0025989
0.00022386
0.0022928
0.00023388
0.0017294
0.00024778
0.0013274
0.00025634
0.00083528
0.00041637
0.00026372
3.2529e-05
0.0039843
1.7006e-07
6.5267e-05
0.0038934
9.7077e-05
0.0037515
0.00012729
0.003549
0.00015556
0.0032881
0.00017991
0.0029839
0.00020423
0.0025746
0.00022278
0.0022742
0.00023263
0.0017195
0.0002459
0.0013142
0.00025446
0.00082672
0.000409
0.00026184
3.2318e-05
0.0039518
1.7422e-07
6.4849e-05
0.0038609
9.646e-05
0.0037199
0.00012648
0.003519
0.0001546
0.00326
0.00017874
0.0029598
0.00020286
0.0025505
0.00022169
0.0022554
0.00023144
0.0017098
0.00024411
0.0013015
0.00025261
0.00081822
0.00040165
0.00025995
3.2109e-05
0.0039195
1.7833e-07
6.4435e-05
0.0038286
9.5846e-05
0.0036885
0.00012567
0.0034892
0.00015365
0.003232
0.00017758
0.0029359
0.00020148
0.0025266
0.00022059
0.0022363
0.0002303
0.0017001
0.0002424
0.0012894
0.00025079
0.00080984
0.00039438
0.00025806
3.1901e-05
0.0038875
1.824e-07
6.4022e-05
0.0037965
9.5237e-05
0.0036573
0.00012487
0.0034595
0.0001527
0.0032042
0.00017644
0.0029121
0.00020009
0.0025029
0.00021947
0.0022169
0.0002292
0.0016903
0.00024078
0.0012778
0.00024902
0.0008016
0.00038719
0.0002562
3.1694e-05
0.0038556
1.8643e-07
6.3613e-05
0.0037645
9.4632e-05
0.0036263
0.00012407
0.0034301
0.00015176
0.0031765
0.0001753
0.0028886
0.00019871
0.0024795
0.00021833
0.0021973
0.00022814
0.0016805
0.00023924
0.0012667
0.0002473
0.00079355
0.00038013
0.00025436
3.1489e-05
0.0038239
1.9041e-07
6.3206e-05
0.0037328
9.4031e-05
0.0035955
0.00012328
0.0034008
0.00015082
0.003149
0.00017418
0.0028652
0.00019733
0.0024563
0.00021717
0.0021775
0.00022711
0.0016706
0.00023778
0.001256
0.00024564
0.0007857
0.0003732
0.00025256
3.1285e-05
0.0037924
1.9436e-07
6.2802e-05
0.0037013
9.3434e-05
0.0035648
0.00012249
0.0033718
0.00014989
0.0031216
0.00017308
0.002842
0.00019595
0.0024335
0.00021599
0.0021574
0.00022609
0.0016605
0.00023639
0.0012457
0.00024404
0.00077805
0.00036643
0.00025081
3.1083e-05
0.0037611
1.9826e-07
6.24e-05
0.00367
9.2841e-05
0.0035344
0.00012171
0.0033429
0.00014897
0.0030943
0.00017199
0.002819
0.00019457
0.0024109
0.00021479
0.0021372
0.00022509
0.0016502
0.00023506
0.0012358
0.0002425
0.00077062
0.00035982
0.0002491
3.0882e-05
0.0037301
2.0212e-07
6.2001e-05
0.0036389
9.2252e-05
0.0035041
0.00012093
0.0033142
0.00014805
0.0030672
0.00017091
0.0027962
0.0001932
0.0023886
0.00021356
0.0021168
0.00022409
0.0016397
0.00023379
0.0012261
0.00024102
0.0007634
0.0003534
0.00024744
3.0682e-05
0.0036992
2.0594e-07
6.1605e-05
0.003608
9.1666e-05
0.0034741
0.00012015
0.0032858
0.00014714
0.0030402
0.00016984
0.0027735
0.00019183
0.0023666
0.00021231
0.0020964
0.00022309
0.0016289
0.00023257
0.0012166
0.0002396
0.00075638
0.00034716
0.00024583
3.0483e-05
0.0036685
2.0972e-07
6.1211e-05
0.0035772
9.1085e-05
0.0034442
0.00011938
0.0032575
0.00014624
0.0030133
0.00016879
0.0027509
0.00019047
0.0023449
0.00021104
0.0020758
0.00022208
0.0016178
0.00023139
0.0012073
0.00023823
0.00074955
0.00034111
0.00024428
3.0286e-05
0.003638
2.1346e-07
6.082e-05
0.0035467
9.0508e-05
0.0034145
0.00011862
0.0032293
0.00014534
0.0029866
0.00016775
0.0027285
0.00018912
0.0023236
0.00020974
0.0020552
0.00022106
0.0016065
0.00023025
0.0011981
0.00023691
0.00074289
0.00033525
0.00024277
3.009e-05
0.0036077
2.1717e-07
6.0431e-05
0.0035164
8.9934e-05
0.003385
0.00011786
0.0032014
0.00014444
0.00296
0.00016673
0.0027062
0.00018778
0.0023025
0.00020843
0.0020345
0.00022003
0.0015949
0.00022913
0.001189
0.00023563
0.00073639
0.00032958
0.00024131
2.9895e-05
0.0035776
2.2083e-07
6.0045e-05
0.0034862
8.9365e-05
0.0033557
0.0001171
0.0031737
0.00014355
0.0029336
0.00016571
0.0026841
0.00018646
0.0022818
0.00020709
0.0020139
0.00021898
0.001583
0.00022803
0.0011799
0.0002344
0.00073003
0.00032409
0.00023988
2.9702e-05
0.0035476
2.2446e-07
5.9661e-05
0.0034562
8.8799e-05
0.0033266
0.00011635
0.0031461
0.00014267
0.0029073
0.00016472
0.002662
0.00018514
0.0022613
0.00020575
0.0019933
0.00021791
0.0015709
0.00022695
0.0011709
0.00023319
0.00072378
0.00031878
0.0002385
2.951e-05
0.0035179
2.2806e-07
5.9279e-05
0.0034265
8.8237e-05
0.0032976
0.00011561
0.0031187
0.00014179
0.0028811
0.00016373
0.0026401
0.00018385
0.0022412
0.00020438
0.0019727
0.00021681
0.0015584
0.00022587
0.0011618
0.00023201
0.00071764
0.00031364
0.00023715
2.9319e-05
0.0034883
2.3162e-07
5.8901e-05
0.0033969
8.7679e-05
0.0032688
0.00011487
0.0030916
0.00014091
0.002855
0.00016276
0.0026182
0.00018257
0.0022214
0.00020301
0.0019523
0.00021569
0.0015458
0.00022479
0.0011527
0.00023085
0.00071158
0.00030866
0.00023583
2.9129e-05
0.003459
2.3514e-07
5.8524e-05
0.0033675
8.7124e-05
0.0032402
0.00011413
0.0030646
0.00014004
0.0028291
0.00016179
0.0025965
0.0001813
0.0022019
0.00020163
0.001932
0.00021455
0.0015328
0.00022371
0.0011435
0.00022971
0.00070557
0.00030384
0.00023453
2.8941e-05
0.0034298
2.3863e-07
5.815e-05
0.0033383
8.6574e-05
0.0032118
0.0001134
0.0030377
0.00013917
0.0028034
0.00016084
0.0025748
0.00018005
0.0021827
0.00020023
0.0019118
0.00021338
0.0015197
0.00022262
0.0011343
0.00022858
0.00069962
0.00029916
0.00023326
2.8753e-05
0.0034008
2.4209e-07
5.7779e-05
0.0033093
8.6027e-05
0.0031835
0.00011267
0.0030111
0.0001383
0.0027777
0.0001599
0.0025532
0.00017883
0.0021638
0.00019884
0.0018918
0.00021219
0.0015063
0.00022152
0.001125
0.00022745
0.00069369
0.00029462
0.00023199
2.8567e-05
0.003372
2.4551e-07
5.7409e-05
0.0032804
8.5484e-05
0.0031555
0.00011195
0.0029846
0.00013744
0.0027522
0.00015897
0.0025316
0.00017762
0.0021451
0.00019744
0.001872
0.00021097
0.0014928
0.0002204
0.0011155
0.00022632
0.00068777
0.00029019
0.00023074
2.8383e-05
0.0033434
2.489e-07
5.7043e-05
0.0032518
8.4944e-05
0.0031276
0.00011123
0.0029583
0.00013658
0.0027269
0.00015805
0.0025102
0.00017643
0.0021267
0.00019605
0.0018523
0.00020973
0.0014791
0.00021927
0.001106
0.00022519
0.00068185
0.00028588
0.0002295
2.8199e-05
0.0033149
2.5226e-07
5.6678e-05
0.0032233
8.4408e-05
0.0030998
0.00011052
0.0029322
0.00013572
0.0027017
0.00015714
0.0024888
0.00017526
0.0021086
0.00019465
0.001833
0.00020847
0.0014653
0.00021812
0.0010964
0.00022405
0.00067592
0.00028168
0.00022826
2.8017e-05
0.0032866
2.5559e-07
5.6316e-05
0.003195
8.3876e-05
0.0030723
0.00010981
0.0029063
0.00013487
0.0026766
0.00015623
0.0024674
0.00017411
0.0020907
0.00019327
0.0018138
0.0002072
0.0014514
0.00021696
0.0010866
0.00022291
0.00066997
0.00027756
0.00022702
2.7836e-05
0.0032585
2.5889e-07
5.5956e-05
0.0031669
8.3347e-05
0.0030449
0.00010911
0.0028805
0.00013402
0.0026517
0.00015534
0.0024461
0.00017298
0.0020731
0.00019189
0.0017949
0.0002059
0.0014374
0.00021577
0.0010767
0.00022175
0.00066398
0.00027353
0.00022578
2.7656e-05
0.0032306
2.6215e-07
5.5599e-05
0.0031389
8.2822e-05
0.0030177
0.00010841
0.0028549
0.00013317
0.0026269
0.00015445
0.0024248
0.00017188
0.0020557
0.00019052
0.0017763
0.00020459
0.0014233
0.00021456
0.0010668
0.00022058
0.00065796
0.00026957
0.00022454
2.7477e-05
0.0032029
2.6539e-07
5.5244e-05
0.0031112
8.2301e-05
0.0029906
0.00010771
0.0028295
0.00013233
0.0026023
0.00015357
0.0024036
0.00017079
0.0020384
0.00018916
0.0017579
0.00020327
0.0014092
0.00021334
0.0010567
0.0002194
0.0006519
0.00026568
0.0002233
2.7299e-05
0.0031753
2.686e-07
5.4891e-05
0.0030836
8.1783e-05
0.0029637
0.00010702
0.0028043
0.00013149
0.0025779
0.00015269
0.0023824
0.00016972
0.0020214
0.00018782
0.0017398
0.00020194
0.001395
0.0002121
0.0010465
0.00021821
0.00064579
0.00026184
0.00022204
2.7123e-05
0.0031479
2.7178e-07
5.454e-05
0.0030561
8.1268e-05
0.002937
0.00010634
0.0027792
0.00013065
0.0025536
0.00015182
0.0023612
0.00016867
0.0020046
0.00018649
0.001722
0.00020061
0.0013809
0.00021084
0.0010363
0.000217
0.00063964
0.00025805
0.00022079
2.6948e-05
0.0031207
2.7493e-07
5.4192e-05
0.0030289
8.0757e-05
0.0029104
0.00010566
0.0027543
0.00012982
0.0025294
0.00015095
0.0023401
0.00016764
0.0019879
0.00018518
0.0017044
0.00019927
0.0013668
0.00020957
0.001026
0.00021577
0.00063343
0.0002543
0.00021952
2.6773e-05
0.0030936
2.7806e-07
5.3846e-05
0.0030018
8.0249e-05
0.002884
0.00010499
0.0027296
0.00012898
0.0025054
0.00015009
0.0023189
0.00016663
0.0019713
0.00018388
0.0016872
0.00019792
0.0013528
0.00020828
0.0010156
0.00021453
0.00062718
0.00025059
0.00021825
2.66e-05
0.0030668
2.8116e-07
5.3502e-05
0.0029749
7.9744e-05
0.0028578
0.00010432
0.002705
0.00012815
0.0024816
0.00014923
0.0022979
0.00016563
0.0019549
0.00018261
0.0016702
0.00019658
0.0013388
0.00020699
0.0010052
0.00021328
0.00062088
0.0002469
0.00021697
2.6429e-05
0.00304
2.8423e-07
5.3161e-05
0.0029482
7.9243e-05
0.0028317
0.00010365
0.0026806
0.00012733
0.0024579
0.00014837
0.0022768
0.00016466
0.0019387
0.00018136
0.0016535
0.00019525
0.0013249
0.00020568
0.0009948
0.00021202
0.00061454
0.00024325
0.00021568
2.6258e-05
0.0030135
2.8728e-07
5.2821e-05
0.0029216
7.8745e-05
0.0028058
0.000103
0.0026563
0.00012651
0.0024344
0.00014752
0.0022558
0.00016369
0.0019225
0.00018013
0.0016371
0.00019392
0.0013111
0.00020437
0.00098435
0.00021075
0.00060816
0.00023961
0.00021439
2.6088e-05
0.0029871
2.903e-07
5.2484e-05
0.0028952
7.8251e-05
0.00278
0.00010234
0.0026322
0.00012569
0.002411
0.00014667
0.0022348
0.00016275
0.0019064
0.00017891
0.0016209
0.00019259
0.0012975
0.00020305
0.00097389
0.00020947
0.00060174
0.00023599
0.00021309
2.592e-05
0.0029609
2.933e-07
5.2149e-05
0.002869
7.7759e-05
0.0027544
0.00010169
0.0026083
0.00012487
0.0023879
0.00014582
0.0022139
0.00016181
0.0018904
0.00017772
0.001605
0.00019128
0.0012839
0.00020174
0.00096344
0.00020819
0.00059528
0.00023238
0.00021179
2.5752e-05
0.0029349
2.9628e-07
5.1816e-05
0.0028429
7.7271e-05
0.0027289
0.00010105
0.0025845
0.00012406
0.0023649
0.00014497
0.002193
0.00016089
0.0018745
0.00017655
0.0015893
0.00018998
0.0012705
0.00020042
0.000953
0.0002069
0.0005888
0.00022879
0.00021049
2.5586e-05
0.002909
2.9923e-07
5.1485e-05
0.002817
7.6786e-05
0.0027036
0.00010041
0.0025609
0.00012325
0.002342
0.00014412
0.0021721
0.00015998
0.0018586
0.00017541
0.0015739
0.00018869
0.0012572
0.0001991
0.00094259
0.0002056
0.0005823
0.00022521
0.00020918
2.5421e-05
0.0028833
3.0216e-07
5.1157e-05
0.0027913
7.6304e-05
0.0026785
9.9777e-05
0.0025374
0.00012244
0.0023194
0.00014327
0.0021513
0.00015908
0.0018428
0.00017428
0.0015587
0.00018742
0.0012441
0.00019779
0.00093222
0.0002043
0.00057578
0.00022163
0.00020788
2.5256e-05
0.0028577
3.0507e-07
5.083e-05
0.0027657
7.5825e-05
0.0026535
9.9149e-05
0.0025141
0.00012164
0.0022969
0.00014242
0.0021305
0.00015819
0.001827
0.00017317
0.0015437
0.00018616
0.0012311
0.00019648
0.0009219
0.00020301
0.00056925
0.00021807
0.00020657
2.5093e-05
0.0028323
3.0795e-07
5.0506e-05
0.0027403
7.5349e-05
0.0026287
9.8525e-05
0.0024909
0.00012084
0.0022745
0.00014157
0.0021098
0.00015731
0.0018113
0.00017209
0.0015289
0.00018492
0.0012182
0.00019518
0.00091164
0.00020171
0.00056272
0.00021452
0.00020526
2.4931e-05
0.002807
3.1082e-07
5.0184e-05
0.0027151
7.4876e-05
0.002604
9.7907e-05
0.0024679
0.00012005
0.0022524
0.00014073
0.0020891
0.00015644
0.0017956
0.00017102
0.0015144
0.00018369
0.0012056
0.00019388
0.00090145
0.00020042
0.00055618
0.00021098
0.00020396
2.477e-05
0.002782
3.1367e-07
4.9864e-05
0.00269
7.4406e-05
0.0025794
9.7293e-05
0.002445
0.00011926
0.0022304
0.00013988
0.0020685
0.00015557
0.0017799
0.00016997
0.0015
0.00018248
0.0011931
0.0001926
0.00089133
0.00019913
0.00054965
0.00020745
0.00020266
2.461e-05
0.002757
3.1649e-07
4.9546e-05
0.002665
7.3939e-05
0.002555
9.6685e-05
0.0024223
0.00011848
0.0022086
0.00013903
0.0020479
0.00015471
0.0017642
0.00016894
0.0014857
0.00018129
0.0011807
0.00019133
0.00088129
0.00019785
0.00054314
0.00020393
0.00020136
2.4451e-05
0.0027323
3.193e-07
4.923e-05
0.0026403
7.3475e-05
0.0025308
9.6081e-05
0.0023997
0.0001177
0.002187
0.00013818
0.0020274
0.00015385
0.0017486
0.00016792
0.0014716
0.00018012
0.0011685
0.00019007
0.00087134
0.00019657
0.00053664
0.00020042
0.00020007
2.4293e-05
0.0027077
3.2209e-07
4.8916e-05
0.0026156
7.3014e-05
0.0025067
9.5482e-05
0.0023772
0.00011692
0.0021656
0.00013733
0.002007
0.00015299
0.0017329
0.00016692
0.0014577
0.00017897
0.0011565
0.00018882
0.00086148
0.0001953
0.00053017
0.00019693
0.00019879
2.4136e-05
0.0026832
3.2486e-07
4.8604e-05
0.0025912
7.2555e-05
0.0024827
9.4888e-05
0.0023549
0.00011616
0.0021443
0.00013648
0.0019867
0.00015214
0.0017172
0.00016594
0.0014439
0.00017783
0.0011446
0.00018759
0.00085172
0.00019404
0.00052372
0.00019346
0.00019751
2.398e-05
0.0026589
3.2761e-07
4.8294e-05
0.0025669
7.21e-05
0.0024589
9.4299e-05
0.0023327
0.00011539
0.0021232
0.00013563
0.0019665
0.0001513
0.0017016
0.00016497
0.0014303
0.00017671
0.0011328
0.00018637
0.00084206
0.00019278
0.00051731
0.00019001
0.00019624
2.3826e-05
0.0026347
3.3035e-07
4.7986e-05
0.0025427
7.1647e-05
0.0024353
9.3715e-05
0.0023106
0.00011463
0.0021023
0.00013479
0.0019463
0.00015045
0.0016859
0.00016401
0.0014167
0.00017561
0.0011212
0.00018517
0.0008325
0.00019154
0.00051093
0.00018657
0.00019497
2.3672e-05
0.0026107
3.3306e-07
4.768e-05
0.0025187
7.1196e-05
0.0024117
9.3135e-05
0.0022887
0.00011388
0.0020816
0.00013394
0.0019262
0.00014961
0.0016702
0.00016306
0.0014032
0.00017452
0.0011098
0.00018398
0.00082304
0.00019031
0.0005046
0.00018316
0.00019372
2.3519e-05
0.0025869
3.3577e-07
4.7377e-05
0.0024948
7.0749e-05
0.0023884
9.256e-05
0.0022668
0.00011313
0.002061
0.00013309
0.0019063
0.00014876
0.0016546
0.00016212
0.0013899
0.00017345
0.0010985
0.0001828
0.00081369
0.00018909
0.00049831
0.00017978
0.00019247
2.3367e-05
0.0025632
3.3846e-07
4.7075e-05
0.0024711
7.0304e-05
0.0023651
9.1989e-05
0.0022452
0.00011239
0.0020406
0.00013225
0.0018864
0.00014792
0.0016389
0.00016119
0.0013766
0.00017239
0.0010873
0.00018164
0.00080444
0.00018788
0.00049207
0.00017642
0.00019124
2.3216e-05
0.0025396
3.4113e-07
4.6775e-05
0.0024476
6.9861e-05
0.0023421
9.1423e-05
0.0022236
0.00011166
0.0020203
0.0001314
0.0018667
0.00014707
0.0016232
0.00016027
0.0013634
0.00017135
0.0010762
0.00018049
0.0007953
0.00018668
0.00048588
0.00017309
0.00019001
2.3066e-05
0.0025162
3.4379e-07
4.6477e-05
0.0024241
6.9422e-05
0.0023191
9.0861e-05
0.0022022
0.00011093
0.0020003
0.00013056
0.0018471
0.00014623
0.0016076
0.00015935
0.0013503
0.00017032
0.0010652
0.00017936
0.00078626
0.0001855
0.00047974
0.00016979
0.00018879
2.2917e-05
0.0024929
3.4643e-07
4.6181e-05
0.0024009
6.8984e-05
0.0022963
9.0303e-05
0.0021808
0.00011021
0.0019804
0.00012972
0.0018275
0.00014539
0.0015919
0.00015845
0.0013372
0.00016931
0.0010543
0.00017824
0.00077732
0.00018432
0.00047366
0.00016653
0.00018759
2.2769e-05
0.0024698
3.4906e-07
4.5887e-05
0.0023778
6.855e-05
0.0022736
8.9749e-05
0.0021596
0.00010949
0.0019606
0.00012888
0.0018082
0.00014454
0.0015762
0.00015755
0.0013242
0.0001683
0.0010436
0.00017713
0.00076849
0.00018316
0.00046764
0.0001633
0.00018639
2.2622e-05
0.0024468
3.5168e-07
4.5595e-05
0.0023548
6.8118e-05
0.0022511
8.92e-05
0.0021386
0.00010878
0.001941
0.00012805
0.0017889
0.0001437
0.0015606
0.00015665
0.0013113
0.00016731
0.0010329
0.00017604
0.00075975
0.00018201
0.00046167
0.0001601
0.0001852
2.2476e-05
0.002424
3.5429e-07
4.5305e-05
0.002332
6.7688e-05
0.0022287
8.8654e-05
0.0021176
0.00010808
0.0019216
0.00012721
0.0017698
0.00014285
0.0015449
0.00015576
0.0012984
0.00016632
0.0010224
0.00017496
0.00075112
0.00018087
0.00045577
0.00015694
0.00018403
2.2331e-05
0.0024013
3.5689e-07
4.5017e-05
0.0023093
6.7261e-05
0.0022065
8.8112e-05
0.0020967
0.00010738
0.0019023
0.00012638
0.0017508
0.00014201
0.0015293
0.00015487
0.0012855
0.00016535
0.0010119
0.00017389
0.00074258
0.00017974
0.00044992
0.00015382
0.00018286
2.2186e-05
0.0023788
3.5947e-07
4.4731e-05
0.0022867
6.6836e-05
0.0021844
8.7574e-05
0.002076
0.00010669
0.0018832
0.00012556
0.0017319
0.00014116
0.0015137
0.00015398
0.0012727
0.00016439
0.0010015
0.00017284
0.00073412
0.00017862
0.00044414
0.00015073
0.00018171
2.2043e-05
0.0023564
3.6204e-07
4.4446e-05
0.0022643
6.6414e-05
0.0021624
8.704e-05
0.0020554
0.00010601
0.0018643
0.00012474
0.0017132
0.00014031
0.0014981
0.0001531
0.0012599
0.00016343
0.00099114
0.00017179
0.00072576
0.00017752
0.00043842
0.00014769
0.00018056
2.1901e-05
0.0023341
3.6461e-07
4.4164e-05
0.0022421
6.5994e-05
0.0021406
8.651e-05
0.0020349
0.00010533
0.0018454
0.00012392
0.0016946
0.00013947
0.0014826
0.00015222
0.0012472
0.00016248
0.00098088
0.00017076
0.00071749
0.00017642
0.00043275
0.00014468
0.00017942
2.1759e-05
0.002312
3.6716e-07
4.3883e-05
0.0022199
6.5577e-05
0.0021189
8.5983e-05
0.0020145
0.00010466
0.0018268
0.00012311
0.0016761
0.00013862
0.0014671
0.00015134
0.0012344
0.00016154
0.00097069
0.00016973
0.00070929
0.00017533
0.00042715
0.00014172
0.0001783
2.1618e-05
0.00229
3.697e-07
4.3604e-05
0.002198
6.5162e-05
0.0020973
8.5459e-05
0.0019942
0.00010399
0.0018082
0.0001223
0.0016578
0.00013777
0.0014516
0.00015046
0.0012218
0.0001606
0.00096055
0.00016871
0.00070118
0.00017426
0.0004216
0.0001388
0.00017718
2.1479e-05
0.0022681
3.7224e-07
4.3327e-05
0.0021761
6.475e-05
0.0020759
8.4939e-05
0.001974
0.00010333
0.0017898
0.00012149
0.0016397
0.00013693
0.0014362
0.00014959
0.0012091
0.00015967
0.00095047
0.00016771
0.00069314
0.00017319
0.00041612
0.00013591
0.00017608
2.134e-05
0.0022464
3.7477e-07
4.3052e-05
0.0021544
6.434e-05
0.0020546
8.4422e-05
0.0019539
0.00010268
0.0017716
0.00012069
0.0016217
0.00013608
0.0014208
0.00014871
0.0011965
0.00015874
0.00094044
0.00016671
0.00068517
0.00017214
0.00041069
0.00013307
0.00017498
2.1202e-05
0.0022248
3.7729e-07
4.2779e-05
0.0021328
6.3932e-05
0.0020335
8.3908e-05
0.0019339
0.00010204
0.0017534
0.0001199
0.0016038
0.00013524
0.0014054
0.00014784
0.0011839
0.00015782
0.00093046
0.00016572
0.00067727
0.00017109
0.00040532
0.00013027
0.00017389
2.1065e-05
0.0022034
3.798e-07
4.2507e-05
0.0021114
6.3527e-05
0.0020125
8.3398e-05
0.001914
0.0001014
0.0017355
0.00011911
0.0015861
0.0001344
0.0013902
0.00014697
0.0011713
0.0001569
0.00092052
0.00016473
0.00066944
0.00017005
0.0004
0.00012751
0.00017281
2.0929e-05
0.0021821
3.8231e-07
4.2238e-05
0.0020901
6.3124e-05
0.0019916
8.289e-05
0.0018943
0.00010076
0.0017176
0.00011833
0.0015685
0.00013356
0.0013749
0.00014609
0.0011588
0.00015599
0.00091063
0.00016375
0.00066168
0.00016902
0.00039473
0.00012478
0.00017174
2.0793e-05
0.0021609
3.8481e-07
4.197e-05
0.0020689
6.2724e-05
0.0019708
8.2385e-05
0.0018746
0.00010013
0.0016998
0.00011756
0.0015511
0.00013272
0.0013598
0.00014523
0.0011463
0.00015508
0.00090078
0.00016278
0.00065397
0.000168
0.00038952
0.0001221
0.00017068
2.0659e-05
0.0021399
3.8731e-07
4.1704e-05
0.0020478
6.2326e-05
0.0019502
8.1884e-05
0.0018551
9.951e-05
0.0016822
0.00011679
0.0015338
0.00013188
0.0013447
0.00014436
0.0011338
0.00015417
0.00089097
0.00016182
0.00064632
0.00016698
0.00038436
0.00011945
0.00016963
2.0525e-05
0.002119
3.898e-07
4.1439e-05
0.0020269
6.193e-05
0.0019297
8.1385e-05
0.0018356
9.8893e-05
0.0016647
0.00011602
0.0015167
0.00013105
0.0013297
0.00014349
0.0011213
0.00015326
0.00088119
0.00016086
0.00063872
0.00016597
0.00037924
0.00011684
0.00016858
2.0392e-05
0.0020982
3.9229e-07
4.1177e-05
0.0020061
6.1537e-05
0.0019093
8.0889e-05
0.0018163
9.8282e-05
0.0016473
0.00011527
0.0014997
0.00013022
0.0013147
0.00014262
0.0011089
0.00015236
0.00087145
0.00015991
0.00063118
0.00016497
0.00037418
0.00011427
0.00016755
2.0261e-05
0.0020775
3.9477e-07
4.0916e-05
0.0019855
6.1146e-05
0.0018891
8.0395e-05
0.001797
9.7675e-05
0.00163
0.00011452
0.0014828
0.00012939
0.0012998
0.00014176
0.0010966
0.00015147
0.00086174
0.00015896
0.00062368
0.00016398
0.00036916
0.00011173
0.00016652
2.0129e-05
0.002057
3.9725e-07
4.0657e-05
0.001965
6.0758e-05
0.001869
7.9905e-05
0.0017779
9.7074e-05
0.0016129
0.00011377
0.0014661
0.00012857
0.0012851
0.0001409
0.0010842
0.00015057
0.00085207
0.00015802
0.00061624
0.00016299
0.00036418
0.00010923
0.0001655
1.9999e-05
0.0020366
3.9973e-07
4.0399e-05
0.0019446
6.0371e-05
0.001849
7.9417e-05
0.0017588
9.6479e-05
0.0015958
0.00011304
0.0014496
0.00012775
0.0012703
0.00014004
0.0010719
0.00014968
0.00084243
0.00015708
0.00060884
0.00016201
0.00035924
0.00010676
0.00016448
1.987e-05
0.0020163
4.0221e-07
4.0143e-05
0.0019243
5.9988e-05
0.0018292
7.8931e-05
0.0017399
9.5888e-05
0.0015788
0.00011231
0.0014332
0.00012693
0.0012557
0.00013918
0.0010597
0.00014879
0.00083282
0.00015614
0.00060148
0.00016104
0.00035435
0.00010432
0.00016347
1.9741e-05
0.0019962
4.0468e-07
3.9889e-05
0.0019041
5.9606e-05
0.0018095
7.8449e-05
0.001721
9.5302e-05
0.001562
0.00011158
0.0014169
0.00012612
0.0012412
0.00013832
0.0010475
0.0001479
0.00082325
0.00015521
0.00059416
0.00016007
0.00034949
0.00010192
0.00016247
1.9613e-05
0.0019762
4.0715e-07
3.9637e-05
0.0018841
5.9227e-05
0.0017899
7.7968e-05
0.0017023
9.4721e-05
0.0015452