/*--------------------------------*- C++ -*----------------------------------*\
  =========                 |
  \\      /  F ield         | OpenFOAM: The Open Source CFD Toolbox
   \\    /   O peration     | Website:  https://openfoam.org
    \\  /    A nd           | Version:  6.0
     \\/     M anipulation  |
\*---------------------------------------------------------------------------*/
FoamFile
{
    version     2.0;
    format      ascii;
    class       volVectorField;
    location    "5";
    object      U;
}
// * * * * * * * * * * * * * * * * * * * * * * * * * * * * * * * * * * * * * //

dimensions      [0 1 -1 0 0 0 0];

internalField   nonuniform List<vector> 
15000
(
(1 -1.0172e-06 -2.8677e-19)
(1 -1.1499e-05 -1.2973e-19)
(1 -1.6347e-05 -3.1077e-18)
(1 -2.2008e-05 6.2151e-19)
(1 -2.0171e-05 2.0225e-18)
(1 -1.2686e-05 2.0487e-18)
(0.99999 3.6781e-06 6.6329e-19)
(0.99992 5.0234e-05 -1.9058e-18)
(0.99979 0.00010561 2.0446e-19)
(0.99937 0.00023767 7.6837e-19)
(0.99059 0.0014582 2.4538e-19)
(1.0314 0.021238 -1.9918e-20)
(1 -3.014e-06 -3.5917e-19)
(1 -3.4797e-05 5.6341e-19)
(1 -4.8832e-05 1.714e-18)
(1 -6.7165e-05 -1.633e-18)
(1 -5.9793e-05 -1.394e-18)
(1 -4.0038e-05 1.3999e-19)
(0.99999 1.1592e-05 1.0663e-18)
(0.99979 0.00014908 -7.0552e-21)
(0.99929 0.00033917 -6.2446e-19)
(1.0001 0.00056582 1.2307e-18)
(0.9686 0.004148 2.7475e-18)
(1.0864 0.054643 -2.9305e-19)
(1 -4.9638e-06 5.8551e-19)
(1 -5.8379e-05 9.039e-21)
(1 -8.1109e-05 -1.3897e-18)
(1.0001 -0.0001133 2.3782e-18)
(1.0001 -9.8726e-05 2.096e-18)
(1.0001 -6.867e-05 3.0067e-18)
(1 2.1169e-05 2.5781e-18)
(0.9997 0.00024733 2.2257e-19)
(0.99863 0.00059884 -5.7348e-19)
(1.0027 0.001016 -4.5706e-19)
(0.94625 0.0057996 -2.537e-18)
(1.1195 0.073267 1.4601e-18)
(1 -6.8611e-06 -4.0819e-19)
(1 -8.219e-05 -4.7189e-19)
(1 -0.00011336 3.8528e-19)
(1.0001 -0.00016004 -2.9616e-21)
(1.0001 -0.00013754 3.9191e-19)
(1.0001 -9.7925e-05 -2.0087e-18)
(1 3.1696e-05 -3.3755e-18)
(0.99966 0.00034274 1.3163e-18)
(0.99773 0.00087807 2.2366e-18)
(1.0069 0.001633 -6.082e-19)
(0.92622 0.0064486 3.045e-18)
(1.1288 0.08273 -5.8838e-19)
(0.99999 -8.7011e-06 4.7685e-19)
(1 -0.00010615 4.8398e-19)
(1 -0.00014564 7.5723e-19)
(1.0001 -0.00020709 -1.3413e-18)
(1.0001 -0.00017654 6.3716e-20)
(1.0001 -0.00012759 -2.7134e-19)
(1 4.2287e-05 2.2023e-19)
(0.99969 0.00043296 -6.9337e-19)
(0.99652 0.0011634 1.5575e-20)
(1.0123 0.0024107 5.9225e-19)
(0.91038 0.006389 -3.743e-19)
(1.1202 0.086286 -8.9479e-20)
(0.99999 -1.0485e-05 -2.3912e-19)
(1 -0.00013025 -1.6729e-19)
(1.0001 -0.00017797 1.5255e-18)
(1.0001 -0.00025439 1.2295e-18)
(1.0002 -0.0002158 -1.8198e-18)
(1.0001 -0.00015783 -2.6563e-18)
(1.0001 5.2713e-05 -1.2792e-18)
(0.9998 0.00051741 -1.9824e-18)
(0.99499 0.0014419 -1.6395e-18)
(1.0183 0.0033406 -6.0227e-19)
(0.89966 0.0059208 -2.0204e-18)
(1.1008 0.086168 -6.8572e-19)
(0.99998 -1.2219e-05 -3.2105e-19)
(1 -0.0001545 4.6624e-19)
(1.0001 -0.00021034 -2.7807e-18)
(1.0001 -0.00030205 -2.9059e-18)
(1.0002 -0.00025528 1.1527e-18)
(1.0002 -0.00018886 9.9449e-19)
(1.0001 6.3018e-05 1.6589e-18)
(1 0.00059651 3.316e-18)
(0.99312 0.0017035 9.5576e-19)
(1.0245 0.0044025 -1.2727e-18)
(0.89422 0.0052724 -4.3629e-19)
(1.0764 0.083962 3.4908e-19)
(0.99998 -1.3906e-05 -7.4624e-20)
(1 -0.00017892 -1.3678e-18)
(1.0001 -0.00024277 2.3043e-19)
(1.0001 -0.00035013 1.7064e-18)
(1.0002 -0.00029501 -2.3842e-18)
(1.0002 -0.00022084 1.3685e-18)
(1.0001 7.3196e-05 -4.106e-20)
(1.0003 0.00067101 -5.8305e-19)
(0.99094 0.0019408 1.9498e-18)
(1.0305 0.0055618 2.0377e-18)
(0.89364 0.0046118 1.3792e-18)
(1.0509 0.080632 4.8156e-19)
(0.99997 -1.555e-05 4.7142e-19)
(1 -0.00020354 4.6794e-19)
(1.0001 -0.00027527 1.6458e-18)
(1.0002 -0.00039869 -1.7576e-18)
(1.0003 -0.00033504 1.408e-18)
(1.0003 -0.00025391 -1.9556e-18)
(1.0001 8.3121e-05 -1.3248e-18)
(1.0008 0.00074186 -2.9353e-18)
(0.98849 0.002148 -3.4301e-18)
(1.0361 0.0067762 -1.3272e-18)
(0.89719 0.0040597 -2.7302e-19)
(1.0269 0.076777 -5.0146e-19)
(0.99996 -1.7156e-05 2.5228e-19)
(0.99999 -0.00022835 -1.9528e-19)
(1.0001 -0.00030788 1.7451e-19)
(1.0002 -0.00044776 2.9513e-18)
(1.0003 -0.00037539 1.4808e-18)
(1.0003 -0.00028818 2.1638e-18)
(1.0001 9.2589e-05 -6.9972e-19)
(1.0013 0.0008102 1.3856e-18)
(0.98583 0.002321 1.9706e-18)
(1.0408 0.0080039 -4.6386e-19)
(0.90399 0.0036931 9.637e-19)
(1.0063 0.072808 3.648e-19)
(0.99995 -1.8727e-05 -5.1709e-19)
(0.99999 -0.00025338 1.3858e-18)
(1.0001 -0.0003406 1.6171e-18)
(1.0002 -0.00049737 8.2784e-19)
(1.0003 -0.00041612 -1.3734e-18)
(1.0003 -0.00032378 -1.3823e-18)
(1.0001 0.00010133 2.154e-18)
(1.0021 0.00087736 3.297e-19)
(0.98303 0.0024571 -1.3792e-18)
(1.0447 0.0092081 -1.2634e-19)
(0.91314 0.0035514 -1.2895e-18)
(0.98984 0.068999 -1.3745e-19)
(0.99994 -2.0267e-05 2.2415e-19)
(0.99998 -0.00027864 2.8767e-19)
(1.0001 -0.00037347 -1.4122e-18)
(1.0002 -0.00054758 -1.6283e-18)
(1.0004 -0.00045727 1.8315e-18)
(1.0004 -0.00036083 -9.2994e-19)
(1 0.00010904 1.1583e-19)
(1.0029 0.00094476 4.7403e-19)
(0.98015 0.0025548 -9.7301e-19)
(1.0476 0.010359 8.1706e-19)
(0.92379 0.0036426 1.8146e-18)
(0.97766 0.065508 -7.1707e-20)
(0.99993 -2.1779e-05 -2.3463e-20)
(0.99997 -0.00030413 -1.7534e-18)
(1.0001 -0.00040649 -5.7032e-19)
(1.0002 -0.00059841 -9.9229e-19)
(1.0004 -0.00049887 -3.9877e-18)
(1.0004 -0.00039944 2.4172e-18)
(0.99997 0.00011533 -7.3792e-19)
(1.0039 0.0010139 -1.7795e-18)
(0.97727 0.0026134 2.1372e-18)
(1.0494 0.011435 1.2606e-18)
(0.93522 0.0039521 -6.8649e-19)
(0.96958 0.062407 1.8726e-19)
(0.99991 -2.3267e-05 -1.8782e-20)
(0.99996 -0.00032987 7.0188e-19)
(1.0001 -0.00043969 -2.2429e-18)
(1.0002 -0.00064992 -5.0423e-19)
(1.0004 -0.00054097 8.1701e-19)
(1.0005 -0.0004397 -2.4157e-18)
(0.99986 0.00011978 -7.794e-19)
(1.0051 0.0010861 7.8011e-19)
(0.97447 0.0026331 -1.2365e-18)
(1.0501 0.01242 -2.5963e-19)
(0.94681 0.0044505 1.248e-18)
(0.96515 0.059714 -8.2941e-20)
(0.9999 -2.4736e-05 -4.3449e-20)
(0.99995 -0.00035587 9.8247e-19)
(1.0001 -0.00047309 2.7772e-18)
(1.0002 -0.00070213 -1.0107e-19)
(1.0005 -0.00058359 1.7343e-18)
(1.0006 -0.00048169 1.5421e-20)
(0.99972 0.00012191 6.9558e-19)
(1.0063 0.0011629 1.5117e-18)
(0.97181 0.0026147 2.0752e-19)
(1.0499 0.013304 -1.8792e-18)
(0.9581 0.0051004 -3.1439e-18)
(0.96375 0.057412 -1.4189e-19)
(0.99989 -2.6188e-05 6.3451e-20)
(0.99994 -0.00038215 -9.3712e-19)
(1.0001 -0.0005067 8.1714e-19)
(1.0003 -0.0007551 1.6013e-18)
(1.0005 -0.00062679 -4.9374e-19)
(1.0007 -0.00052551 -1.0049e-18)
(0.99954 0.00012123 -1.1351e-18)
(1.0077 0.0012452 -3.7162e-18)
(0.96936 0.0025596 2.0658e-18)
(1.0487 0.014084 1.232e-18)
(0.9687 0.0058614 1.4025e-18)
(0.96475 0.055463 4.2999e-19)
(0.99987 -2.7628e-05 2.0599e-19)
(0.99993 -0.00040871 -2.5096e-19)
(1.0001 -0.00054055 -8.9879e-19)
(1.0003 -0.00080886 8.6978e-19)
(1.0005 -0.00067059 -1.0235e-18)
(1.0007 -0.0005712 8.276e-19)
(0.99931 0.0001172 2.0109e-18)
(1.0092 0.0013342 8.8915e-19)
(0.96719 0.00247 -1.9598e-18)
(1.0467 0.014757 -9.2983e-19)
(0.97838 0.0066942 8.282e-19)
(0.96752 0.053819 -2.1003e-19)
(0.99985 -2.906e-05 -2.5687e-20)
(0.99991 -0.00043557 -3.2997e-19)
(1.0001 -0.00057466 -5.3197e-19)
(1.0003 -0.00086345 -1.9905e-18)
(1.0006 -0.00071505 2.3107e-18)
(1.0008 -0.00061883 -8.9653e-19)
(0.99904 0.00010929 -1.4571e-18)
(1.0107 0.0014305 -2.2641e-19)
(0.96533 0.0023485 2.4154e-19)
(1.044 0.015326 2.7688e-18)
(0.98696 0.0075628 -1.1275e-18)
(0.9715 0.05243 -1.2644e-19)
(0.99983 -3.0486e-05 -7.6408e-20)
(0.9999 -0.00046274 1.9063e-18)
(1.0001 -0.00060903 3.0226e-19)
(1.0003 -0.00091891 -1.2503e-18)
(1.0006 -0.0007602 -3.668e-19)
(1.001 -0.00066843 1.1085e-18)
(0.99871 9.697e-05 2.8032e-18)
(1.0124 0.0015344 2.1927e-18)
(0.96383 0.0021982 2.4865e-18)
(1.0406 0.015795 -1.424e-18)
(0.99435 0.0084357 7.2076e-19)
(0.9762 0.051245 1.2726e-19)
(0.99981 -3.1912e-05 1.4023e-19)
(0.99988 -0.00049023 -1.0247e-19)
(1.0001 -0.00064371 -8.3815e-19)
(1.0003 -0.00097528 1.1517e-18)
(1.0006 -0.00080608 -7.8169e-19)
(1.0011 -0.00072003 -8.0135e-19)
(0.99834 7.9719e-05 -2.924e-19)
(1.014 0.0016461 4.5312e-19)
(0.96271 0.0020228 -3.2104e-18)
(1.0369 0.016169 -3.7639e-19)
(1.0005 0.0092867 -2.0143e-18)
(0.98121 0.050218 -2.5852e-21)
(0.99979 -3.334e-05 -4.1101e-19)
(0.99987 -0.00051806 -1.8184e-18)
(1.0001 -0.00067869 4.8136e-19)
(1.0003 -0.0010326 2.971e-20)
(1.0007 -0.00085274 8.7833e-19)
(1.0012 -0.00077366 3.6014e-18)
(0.99792 5.7042e-05 -5.0193e-19)
(1.0157 0.0017653 4.4174e-19)
(0.96201 0.0018264 1.9751e-18)
(1.0327 0.016455 -6.7174e-19)
(1.0055 0.010095 7.9125e-19)
(0.98622 0.049305 -3.5001e-19)
(0.99977 -3.4775e-05 -1.3649e-19)
(0.99985 -0.00054623 9.2444e-19)
(1.0001 -0.00071401 8.8028e-19)
(1.0003 -0.0010909 -1.8226e-18)
(1.0007 -0.00090022 3.458e-19)
(1.0014 -0.00082932 -3.9425e-18)
(0.99745 2.8479e-05 -2.5602e-18)
(1.0174 0.0018915 -6.7467e-19)
(0.96173 0.0016133 1.453e-19)
(1.0284 0.016659 7.489e-19)
(1.0093 0.010844 7.1537e-19)
(0.99096 0.048474 4.7748e-19)
(0.99975 -3.6219e-05 -1.2123e-19)
(0.99983 -0.00057476 -7.6118e-19)
(1.0001 -0.00074968 -7.1597e-22)
(1.0003 -0.0011502 4.4451e-18)
(1.0007 -0.00094857 1.7785e-19)
(1.0016 -0.00088702 6.563e-20)
(0.99694 -6.3914e-06 6.7046e-19)
(1.019 0.0020239 7.3764e-19)
(0.96186 0.001388 2.2767e-19)
(1.0239 0.016789 -4.7091e-19)
(1.0121 0.011523 4.2382e-19)
(0.99529 0.047693 -3.2275e-20)
(0.99972 -3.7678e-05 2.2029e-19)
(0.99981 -0.00060365 -8.1214e-19)
(1.0001 -0.00078572 2.8682e-19)
(1.0003 -0.0012106 -2.5759e-18)
(1.0007 -0.00099783 -2.1687e-18)
(1.0018 -0.00094674 4.2492e-19)
(0.99637 -4.7942e-05 -4.245e-19)
(1.0207 0.0021615 -1.1554e-18)
(0.96241 0.0011552 -2.328e-18)
(1.0195 0.016851 -4.6597e-19)
(1.0139 0.012125 -2.4708e-18)
(0.99908 0.046939 -1.7083e-20)
(0.9997 -3.9154e-05 2.8175e-20)
(0.99979 -0.00063293 5.3898e-19)
(1.0001 -0.00082215 -8.827e-19)
(1.0003 -0.0012721 8.3389e-19)
(1.0007 -0.0010481 1.3128e-18)
(1.002 -0.0010085 2.3502e-18)
(0.99577 -9.65e-05 3.0222e-18)
(1.0222 0.002303 1.8637e-19)
(0.96335 0.00091928 3.7775e-18)
(1.0151 0.016852 3.6111e-19)
(1.0149 0.012644 1.6789e-18)
(1.0023 0.046195 -4.4871e-19)
(0.99967 -4.0651e-05 7.785e-20)
(0.99976 -0.0006626 -1.7416e-19)
(1.0001 -0.00085899 6.1136e-19)
(1.0004 -0.0013348 -2.0551e-18)
(1.0008 -0.0010993 1.5602e-18)
(1.0022 -0.0010722 2.3211e-19)
(0.99512 -0.00015234 -1.7426e-18)
(1.0237 0.002447 1.1156e-19)
(0.96467 0.00068463 -3.6384e-18)
(1.011 0.0168 3.1563e-19)
(1.0152 0.013081 -5.229e-21)
(1.0048 0.045445 1.3094e-19)
(0.99964 -4.2173e-05 1.6436e-19)
(0.99974 -0.00069267 1.0971e-18)
(1 -0.00089627 2.5442e-19)
(1.0004 -0.0013986 3.688e-18)
(1.0008 -0.0011516 -4.8707e-21)
(1.0025 -0.0011378 -2.4713e-18)
(0.99444 -0.00021568 2.3388e-18)
(1.025 0.0025919 -2.6039e-18)
(0.96633 0.00045523 -6.3685e-19)
(1.0071 0.0167 -9.9788e-19)
(1.0148 0.013436 2.4374e-19)
(1.0068 0.044681 1.2175e-19)
(0.99961 -4.3724e-05 1.8223e-19)
(0.99972 -0.00072316 -1.437e-18)
(1 -0.00093399 -1.3861e-18)
(1.0004 -0.0014636 -3.3979e-18)
(1.0008 -0.0012051 -4.3922e-18)
(1.0028 -0.0012054 1.6267e-18)
(0.99374 -0.00028669 -4.0118e-18)
(1.0263 0.0027362 4.8597e-19)
(0.9683 0.00023467 1.5646e-18)
(1.0036 0.016558 -4.658e-19)
(1.014 0.013711 -7.5225e-19)
(1.0082 0.043896 7.0491e-20)
(0.99958 -4.5307e-05 -3.0827e-19)
(0.99969 -0.00075408 2.6767e-18)
(1 -0.00097218 -4.9606e-19)
(1.0004 -0.0015298 1.0258e-18)
(1.0008 -0.0012597 4.0046e-18)
(1.0031 -0.0012749 3.6157e-19)
(0.993 -0.00036551 2.3943e-18)
(1.0274 0.0028782 3.4817e-18)
(0.97055 2.6029e-05 -1.6784e-18)
(1.0005 0.016381 1.0486e-18)
(1.0129 0.013912 1.6679e-18)
(1.0091 0.043086 -2.3208e-19)
(0.99955 -4.6927e-05 -1.0566e-19)
(0.99966 -0.00078543 -9.8785e-19)
(1 -0.0010109 -2.3467e-19)
(1.0004 -0.0015973 5.4836e-19)
(1.0007 -0.0013156 -4.6017e-18)
(1.0034 -0.0013461 -1.1085e-18)
(0.99225 -0.0004522 -2.9997e-19)
(1.0284 0.0030163 -5.2849e-19)
(0.97303 -0.00016816 4.2142e-18)
(0.99772 0.016175 -7.9967e-19)
(1.0115 0.014042 -1.2936e-18)
(1.0096 0.04225 -1.3245e-19)
(0.99952 -4.8586e-05 -1.431e-20)
(0.99963 -0.00081724 9.7575e-19)
(0.99999 -0.0010501 1.595e-18)
(1.0004 -0.0016661 -1.0584e-18)
(1.0007 -0.0013727 4.6362e-18)
(1.0037 -0.0014192 8.8056e-20)
(0.99149 -0.00054683 1.2392e-19)
(1.0292 0.003149 -1.8178e-18)
(0.97571 -0.00034595 -9.3568e-19)
(0.99543 0.015943 1.7184e-18)
(1.01 0.014109 1.136e-18)
(1.0097 0.041389 7.0675e-19)
(0.99948 -5.0288e-05 -7.9234e-20)
(0.9996 -0.0008495 -1.5081e-18)
(0.99997 -0.0010898 1.7599e-19)
(1.0004 -0.0017362 5.8131e-19)
(1.0007 -0.0014313 -2.5777e-18)
(1.0041 -0.0014939 3.5358e-19)
(0.99072 -0.00064938 -3.2605e-18)
(1.0299 0.0032748 -2.103e-18)
(0.97854 -0.00050597 -2.3368e-19)
(0.99359 0.015692 6.8717e-19)
(1.0085 0.014117 -1.6162e-18)
(1.0095 0.040504 -1.5075e-19)
(0.99945 -5.2039e-05 8.6707e-20)
(0.99957 -0.00088223 -4.6616e-19)
(0.99996 -0.0011301 7.5495e-19)
(1.0004 -0.0018076 -2.6376e-18)
(1.0007 -0.0014913 4.0173e-18)
(1.0045 -0.0015703 1.7471e-18)
(0.98995 -0.00075983 3.2229e-18)
(1.0304 0.0033922 2.0275e-18)
(0.98149 -0.00064744 -2.8769e-18)
(0.99221 0.015425 -2.2453e-18)
(1.0069 0.014074 9.6919e-20)
(1.0091 0.039598 -2.2301e-19)
(0.99941 -5.384e-05 5.8261e-20)
(0.99954 -0.00091545 2.0889e-18)
(0.99994 -0.0011709 -2.5493e-18)
(1.0004 -0.0018805 9.9851e-19)
(1.0006 -0.0015529 -5.5485e-18)
(1.005 -0.0016482 -2.9993e-18)
(0.98919 -0.00087814 -2.1765e-18)
(1.0307 0.0035 1.6507e-21)
(0.98451 -0.00077011 2.112e-18)
(0.99126 0.015147 2.2241e-18)
(1.0055 0.013986 2.9118e-19)
(1.0086 0.038675 -6.4152e-20)
(0.99937 -5.5696e-05 -1.9974e-19)
(0.99951 -0.00094916 -2.4974e-18)
(0.99992 -0.0012123 1.1527e-18)
(1.0004 -0.0019547 -3.2097e-19)
(1.0006 -0.0016161 1.0645e-18)
(1.0054 -0.0017276 -1.1658e-18)
(0.98845 -0.0010042 1.431e-18)
(1.0309 0.003597 8.1282e-20)
(0.98756 -0.00087423 -9.3011e-19)
(0.99075 0.014862 -2.4457e-18)
(1.0042 0.013859 1.5941e-18)
(1.0079 0.037739 2.6658e-19)
(0.99933 -5.7611e-05 -1.2412e-19)
(0.99947 -0.00098337 1.1617e-19)
(0.99989 -0.0012544 6.5031e-19)
(1.0004 -0.0020303 2.1022e-18)
(1.0005 -0.0016809 2.8921e-18)
(1.0059 -0.0018085 5.1108e-18)
(0.98772 -0.001138 2.5109e-18)
(1.0309 0.0036823 5.5286e-19)
(0.9906 -0.00096049 1.2128e-18)
(0.99063 0.014572 2.5505e-18)
(1.0032 0.013699 -6.9595e-19)
(1.0073 0.036794 -6.0388e-19)
(0.99929 -5.9589e-05 3.336e-19)
(0.99944 -0.0010181 8.9103e-19)
(0.99987 -0.0012971 9.6718e-19)
(1.0004 -0.0021074 1.3296e-18)
(1.0004 -0.0017475 1.9477e-18)
(1.0064 -0.0018906 -4.2336e-18)
(0.98703 -0.0012793 -5.3854e-18)
(1.0307 0.003755 -3.1231e-18)
(0.99362 -0.00103 -1.0849e-18)
(0.99089 0.01428 -2.8743e-18)
(1.0023 0.013511 -7.3045e-20)
(1.0067 0.035845 8.0347e-19)
(0.99925 -6.1634e-05 1.4054e-19)
(0.9994 -0.0010533 9.0165e-19)
(0.99984 -0.0013404 -2.8702e-18)
(1.0005 -0.002186 2.4132e-19)
(1.0004 -0.001816 -1.6675e-18)
(1.0069 -0.0019741 2.2845e-18)
(0.98637 -0.0014281 5.7176e-18)
(1.0304 0.0038143 3.2556e-18)
(0.99656 -0.0010841 5.9684e-19)
(0.9915 0.01399 1.8393e-18)
(1.0017 0.013302 -5.786e-19)
(1.0062 0.034895 -5.5e-19)
(0.9992 -6.375e-05 -1.3471e-19)
(0.99936 -0.0010891 -2.3406e-19)
(0.99982 -0.0013845 8.0949e-20)
(1.0005 -0.002266 -9.6763e-19)
(1.0003 -0.0018865 -7.464e-19)
(1.0074 -0.0020586 -9.3115e-19)
(0.98576 -0.0015843 -3.1186e-18)
(1.0299 0.0038595 3.6215e-19)
(0.9994 -0.0011244 -8.6939e-19)
(0.9924 0.013702 3.7953e-19)
(1.0014 0.013075 5.9264e-21)
(1.0059 0.033948 -7.0797e-20)
(0.99916 -6.594e-05 -2.5957e-19)
(0.99932 -0.0011254 -1.4723e-18)
(0.99979 -0.0014292 1.6616e-18)
(1.0005 -0.0023475 1.0824e-18)
(1.0002 -0.001959 -3.6601e-18)
(1.008 -0.0021443 2.5959e-19)
(0.98519 -0.0017476 -1.8536e-18)
(1.0293 0.0038903 1.1414e-18)
(1.0021 -0.0011528 6.4534e-19)
(0.99357 0.013419 -7.3819e-19)
(1.0013 0.012835 1.4853e-18)
(1.0056 0.03301 3.0633e-19)
(0.99911 -6.8209e-05 1.7816e-19)
(0.99928 -0.0011623 6.2895e-19)
(0.99976 -0.0014746 -1.5204e-18)
(1.0005 -0.0024306 1.5295e-19)
(1 -0.0020337 1.322e-18)
(1.0086 -0.0022309 5.2898e-20)
(0.98468 -0.0019179 2.8167e-18)
(1.0286 0.0039062 -1.6174e-18)
(1.0047 -0.0011711 -6e-19)
(0.99496 0.013141 -1.1561e-18)
(1.0015 0.012587 -1.6591e-18)
(1.0056 0.032083 -3.6757e-19)
(0.99906 -7.0562e-05 5.0328e-20)
(0.99923 -0.0011997 7.7854e-19)
(0.99972 -0.0015208 2.5101e-18)
(1.0005 -0.0025151 -4.816e-19)
(0.99991 -0.0021106 8.9635e-19)
(1.0091 -0.0023184 2.03e-18)
(0.98423 -0.0020951 1.2762e-18)
(1.0277 0.003907 3.2795e-18)
(1.0071 -0.0011815 1.5635e-18)
(0.99654 0.01287 7.4834e-20)
(1.002 0.012332 6.005e-19)
(1.0057 0.031169 6.5515e-19)
(0.99901 -7.3002e-05 -4.3947e-19)
(0.99919 -0.0012377 -2.3032e-19)
(0.99969 -0.0015678 -9.7483e-19)
(1.0005 -0.0026012 -2.5634e-18)
(0.99976 -0.0021899 -1.206e-18)
(1.0097 -0.0024067 -3.0599e-19)
(0.98384 -0.002279 -2.9512e-18)
(1.0267 0.0038924 -3.7724e-18)
(1.0094 -0.001186 6.3747e-19)
(0.99825 0.012605 1.6845e-18)
(1.0026 0.012075 1.3034e-18)
(1.006 0.030274 -7.7243e-20)
(0.99895 -7.5534e-05 7.4886e-19)
(0.99914 -0.0012763 -6.8798e-19)
(0.99965 -0.0016156 1.0062e-18)
(1.0006 -0.0026888 6.1988e-19)
(0.9996 -0.0022717 2.5358e-18)
(1.0103 -0.0024957 -1.866e-18)
(0.98352 -0.0024694 -3.9174e-19)
(1.0256 0.0038622 -1.0178e-18)
(1.0114 -0.0011865 -1.144e-18)
(1.0001 0.012348 4.3962e-19)
(1.0035 0.011817 -1.186e-18)
(1.0064 0.029397 6.5123e-20)
(0.9989 -7.8162e-05 -2.6802e-19)
(0.9991 -0.0013155 2.0747e-19)
(0.99961 -0.0016642 -6.9935e-19)
(1.0006 -0.002778 7.6515e-19)
(0.99943 -0.002356 -1.9277e-19)
(1.0109 -0.0025853 -1.204e-18)
(0.98328 -0.0026662 3.1001e-18)
(1.0244 0.0038165 1.6884e-18)
(1.0133 -0.0011852 -1.7973e-18)
(1.002 0.012097 -1.6963e-18)
(1.0046 0.01156 8.0061e-19)
(1.0071 0.028542 -6.1978e-19)
(0.99884 -8.0891e-05 -1.849e-19)
(0.99905 -0.0013553 4.3193e-19)
(0.99957 -0.0017136 -1.4388e-18)
(1.0006 -0.0028686 -6.2716e-19)
(0.99925 -0.0024431 -2.32e-18)
(1.0115 -0.0026754 -2.0636e-19)
(0.98311 -0.002869 -1.1692e-19)
(1.0231 0.0037552 5.9835e-19)
(1.0149 -0.0011839 1.2514e-18)
(1.0039 0.011853 7.4661e-19)
(1.0058 0.011307 -1.1695e-18)
(1.0079 0.027711 4.2158e-19)
(0.99879 -8.3725e-05 1.3803e-20)
(0.999 -0.0013956 -6.844e-20)
(0.99953 -0.001764 2.1993e-18)
(1.0006 -0.0029609 1.8874e-18)
(0.99905 -0.0025331 1.7637e-18)
(1.0121 -0.002766 4.6987e-19)
(0.98302 -0.0030778 -1.2036e-18)
(1.0218 0.0036782 -7.4763e-19)
(1.0163 -0.0011844 3.0484e-19)
(1.0058 0.011615 -7.1471e-19)
(1.0072 0.011058 8.2199e-19)
(1.0089 0.026903 -9.0412e-20)
(0.99873 -8.667e-05 2.2619e-19)
(0.99894 -0.0014366 -9.5656e-19)
(0.99948 -0.0018152 -2.5063e-18)
(1.0007 -0.0030546 -2.3281e-18)
(0.99884 -0.0026259 -1.4129e-18)
(1.0127 -0.002857 1.0227e-18)
(0.98302 -0.0032922 -3.6461e-18)
(1.0204 0.0035858 -4.1346e-19)
(1.0176 -0.0011885 4.6338e-19)
(1.0077 0.011383 5.6087e-19)
(1.0087 0.010814 -9.8545e-19)
(1.0099 0.026121 4.5195e-19)
(0.99867 -8.9729e-05 -3.9712e-19)
(0.99889 -0.0014782 -8.4327e-20)
(0.99944 -0.0018673 2.2479e-18)
(1.0007 -0.0031499 3.2653e-19)
(0.99862 -0.0027219 1.966e-18)
(1.0133 -0.0029482 3.2443e-19)
(0.9831 -0.003512 3.76e-18)
(1.0189 0.0034778 1.0353e-18)
(1.0186 -0.0011979 -5.3609e-19)
(1.0096 0.011154 -1.2662e-19)
(1.0102 0.010575 1.8189e-18)
(1.0111 0.025364 -7.2951e-19)
(0.9986 -9.2909e-05 3.5313e-19)
(0.99883 -0.0015205 1.056e-18)
(0.99939 -0.0019204 -1.2999e-18)
(1.0007 -0.0032468 2.6166e-19)
(0.99839 -0.0028212 -1.6338e-18)
(1.0139 -0.0030396 3.9542e-19)
(0.98326 -0.0037369 -5.1704e-19)
(1.0175 0.0033546 -1.881e-19)
(1.0194 -0.0012139 -2.0341e-19)
(1.0113 0.010928 1.326e-18)
(1.0118 0.010341 -1.6992e-18)
(1.0124 0.024632 -8.2083e-20)
(0.99854 -9.6214e-05 -4.8519e-19)
(0.99878 -0.0015633 -1.0963e-18)
(0.99933 -0.0019745 -4.2727e-19)
(1.0008 -0.0033451 1.85e-18)
(0.99814 -0.0029237 2.17e-18)
(1.0145 -0.0031312 -9.781e-19)
(0.9835 -0.0039666 9.4947e-19)
(1.016 0.003216 -1.5867e-18)
(1.02 -0.0012382 4.9655e-19)
(1.013 0.010705 -1.0284e-18)
(1.0134 0.010113 -3.706e-19)
(1.0138 0.023926 3.0533e-19)
(0.99847 -9.9649e-05 5.3063e-19)
(0.99872 -0.0016069 1.3841e-18)
(0.99928 -0.0020297 -1.3232e-18)
(1.0008 -0.0034449 -2.2299e-18)
(0.99788 -0.0030298 7.7474e-20)
(1.015 -0.003223 9.3619e-20)
(0.98383 -0.0042008 -8.5218e-19)
(1.0146 0.0030624 2.2831e-18)
(1.0205 -0.0012718 -1.8514e-18)
(1.0146 0.010481 -7.1733e-19)
(1.0151 0.0098901 1.2221e-18)
(1.0152 0.023244 -1.6776e-19)
(0.9984 -0.00010322 1.3005e-19)
(0.99866 -0.001651 -4.9581e-20)
(0.99922 -0.0020858 1.8556e-18)
(1.0009 -0.0035462 5.2833e-19)
(0.99761 -0.0031396 -1.7423e-18)
(1.0156 -0.0033147 -4.2457e-20)
(0.98424 -0.0044392 1.5313e-19)
(1.0132 0.0028938 -1.3202e-18)
(1.0207 -0.001316 1.8084e-18)
(1.016 0.010258 -1.1572e-18)
(1.0167 0.0096714 -4.6864e-19)
(1.0166 0.022586 -5.1042e-20)
(0.99833 -0.00010693 -8.0207e-20)
(0.99859 -0.0016958 -5.2116e-21)
(0.99916 -0.0021431 -1.3352e-18)
(1.0009 -0.003649 9.9827e-19)
(0.99733 -0.0032531 1.0544e-18)
(1.0161 -0.0034065 5.8397e-19)
(0.98474 -0.0046813 2.1424e-18)
(1.0118 0.0027104 1.2624e-19)
(1.0208 -0.0013718 -1.0525e-18)
(1.0173 0.010032 1.1998e-18)
(1.0182 0.0094562 7.8416e-19)
(1.018 0.021951 -5.818e-20)
(0.99826 -0.00011079 -6.252e-19)
(0.99853 -0.0017413 -8.52e-19)
(0.99909 -0.0022015 3.0158e-18)
(1.001 -0.0037533 -1.0028e-18)
(0.99704 -0.0033707 -1.1615e-18)
(1.0166 -0.0034983 8.6449e-19)
(0.9853 -0.0049268 -3.083e-18)
(1.0104 0.0025125 -1.6856e-18)
(1.0208 -0.0014402 1.0222e-18)
(1.0184 0.0098031 1.5766e-18)
(1.0197 0.0092435 -1.9655e-18)
(1.0195 0.021337 5.5513e-19)
(0.99818 -0.0001148 4.7561e-19)
(0.99846 -0.0017875 1.2549e-19)
(0.99902 -0.002261 -2.2945e-18)
(1.001 -0.0038589 -2.7962e-19)
(0.99673 -0.0034923 4.4051e-19)
(1.017 -0.0035901 -2.3562e-18)
(0.98595 -0.0051753 -1.3888e-21)
(1.0091 0.0023002 1.6107e-20)
(1.0206 -0.0015219 -9.1564e-19)
(1.0195 0.0095694 -2.408e-18)
(1.0211 0.0090322 1.7877e-18)
(1.0209 0.020743 -2.566e-19)
(0.99811 -0.00011897 -4.02e-21)
(0.9984 -0.0018343 1.4543e-18)
(0.99895 -0.0023217 1.5652e-18)
(1.0011 -0.003966 1.0088e-18)
(0.99642 -0.0036181 1.0651e-18)
(1.0175 -0.0036819 2.5934e-18)
(0.98666 -0.0054263 1.4405e-18)
(1.0079 0.0020739 2.8818e-18)
(1.0203 -0.0016178 2.5264e-18)
(1.0203 0.0093297 1.287e-18)
(1.0225 0.0088212 -1.7611e-18)
(1.0222 0.020168 3.4362e-19)
(0.99803 -0.00012331 6.7039e-19)
(0.99833 -0.0018818 -1.545e-18)
(0.99888 -0.0023836 -2.739e-18)
(1.0011 -0.0040744 -8.6662e-19)
(0.99611 -0.0037484 1.0939e-18)
(1.0179 -0.0037737 -3.626e-19)
(0.98744 -0.0056795 -1.635e-18)
(1.0067 0.0018338 -1.5015e-18)
(1.0199 -0.0017284 -1.3029e-18)
(1.021 0.0090827 8.6788e-19)
(1.0237 0.008609 2.6879e-18)
(1.0235 0.019609 -6.9894e-19)
(0.99795 -0.00012782 -9.7356e-19)
(0.99825 -0.00193 -5.0725e-20)
(0.9988 -0.0024468 3.311e-18)
(1.0012 -0.0041841 1.5437e-18)
(0.99578 -0.0038833 -1.7249e-18)
(1.0182 -0.0038656 6.1089e-19)
(0.98828 -0.0059343 2.3555e-18)
(1.0056 0.0015803 -1.394e-19)
(1.0193 -0.0018543 -1.3292e-18)
(1.0216 0.0088272 -1.0784e-18)
(1.0249 0.0083942 -1.122e-18)
(1.0248 0.019064 3.0829e-19)
(0.99786 -0.0001325 5.9119e-19)
(0.99818 -0.0019788 -1.8903e-19)
(0.99872 -0.0025113 -1.0054e-18)
(1.0013 -0.0042951 -2.7634e-18)
(0.99545 -0.0040229 7.7258e-19)
(1.0185 -0.0039577 -3.66e-18)
(0.98918 -0.0061904 -1.6324e-18)
(1.0046 0.0013138 -1.4453e-19)
(1.0188 -0.0019959 1.9179e-18)
(1.0221 0.008562 8.5229e-19)
(1.0259 0.0081756 4.3728e-19)
(1.026 0.018532 -2.5527e-19)
(0.99778 -0.00013737 1.4707e-19)
(0.99811 -0.0020284 -1.4813e-19)
(0.99863 -0.0025771 2.2361e-19)
(1.0013 -0.0044074 2.5236e-18)
(0.99512 -0.0041674 -2.2379e-18)
(1.0188 -0.0040499 2.7968e-19)
(0.99013 -0.0064472 1.5003e-18)
(1.0037 0.0010347 1.3812e-18)
(1.0181 -0.0021535 -1.7914e-18)
(1.0224 0.008286 -9.5161e-19)
(1.0268 0.0079516 -5.5937e-19)
(1.0271 0.018011 2.9301e-19)
(0.99769 -0.00014242 -6.8039e-19)
(0.99803 -0.0020787 -3.3393e-19)
(0.99854 -0.0026443 -1.0023e-18)
(1.0014 -0.0045208 6.9428e-19)
(0.99478 -0.0043169 2.8445e-18)
(1.0191 -0.0041426 1.4825e-19)
(0.99113 -0.0067043 -2.1683e-18)
(1.0029 0.00074356 -9.103e-19)
(1.0174 -0.0023273 7.9095e-19)
(1.0226 0.0079983 -9.1751e-20)
(1.0276 0.0077209 -6.2607e-19)
(1.0281 0.017498 -3.3059e-20)
(0.9976 -0.00014768 2.5251e-19)
(0.99795 -0.0021296 1.2098e-18)
(0.99845 -0.002713 1.7481e-18)
(1.0015 -0.0046355 -8.2507e-19)
(0.99445 -0.0044716 -9.2275e-19)
(1.0193 -0.0042356 1.4185e-18)
(0.99216 -0.0069614 9.9743e-19)
(1.0022 0.00044095 -8.5016e-19)
(1.0167 -0.0025174 1.4973e-18)
(1.0226 0.0076979 8.9238e-19)
(1.0283 0.007482 -1.4938e-18)
(1.029 0.016992 2.3757e-19)
(0.99751 -0.00015314 -3.2417e-19)
(0.99787 -0.0021813 -7.356e-19)
(0.99835 -0.0027831 -2.4528e-18)
(1.0016 -0.0047512 8.8301e-20)
(0.99411 -0.0046317 -9.8862e-19)
(1.0194 -0.0043293 2.8345e-19)
(0.99322 -0.0072179 4.3516e-19)
(1.0016 0.00012744 7.2294e-19)
(1.0159 -0.0027239 -5.744e-19)
(1.0226 0.0073841 -2.9967e-19)
(1.0289 0.0072338 2.4954e-18)
(1.0299 0.016491 -6.436e-19)
(0.99741 -0.00015881 1.387e-19)
(0.99778 -0.0022336 1.2087e-18)
(0.99825 -0.0028547 8.3788e-19)
(1.0017 -0.004868 -1.7203e-18)
(0.99377 -0.0047972 -2.2611e-18)
(1.0195 -0.0044238 3.9236e-19)
(0.99432 -0.0074735 -3.1483e-19)
(1.0011 -0.00019628 7.4533e-19)
(1.0152 -0.0029466 -1.3089e-18)
(1.0225 0.0070562 1.2931e-19)
(1.0293 0.0069749 -1.1523e-18)
(1.0306 0.015993 4.2164e-19)
(0.99731 -0.0001647 -1.869e-19)
(0.9977 -0.0022867 6.4856e-20)
(0.99815 -0.0029279 -1.8725e-19)
(1.0018 -0.0049859 7.7122e-19)
(0.99343 -0.0049683 3.367e-20)
(1.0196 -0.0045192 -2.0589e-18)
(0.99543 -0.0077278 2.1927e-18)
(1.0007 -0.00052952 -2.4364e-18)
(1.0145 -0.0031854 -1.1388e-18)
(1.0223 0.0067137 -7.3681e-19)
(1.0297 0.0067041 1.2061e-19)
(1.0313 0.015496 -4.8807e-20)
(0.99721 -0.00017081 1.9498e-19)
(0.99761 -0.0023405 5.1231e-20)
(0.99804 -0.0030026 -5.259e-19)
(1.0019 -0.0051046 9.3439e-19)
(0.9931 -0.0051452 1.6415e-18)
(1.0196 -0.0046159 2.9979e-18)
(0.99655 -0.0079804 -2.0308e-19)
(1.0004 -0.00087151 2.7654e-18)
(1.0137 -0.0034399 2.1837e-18)
(1.0221 0.0063561 9.802e-19)
(1.03 0.0064206 1.0094e-18)
(1.0319 0.014998 -1.0675e-19)
(0.99711 -0.00017716 3.931e-19)
(0.99752 -0.002395 -1.3121e-18)
(0.99792 -0.0030791 1.5598e-19)
(1.0019 -0.0052243 9.5748e-19)
(0.99277 -0.0053279 6.201e-19)
(1.0196 -0.0047141 3.5373e-19)
(0.99768 -0.0082311 -8.3412e-19)
(1.0002 -0.0012215 -1.7847e-19)
(1.013 -0.0037099 -2.1016e-18)
(1.0218 0.0059832 -4.0347e-19)
(1.0302 0.0061233 -2.1839e-18)
(1.0324 0.014499 2.856e-19)
(0.997 -0.00018375 -2.6781e-19)
(0.99743 -0.0024503 -5.7377e-19)
(0.99781 -0.0031572 9.9109e-19)
(1.002 -0.0053449 -8.8486e-19)
(0.99244 -0.0055166 -6.5825e-19)
(1.0195 -0.004814 -6.99e-19)
(0.99881 -0.0084796 -9.845e-19)
(1.0001 -0.0015786 -1.4055e-18)
(1.0124 -0.0039947 3.2679e-18)
(1.0214 0.0055949 -9.393e-19)
(1.0303 0.0058115 5.3e-19)
(1.0329 0.013996 -8.2224e-20)
(0.9969 -0.00019059 1.0882e-19)
(0.99733 -0.0025062 1.8788e-18)
(0.99768 -0.0032371 4.6646e-19)
(1.0021 -0.0054662 -1.9304e-18)
(0.99212 -0.0057113 3.1726e-18)
(1.0194 -0.004916 -9.5074e-19)
(0.99993 -0.0087257 2.9603e-19)
(1.0001 -0.001942 1.4503e-18)
(1.0118 -0.0042939 -2.0821e-18)
(1.021 0.005191 9.6875e-19)
(1.0304 0.0054846 5.7773e-19)
(1.0332 0.013488 2.9356e-19)
(0.99679 -0.00019769 -2.6169e-19)
(0.99724 -0.0025629 -2.1002e-18)
(0.99756 -0.0033188 -1.5625e-18)
(1.0022 -0.0055883 1.7258e-18)
(0.99182 -0.0059122 -9.585e-19)
(1.0192 -0.0050203 2.9055e-19)
(1.001 -0.0089691 1.5515e-18)
(1.0003 -0.0023109 -1.3308e-19)
(1.0113 -0.0046067 4.6784e-19)
(1.0206 0.0047718 -2.3099e-19)
(1.0304 0.005142 -9.7284e-19)
(1.0336 0.012975 -9.2637e-20)
(0.99667 -0.00020505 3.6424e-19)
(0.99714 -0.0026203 6.5127e-19)
(0.99742 -0.0034023 3.3308e-20)
(1.0023 -0.0057112 -2.2545e-20)
(0.99152 -0.0061192 -3.5908e-18)
(1.019 -0.0051274 -6.8195e-19)
(1.0021 -0.0092099 -1.8583e-18)
(1.0004 -0.0026844 -2.3646e-18)
(1.0108 -0.0049324 -1.8323e-18)
(1.0202 0.0043375 -8.4045e-19)
(1.0304 0.0047835 2.8406e-18)
(1.0338 0.012455 -3.4733e-19)
(0.99656 -0.00021269 1.0906e-19)
(0.99704 -0.0026785 6.2997e-19)
(0.99729 -0.0034878 1.0138e-18)
(1.0024 -0.0058346 3.7946e-19)
(0.99123 -0.0063324 4.2029e-18)
(1.0187 -0.0052376 1.634e-18)
(1.0032 -0.0094479 -1.3344e-19)
(1.0007 -0.0030616 1.5532e-18)
(1.0104 -0.0052702 1.7345e-18)
(1.0198 0.0038885 6.4335e-19)
(1.0303 0.0044088 -2.7714e-18)
(1.0341 0.011928 3.9754e-19)
(0.99644 -0.00022061 -2.9263e-19)
(0.99693 -0.0027373 1.6922e-19)
(0.99714 -0.0035752 8.1773e-19)
(1.0025 -0.0059587 -2.2422e-19)
(0.99095 -0.0065519 -7.728e-19)
(1.0184 -0.0053512 -3.9005e-18)
(1.0042 -0.0096831 1.7942e-18)
(1.0011 -0.0034418 -8.2641e-19)
(1.01 -0.0056193 -3.7251e-19)
(1.0194 0.0034253 3.6935e-19)
(1.0301 0.004018 9.5948e-20)
(1.0342 0.011392 -1.2154e-19)
(0.99632 -0.00022882 4.405e-20)
(0.99683 -0.0027969 5.2834e-20)
(0.997 -0.0036646 -4.6681e-19)
(1.0026 -0.0060833 9.4866e-19)
(0.99069 -0.0067777 -3.5009e-18)
(1.0181 -0.0054688 3.8969e-18)
(1.0053 -0.0099155 -2.0298e-18)
(1.0015 -0.0038241 1.0419e-18)
(1.0097 -0.0059788 9.1411e-19)
(1.019 0.0029484 -6.2034e-19)
(1.03 0.0036112 5.7281e-19)
(1.0344 0.010849 1.0288e-19)
(0.99619 -0.00023732 -6.9796e-21)
(0.99672 -0.0028573 -1.5142e-19)
(0.99685 -0.0037561 4.1202e-19)
(1.0027 -0.0062085 -3.2734e-18)
(0.99044 -0.0070097 2.5381e-18)
(1.0177 -0.0055906 -1.8051e-18)
(1.0062 -0.010145 -1.2908e-18)
(1.002 -0.0042078 6.2825e-19)
(1.0095 -0.0063476 -2.1593e-19)
(1.0186 0.0024587 -6.9443e-20)
(1.0298 0.0031885 -4.317e-19)
(1.0345 0.010296 1.9819e-19)
(0.99606 -0.00024614 -2.4749e-20)
(0.99661 -0.0029183 7.8008e-19)
(0.99669 -0.0038498 -2.6144e-18)
(1.0028 -0.0063341 2.8911e-18)
(0.9902 -0.0072479 1.772e-19)
(1.0172 -0.0057172 8.2355e-19)
(1.0071 -0.010373 -9.4126e-20)
(1.0025 -0.0045922 -1.037e-18)
(1.0094 -0.0067248 -1.5443e-19)
(1.0183 0.0019568 2.1056e-19)
(1.0296 0.0027504 1.8715e-18)
(1.0346 0.0097345 -2.0557e-19)
(0.99593 -0.00025527 3.5804e-19)
(0.99649 -0.0029802 -2.6115e-19)
(0.99653 -0.0039455 1.3939e-18)
(1.0029 -0.0064603 -6.2326e-19)
(0.98998 -0.0074923 -1.362e-18)
(1.0168 -0.005849 -3.3233e-18)
(1.008 -0.010598 7.2753e-19)
(1.0031 -0.0049767 9.7774e-19)
(1.0093 -0.0071095 -4.7146e-19)
(1.018 0.0014437 5.1782e-20)
(1.0295 0.0022975 -7.7734e-19)
(1.0346 0.009164 -1.0178e-19)
(0.9958 -0.00026472 -5.4795e-19)
(0.99638 -0.0030427 -2.5306e-19)
(0.99636 -0.0040436 -2.4028e-19)
(1.003 -0.0065868 4.7126e-19)