1.275 	2.15223e-18 	-2.76991e-20 	-0.0342493 	-0.000450961 	-1.96235e-22
1.825 	2.15223e-18 	-1.39322e-20 	-0.00907769 	-0.00277205 	1.75504e-21
2.375 	2.15223e-18 	-2.66896e-23 	0.116409 	-0.00324815 	-7.32628e-22
