/*--------------------------------*- C++ -*----------------------------------*\
  =========                 |
  \\      /  F ield         | OpenFOAM: The Open Source CFD Toolbox
   \\    /   O peration     | Website:  https://openfoam.org
    \\  /    A nd           | Version:  6.0
     \\/     M anipulation  |
\*---------------------------------------------------------------------------*/
FoamFile
{
    version     2.0;
    format      ascii;
    class       volScalarField;
    location    "16";
    object      p;
}
// * * * * * * * * * * * * * * * * * * * * * * * * * * * * * * * * * * * * * //

dimensions      [0 2 -2 0 0 0 0];

internalField   nonuniform List<scalar> 
62000
(
0.0174873
0.0174903
0.0174873
0.017486
0.017491
0.0175038
0.0175233
0.0175455
0.0175641
0.0175711
0.0175579
0.0175155
0.0174361
0.0173129
0.0171415
0.0169197
0.0166475
0.016327
0.0159624
0.0155589
0.015123
0.0146613
0.0141808
0.0136882
0.0131898
0.0126915
0.0121988
0.0117166
0.0112495
0.0108014
0.010376
0.00997629
0.00960479
0.00926341
0.00895337
0.00867521
0.0084287
0.00821297
0.00802644
0.00786699
0.00773206
0.00761869
0.00752381
0.00744419
0.00737682
0.00731883
0.00726771
0.00722146
0.00717847
0.00713794
0.00709969
0.00706435
0.00703383
0.00701103
0.0070021
0.0070142
0.00707662
0.00721218
0.0077989
0.00965478
0.0174957
0.0174994
0.0175048
0.017518
0.0175431
0.0175817
0.0176322
0.0176906
0.0177503
0.0178031
0.0178397
0.0178505
0.0178266
0.0177605
0.0176463
0.0174806
0.017262
0.0169914
0.0166716
0.016307
0.0159028
0.0154651
0.015
0.0145138
0.0140124
0.0135015
0.0129863
0.0124717
0.0119625
0.0114628
0.0109766
0.0105076
0.0100589
0.00963307
0.00923231
0.00885796
0.00851072
0.00819049
0.00789647
0.00762712
0.00738033
0.00715341
0.00694334
0.0067468
0.00656041
0.00638081
0.00620481
0.00602951
0.00585236
0.00567133
0.00548495
0.00529242
0.00509403
0.00489131
0.00468877
0.00449484
0.0043327
0.00424689
0.00424026
0.00396629
0.0175084
0.0175003
0.0174941
0.0174942
0.0175049
0.0175279
0.0175624
0.0176048
0.0176493
0.0176882
0.0177129
0.0177141
0.0176833
0.0176129
0.0174971
0.0173321
0.0171161
0.0168498
0.0165354
0.0161767
0.0157786
0.0153464
0.014886
0.0144029
0.0139027
0.0133903
0.0128704
0.0123475
0.0118255
0.0113082
0.0107993
0.0103022
0.00981999
0.00935558
0.00891156
0.00848992
0.00809237
0.00771987
0.00737295
0.00705148
0.0067548
0.00648185
0.00623104
0.00600075
0.005789
0.00559398
0.005414
0.00524757
0.00509386
0.0049524
0.00482365
0.00470916
0.00461189
0.00453705
0.0044932
0.00449335
0.00455998
0.00471294
0.00499326
0.00551963
0.017526
0.0175027
0.0174832
0.0174696
0.0174661
0.0174751
0.0174966
0.0175278
0.0175635
0.0175969
0.0176201
0.0176246
0.0176023
0.0175457
0.0174492
0.0173091
0.0171233
0.0168921
0.0166176
0.0163031
0.0159532
0.0155729
0.0151674
0.0147419
0.0143012
0.0138498
0.0133916
0.01293
0.0124682
0.012009
0.011555
0.0111088
0.0106727
0.0102488
0.00983937
0.00944607
0.0090705
0.00871382
0.00837684
0.00805993
0.00776304
0.00748575
0.00722723
0.00698644
0.0067621
0.00655283
0.00635727
0.0061741
0.00600217
0.00584055
0.00568863
0.00554632
0.00541414
0.00529344
0.00518687
0.00509816
0.00503266
0.00499487
0.00498143
0.0049638
0.0175488
0.017508
0.0174737
0.0174452
0.0174265
0.0174205
0.0174274
0.0174448
0.0174682
0.0174913
0.0175068
0.0175064
0.0174825
0.0174279
0.0173368
0.0172054
0.0170316
0.0168155
0.0165589
0.016265
0.0159382
0.0155835
0.0152059
0.0148107
0.0144026
0.0139856
0.0135635
0.0131392
0.0127154
0.0122941
0.0118771
0.0114661
0.0110625
0.0106677
0.0102827
0.00990893
0.00954709
0.009198
0.00886216
0.0085398
0.00823089
0.00793509
0.00765185
0.00738036
0.00711966
0.00686872
0.00662645
0.00639181
0.00616379
0.0059416
0.00572468
0.00551289
0.00530668
0.00510724
0.00491676
0.00473887
0.00457736
0.00443824
0.00431025
0.00416946
0.0175763
0.0175117
0.0174538
0.0173997
0.0173527
0.017316
0.0172901
0.017273
0.0172607
0.0172476
0.0172267
0.0171905
0.0171314
0.0170426
0.0169184
0.016755
0.0165502
0.0163041
0.0160185
0.0156967
0.0153432
0.0149632
0.0145625
0.0141465
0.0137204
0.013289
0.0128562
0.0124254
0.0119994
0.0115802
0.0111695
0.0107685
0.0103783
0.00999962
0.00963304
0.00927903
0.00893792
0.00860983
0.0082948
0.00799263
0.00770294
0.00742522
0.0071587
0.00690262
0.00665596
0.00641779
0.00618712
0.00596301
0.00574467
0.00553136
0.00532266
0.00511846
0.0049191
0.00472542
0.00453859
0.00436056
0.00419152
0.00403089
0.00386934
0.00370373
0.0176068
0.0175123
0.0174236
0.0173358
0.017252
0.017176
0.0171087
0.0170488
0.0169931
0.0169367
0.0168733
0.0167959
0.0166973
0.016571
0.0164112
0.0162141
0.0159773
0.0157007
0.0153859
0.0150361
0.0146558
0.0142505
0.0138262
0.0133889
0.0129445
0.0124982
0.0120549
0.0116184
0.0111919
0.0107779
0.0103782
0.00999396
0.00962612
0.00927488
0.00894048
0.0086225
0.00832072
0.0080343
0.00776254
0.00750434
0.0072585
0.00702376
0.00679846
0.00658124
0.00637026
0.00616391
0.00596054
0.00575847
0.00555621
0.00535225
0.00514533
0.00493439
0.00471862
0.00449745
0.00427019
0.0040364
0.00379359
0.00353762
0.00325956
0.00294954
0.0176385
0.017511
0.0173914
0.017273
0.0171588
0.0170531
0.0169577
0.016872
0.0167934
0.0167178
0.0166394
0.0165517
0.0164475
0.0163201
0.0161638
0.0159738
0.0157472
0.0154832
0.0151824
0.0148474
0.0144821
0.0140915
0.0136814
0.0132575
0.0128261
0.0123926
0.0119621
0.0115388
0.0111263
0.0107273
0.0103439
0.00997712
0.00962782
0.00929585
0.00898108
0.00868243
0.00839907
0.00812934
0.00787175
0.00762438
0.00738518
0.00715212
0.0069228
0.00669513
0.00646672
0.00623544
0.00599924
0.00575622
0.00550476
0.00524345
0.00497127
0.00468767
0.00439263
0.00408657
0.00377016
0.00344467
0.00310992
0.00276495
0.00239899
0.00200533
0.0176669
0.01751
0.017365
0.0172263
0.0170965
0.0169801
0.0168795
0.0167945
0.016723
0.0166609
0.016603
0.0165424
0.016472
0.0163844
0.0162731
0.0161324
0.0159582
0.0157481
0.0155015
0.0152196
0.0149049
0.0145613
0.0141936
0.0138069
0.0134069
0.0129988
0.0125876
0.0121776
0.0117726
0.0113754
0.0109884
0.0106127
0.0102493
0.00989811
0.00955899
0.00923083
0.00891257
0.00860251
0.00829894
0.00799989
0.00770325
0.00740696
0.00710887
0.00680704
0.00649959
0.00618498
0.00586196
0.00552973
0.00518785
0.00483646
0.00447631
0.00410876
0.00373596
0.00336055
0.00298544
0.00261388
0.00224737
0.00188591
0.00151543
0.00113358
0.0176906
0.0175075
0.0173426
0.0171923
0.0170581
0.0169444
0.0168534
0.0167848
0.0167362
0.0167038
0.016682
0.0166639
0.0166418
0.0166077
0.016554
0.0164742
0.0163626
0.0162152
0.0160301
0.0158065
0.0155456
0.0152497
0.0149223
0.0145677
0.0141905
0.0137957
0.0133879
0.0129714
0.0125501
0.0121273
0.0117055
0.0112867
0.0108722
0.0104626
0.0100583
0.00965882
0.00926369
0.00887195
0.00848255
0.00809428
0.00770588
0.00731618
0.00692409
0.00652873
0.00612946
0.00572608
0.00531878
0.00490825
0.00449565
0.00408264
0.00367148
0.00326485
0.0028659
0.00247791
0.00210374
0.00174588
0.00140418
0.00107684
0.000746188
0.000418111
0.017706
0.0175006
0.0173169
0.0171564
0.0170185
0.016907
0.0168234
0.0167665
0.0167339
0.0167215
0.0167234
0.0167329
0.0167419
0.0167421
0.0167253
0.0166843
0.0166124
0.0165043
0.0163568
0.0161678
0.0159371
0.0156656
0.0153557
0.0150106
0.0146344
0.0142314
0.0138061
0.0133628
0.0129057
0.0124384
0.0119642
0.0114858
0.0110053
0.0105243
0.0100442
0.00956561
0.00908907
0.00861475
0.00814274
0.00767297
0.00720536
0.0067399
0.00627667
0.00581601
0.00535838
0.00490467
0.00445606
0.00401409
0.00358063
0.00315772
0.00274773
0.00235303
0.00197593
0.00161843
0.00128147
0.000965209
0.000667041
0.00038337
9.70807e-05
-0.00018001
0.0177109
0.0174826
0.0172767
0.0170995
0.0169483
0.0168259
0.0167326
0.0166665
0.0166248
0.0166035
0.0165972
0.0165993
0.0166024
0.0165981
0.0165785
0.0165364
0.0164647
0.0163576
0.0162112
0.0160224
0.0157904
0.015515
0.0151975
0.0148407
0.0144479
0.0140231
0.0135704
0.0130944
0.0125994
0.0120895
0.0115686
0.01104
0.0105067
0.00997137
0.00943615
0.00890278
0.00837282
0.00784742
0.00732766
0.00681441
0.00630848
0.00581069
0.0053218
0.00484282
0.00437462
0.00391844
0.00347555
0.00304733
0.00263534
0.00224087
0.00186532
0.00150975
0.00117482
0.000860704
0.000566369
0.000290178
2.81971e-05
-0.000222882
-0.000477844
-0.000718186
0.0176998
0.0174491
0.0172145
0.0170095
0.0168298
0.0166769
0.01655
0.0164465
0.0163641
0.016299
0.0162469
0.0162023
0.0161588
0.0161091
0.0160459
0.015963
0.0158538
0.0157123
0.0155348
0.015318
0.0150603
0.0147612
0.0144213
0.0140429
0.0136286
0.0131821
0.0127075
0.0122089
0.0116907
0.0111574
0.0106129
0.0100612
0.00950575
0.00894959
0.00839566
0.00784616
0.00730337
0.00676886
0.0062443
0.00573093
0.00522989
0.00474225
0.0042688
0.00381062
0.00336831
0.00294276
0.00253472
0.00214483
0.00177377
0.00142176
0.00108898
0.000775194
0.000479729
0.000201502
-6.15039e-05
-0.000311487
-0.000552135
-0.000785412
-0.00102223
-0.00124146
0.0176723
0.0173955
0.0171248
0.0168804
0.0166566
0.0164541
0.0162711
0.0161049
0.0159537
0.0158153
0.0156866
0.0155638
0.0154423
0.0153163
0.0151801
0.0150288
0.0148567
0.0146586
0.0144311
0.0141708
0.0138764
0.0135467
0.0131822
0.0127842
0.0123552
0.0118982
0.0114167
0.0109146
0.0103961
0.00986513
0.00932591
0.00878203
0.00823725
0.00769449
0.00715692
0.00662669
0.00610629
0.00559722
0.00510119
0.00461933
0.00415262
0.00370194
0.00326768
0.00285056
0.00245063
0.00206817
0.00170322
0.00135566
0.00102534
0.000711662
0.000413969
0.000131292
-0.000137628
-0.000394258
-0.000640634
-0.000878526
-0.00111063
-0.00133698
-0.00156574
-0.00177332
0.0176247
0.0173209
0.0170085
0.0167157
0.0164362
0.0161702
0.0159154
0.0156694
0.0154316
0.0152016
0.0149782
0.0147596
0.0145432
0.0143255
0.0141024
0.0138704
0.0136254
0.013363
0.0130802
0.0127742
0.0124435
0.0120867
0.0117039
0.0112959
0.0108644
0.0104116
0.00994065
0.00945449
0.00895679
0.00845091
0.00794057
0.00742885
0.00691918
0.00641403
0.00591635
0.00542785
0.00495081
0.00448632
0.00403578
0.00359995
0.00317941
0.0027746
0.00238545
0.00201223
0.00165444
0.00131187
0.000984043
0.000670339
0.000370177
8.25826e-05
-0.000193372
-0.000458794
-0.000714889
-0.000962887
-0.00120428
-0.00144001
-0.00167153
-0.00189744
-0.00212337
-0.00232628
0.017558
0.0172245
0.0168674
0.0165216
0.0161805
0.0158448
0.0155115
0.015179
0.0148484
0.0145213
0.0141987
0.0138808
0.0135673
0.0132566
0.0129465
0.0126351
0.0123195
0.0119964
0.0116634
0.0113178
0.0109582
0.0105829
0.0101916
0.0097843
0.00936215
0.00892635
0.00847917
0.00802267
0.00755971
0.00709275
0.0066248
0.00615814
0.00569561
0.00523897
0.00479068
0.00435182
0.00392426
0.00350855
0.00310568
0.00271595
0.00233951
0.00197645
0.00162632
0.00128904
0.000963833
0.000650218
0.000347524
5.49987e-05
-0.000228015
-0.000502435
-0.000769058
-0.00102873
-0.00128227
-0.00153038
-0.00177386
-0.00201279
-0.00224768
-0.00247594
-0.00270206
-0.00290299
0.0174718
0.0171096
0.0167078
0.0163088
0.0159063
0.0155014
0.0150913
0.0146748
0.0142552
0.0138362
0.0134207
0.0130109
0.0126086
0.012214
0.0118265
0.0114455
0.0110693
0.0106955
0.010322
0.00994648
0.00956725
0.0091824
0.00879128
0.00839281
0.00798761
0.00757584
0.00715886
0.00673772
0.00631435
0.00589026
0.0054676
0.00504779
0.00463296
0.00422411
0.00382313
0.00343047
0.00304755
0.00267442
0.00231168
0.0019593
0.00161713
0.00128503
0.000962367
0.000648926
0.000343892
4.67721e-05
-0.00024304
-0.000526149
-0.000803037
-0.00107433
-0.00134048
-0.00160193
-0.001859
-0.00211187
-0.00236071
-0.00260497
-0.00284441
-0.00307594
-0.003303
-0.00350429
0.0173714
0.0169784
0.0165341
0.0160856
0.0156264
0.0151586
0.0146793
0.0141882
0.0136904
0.0131915
0.0126963
0.0122087
0.011732
0.0112679
0.0108173
0.0103803
0.00995636
0.00954368
0.00914021
0.00874397
0.00835304
0.0079651
0.00757912
0.00719317
0.00680719
0.00642036
0.0060332
0.00564579
0.00525915
0.00487389
0.00449134
0.00411213
0.00373768
0.00336836
0.00300549
0.00264907
0.00230005
0.0019582
0.00162382
0.00129669
0.000976544
0.000663145
0.000355896
5.45948e-05
-0.000241422
-0.000532492
-0.000818998
-0.00110126
-0.00137948
-0.00165391
-0.00192464
-0.00219171
-0.002455
-0.00271428
-0.00296927
-0.00321898
-0.00346281
-0.00369732
-0.0039258
-0.00412768
0.0172563
0.0168362
0.0163533
0.0158612
0.0153531
0.0148319
0.0142945
0.0137416
0.0131797
0.0126163
0.0120575
0.0115084
0.0109735
0.0104558
0.00995686
0.00947765
0.00901805
0.0085769
0.00815216
0.00774189
0.00734401
0.00695582
0.00657591
0.00620164
0.00583233
0.00546636
0.00510349
0.00474298
0.00438509
0.00402965
0.00367732
0.00332806
0.00298274
0.00264122
0.00230439
0.00197192
0.00164446
0.0013216
0.00100351
0.000689895
0.0003805
7.51408e-05
-0.000226641
-0.000524927
-0.000820144
-0.0011124
-0.0014018
-0.00168836
-0.00197201
-0.00225265
-0.00253007
-0.002804
-0.00307401
-0.00333958
-0.00360016
-0.00385455
-0.00410195
-0.00433898
-0.00456851
-0.00477188
0.0171301
0.0166843
0.0161682
0.0156402
0.0150922
0.0145283
0.0139453
0.0133441
0.012733
0.0121205
0.011514
0.0109192
0.0103414
0.00978422
0.00924995
0.0087399
0.00825432
0.00779235
0.00735195
0.0069312
0.00652786
0.00613891
0.00576266
0.00539593
0.00503754
0.00468528
0.00433831
0.00399528
0.00365584
0.00331928
0.0029857
0.00265462
0.00232647
0.00200078
0.00167814
0.00135803
0.00104093
0.000726375
0.000414473
0.000104988
-0.000202261
-0.00050735
-0.00081054
-0.00111176
-0.00141119
-0.00170871
-0.00200418
-0.00229735
-0.00258793
-0.00287558
-0.00315985
-0.00344029
-0.00371627
-0.00398714
-0.00425219
-0.00451016
-0.00476023
-0.00499907
-0.00522969
-0.0054343
0.0169924
0.0165271
0.0159839
0.0154276
0.0148488
0.0142524
0.0136353
0.0129986
0.0123514
0.0117036
0.0110628
0.0104355
0.00982707
0.00924173
0.00868194
0.00814923
0.00764405
0.00716574
0.00671225
0.00628163
0.0058716
0.00547893
0.00510173
0.0047365
0.00438172
0.00403478
0.00369444
0.00335893
0.00302752
0.00269909
0.00237339
0.00204965
0.00172799
0.00140779
0.00108942
0.000772301
0.000456799
0.000142485
-0.000170524
-0.000482382
-0.000793158
-0.00110281
-0.00141141
-0.00171875
-0.0020248
-0.00232925
-0.00263179
-0.00293199
-0.00322938
-0.0035235
-0.00381377
-0.00409961
-0.00438033
-0.00465521
-0.00492353
-0.00518402
-0.00543592
-0.00567613
-0.00590748
-0.00611386
0.0168487
0.0163658
0.0158012
0.0152236
0.014622
0.0140021
0.0133607
0.0126989
0.0120265
0.011354
0.0106895
0.0100394
0.00940938
0.00880361
0.00822471
0.0076743
0.00715288
0.00665995
0.00619347
0.00575154
0.00533189
0.00493122
0.00454756
0.00417728
0.00381867
0.00346894
0.0031266
0.00278965
0.00245713
0.00212769
0.00180087
0.00147574
0.00115225
0.000829686
0.000508291
0.000187507
-0.00013237
-0.000451702
-0.000770345
-0.00108837
-0.00140573
-0.00172231
-0.00203802
-0.00235256
-0.00266575
-0.00297716
-0.00328637
-0.00359283
-0.00389602
-0.00419539
-0.00449031
-0.00478018
-0.00506427
-0.0053419
-0.00561236
-0.00587445
-0.00612755
-0.00636867
-0.00660081
-0.00680868
0.0166968
0.0162042
0.0156234
0.0150304
0.0144124
0.0137759
0.0131177
0.0124384
0.0117485
0.0110588
0.0103777
0.00971118
0.00906501
0.00844329
0.00784865
0.00728266
0.0067459
0.00623797
0.00575693
0.00530096
0.00486791
0.00445454
0.0040589
0.00367741
0.00330829
0.00294873
0.00259715
0.00225148
0.00191061
0.00157314
0.00123848
0.000905625
0.000574425
0.000244157
-8.50225e-05
-0.000413628
-0.000741416
-0.00106868
-0.00139525
-0.00172114
-0.00204625
-0.00237039
-0.00269337
-0.00301486
-0.00333459
-0.00365207
-0.00396684
-0.0042783
-0.00458591
-0.0048891
-0.00518726
-0.00547981
-0.00576605
-0.00604533
-0.00631702
-0.00658002
-0.0068338
-0.00707565
-0.00730837
-0.00751813
0.0165408
0.0160416
0.0154493
0.0148456
0.0142161
0.013568
0.0128979
0.0122062
0.0115037
0.0108015
0.0101076
0.00942817
0.00876856
0.00813276
0.00752332
0.00694186
0.00638896
0.00586437
0.0053663
0.00489308
0.00444277
0.00401231
0.00359985
0.00320199
0.00281699
0.00244215
0.00207588
0.00171615
0.00136182
0.00101148
0.000664492
0.000319854
-2.26572e-05
-0.000363741
-0.000703316
-0.00104185
-0.00137914
-0.00171544
-0.0020506
-0.00238459
-0.00271728
-0.00304847
-0.00337793
-0.00370534
-0.0040304
-0.0043526
-0.00467149
-0.00498647
-0.00529703
-0.00560264
-0.00590271
-0.00619672
-0.00648402
-0.00676404
-0.00703622
-0.00729959
-0.00755374
-0.00779605
-0.00802949
-0.00824089
0.0163819
0.0158815
0.0152813
0.0146701
0.0140324
0.0133755
0.0126964
0.0119949
0.011282
0.0105692
0.00986417
0.00917278
0.00850015
0.00785011
0.00722512
0.00662685
0.00605595
0.0055123
0.00499437
0.0045007
0.00402959
0.00357827
0.00314506
0.00272681
0.00232193
0.00192787
0.00154311
0.00116574
0.000794637
0.000428441
6.64876e-05
-0.000292194
-0.000647878
-0.00100124
-0.00135226
-0.00170139
-0.00204848
-0.00239378
-0.00273715
-0.00307859
-0.00341798
-0.00375515
-0.00408987
-0.00442185
-0.00475081
-0.00507628
-0.00539785
-0.00571493
-0.00602711
-0.00633388
-0.00663471
-0.00692917
-0.00721666
-0.00749671
-0.00776884
-0.0080322
-0.00828645
-0.00852922
-0.00876326
-0.00897663
0.0162272
0.0157237
0.0151177
0.0145011
0.0138568
0.0131925
0.0125054
0.011795
0.0110723
0.0103488
0.00963233
0.00892825
0.00824151
0.00757577
0.00693343
0.00631625
0.005725
0.00515972
0.0046192
0.00410222
0.0036074
0.0031323
0.00267543
0.002234
0.00180654
0.00139075
0.000985216
0.000588154
0.00019849
-0.000185058
-0.000563164
-0.000936766
-0.00130619
-0.00167208
-0.00203453
-0.00239394
-0.00275028
-0.00310379
-0.0034544
-0.00380216
-0.00414699
-0.00448877
-0.00482732
-0.00516242
-0.00549384
-0.00582116
-0.00614403
-0.00646193
-0.0067745
-0.00708132
-0.00738194
-0.00767598
-0.00796294
-0.00824243
-0.00851407
-0.00877711
-0.00903133
-0.00927443
-0.00950923
-0.00972433
0.016075
0.0155716
0.0149609
0.0143396
0.0136893
0.0130176
0.0123221
0.0116019
0.0108683
0.0101329
0.00940324
0.00868455
0.00798158
0.00729783
0.00663571
0.00599713
0.00538299
0.00479355
0.00422795
0.00368525
0.00316441
0.00266334
0.00218079
0.00171431
0.00126262
0.000823657
0.000396129
-2.16076e-05
-0.000430566
-0.000831957
-0.00122646
-0.00161499
-0.00199792
-0.00237592
-0.00274914
-0.00311802
-0.00348263
-0.00384325
-0.0041999
-0.00455269
-0.00490161
-0.00524664
-0.00558765
-0.00592451
-0.00625706
-0.00658496
-0.00690793
-0.00722552
-0.00753747
-0.00784342
-0.00814301
-0.00843594
-0.0087218
-0.00900028
-0.00927111
-0.00953362
-0.00978769
-0.0100312
-0.0102667
-0.0104838
0.0159277
0.015423
0.0148086
0.0141829
0.0135264
0.0128463
0.0121409
0.0114093
0.0106629
0.00991337
0.00916815
0.0084323
0.00771044
0.00700605
0.00632151
0.00565898
0.00501955
0.00440368
0.00381091
0.0032406
0.00269205
0.00216355
0.00165407
0.00116151
0.00068478
0.000222053
-0.00022785
-0.000666429
-0.00109465
-0.00151366
-0.00192415
-0.00232703
-0.00272274
-0.00311197
-0.00349497
-0.00387223
-0.00424393
-0.00461041
-0.0049718
-0.00532829
-0.00567998
-0.00602694
-0.00636911
-0.00670647
-0.00703895
-0.00736628
-0.00768829
-0.00800459
-0.00831501
-0.00861929
-0.00891713
-0.00920834
-0.0094926
-0.00976967
-0.0100394
-0.0103012
-0.0105551
-0.0107989
-0.0110353
-0.0112543
0.0157825
0.0152801
0.014663
0.0140327
0.013369
0.0126788
0.0119615
0.0112162
0.0104543
0.00968783
0.00892416
0.00816819
0.00742453
0.00669665
0.00598703
0.00529805
0.00463106
0.00398673
0.00336504
0.00276561
0.00218811
0.00163118
0.00109401
0.00057486
7.2784e-05
-0.000413808
-0.000885995
-0.00134516
-0.00179221
-0.00222827
-0.00265405
-0.00307046
-0.00347804
-0.00387748
-0.00426919
-0.00465369
-0.0050313
-0.00540244
-0.00576736
-0.00612635
-0.0064796
-0.00682731
-0.00716951
-0.00750629
-0.00783766
-0.00816346
-0.00848359
-0.00879777
-0.0091059
-0.00940782
-0.00970332
-0.0099923
-0.0102745
-0.0105499
-0.0108182
-0.0110792
-0.0113328
-0.0115771
-0.0118144
-0.0120355
0.0156425
0.0151412
0.0145222
0.0138866
0.0132143
0.0125121
0.0117806
0.0110188
0.0102387
0.00945233
0.00866717
0.00788807
0.0071197
0.0063656
0.00562834
0.00491063
0.00421407
0.00353959
0.00288754
0.00225788
0.00165058
0.00106465
0.000499461
-4.63912e-05
-0.000573719
-0.00108391
-0.00157795
-0.00205712
-0.00252232
-0.00297463
-0.00341481
-0.0038438
-0.00426221
-0.00467081
-0.00507012
-0.00546073
-0.00584311
-0.00621777
-0.00658508
-0.00694544
-0.00729917
-0.00764657
-0.00798777
-0.00832297
-0.00865231
-0.00897569
-0.00929312
-0.00960441
-0.00990955
-0.0102085
-0.0105011
-0.0107873
-0.0110671
-0.0113404
-0.0116072
-0.0118672
-0.0121205
-0.0123652
-0.0126036
-0.0128267
0.0155028
0.0150087
0.0143886
0.0137468
0.0130643
0.0123478
0.0115995
0.0108185
0.0100171
0.00920777
0.00839803
0.00759279
0.00679683
0.00601383
0.00524652
0.00449793
0.00376998
0.0030638
0.00238018
0.00171936
0.00108161
0.000466294
-0.000127076
-0.000699591
-0.00125195
-0.00178535
-0.00230072
-0.00279928
-0.0032819
-0.00374967
-0.00420338
-0.00464403
-0.00507232
-0.0054891
-0.00589501
-0.00629074
-0.00667687
-0.00705405
-0.00742276
-0.00778353
-0.00813678
-0.00848295
-0.00882227
-0.00915506
-0.00948155
-0.00980175
-0.0101158
-0.0104235
-0.010725
-0.0110204
-0.0113096
-0.0115927
-0.0118697
-0.0121406
-0.0124056
-0.0126645
-0.0129174
-0.0131626
-0.0134021
-0.0136278
0.015366
0.0148798
0.0142598
0.013611
0.0129168
0.012184
0.0114162
0.0106132
0.00978762
0.0089524
0.00811514
0.00728089
0.00645465
0.00564028
0.0048407
0.00405932
0.00329836
0.00255918
0.00184299
0.00115029
0.000481636
-0.000163285
-0.000784833
-0.00138382
-0.00196085
-0.00251698
-0.0030531
-0.00357035
-0.00406963
-0.00455203
-0.00501841
-0.00546983
-0.00590708
-0.00633111
-0.00674269
-0.00714259
-0.00753155
-0.00791033
-0.00827953
-0.00863982
-0.00899173
-0.00933582
-0.00967245
-0.010002
-0.0103249
-0.0106412
-0.0109511
-0.0112547
-0.011552
-0.0118433
-0.0121285
-0.012408
-0.0126817
-0.0129499
-0.0132129
-0.0134705
-0.013723
-0.0139687
-0.0142096
-0.0144376
0.0152326
0.014758
0.0141387
0.013482
0.0127745
0.012023
0.0112332
0.0104054
0.00955285
0.00868881
0.00782116
0.00695515
0.00609603
0.00524793
0.00441398
0.00359797
0.00280247
0.00202906
0.00127934
0.000554075
-0.000145913
-0.000820657
-0.0014704
-0.00209571
-0.00269712
-0.00327557
-0.00383191
-0.00436726
-0.00488255
-0.00537888
-0.0058572
-0.00631862
-0.00676406
-0.00719454
-0.00761098
-0.00801426
-0.00840525
-0.00878484
-0.00915375
-0.00951278
-0.0098626
-0.0102039
-0.0105371
-0.0108628
-0.0111814
-0.0114931
-0.0117983
-0.0120971
-0.0123896
-0.0126763
-0.0129571
-0.0132325
-0.0135026
-0.0137678
-0.0140284
-0.0142845
-0.0145365
-0.0147827
-0.0150251
-0.0152561
0.0151098
0.0146427
0.0140237
0.013358
0.0126355
0.0118634
0.0110491
0.010194
0.00931168
0.00841609
0.00751538
0.00661504
0.00572065
0.00483664
0.00396638
0.00311408
0.00228266
0.0014739
0.000689809
-6.86085e-05
-0.000800299
-0.00150502
-0.00218293
-0.00283439
-0.00345988
-0.00406022
-0.00463629
-0.00518916
-0.00571983
-0.00622942
-0.00671897
-0.00718966
-0.00764255
-0.00807875
-0.00849929
-0.0089052
-0.00929747
-0.00967713
-0.010045
-0.0104021
-0.0107491
-0.0110868
-0.0114159
-0.011737
-0.0120507
-0.0123573
-0.0126571
-0.0129505
-0.0132377
-0.0135191
-0.013795
-0.0140659
-0.014332
-0.0145937
-0.0148516
-0.0151059
-0.0153572
-0.0156039
-0.015848
-0.0160819
0.0149965
0.0145382
0.0139185
0.0132424
0.0125032
0.0117082
0.0108671
0.00998196
0.00906727
0.00813749
0.00720111
0.00626395
0.00533197
0.00440992
0.00350146
0.00261123
0.0017425
0.000897278
7.79324e-05
-0.000714291
-0.00147812
-0.00221307
-0.00291923
-0.00359677
-0.00424614
-0.0048681
-0.00546351
-0.00603347
-0.00657902
-0.00710133
-0.00760154
-0.00808093
-0.00854065
-0.00898193
-0.00940595
-0.00981385
-0.0102068
-0.0105858
-0.010952
-0.0113065
-0.01165
-0.0119836
-0.012308
-0.0126238
-0.012932
-0.0132327
-0.0135267
-0.0138141
-0.0140954
-0.0143711
-0.0146416
-0.0149074
-0.0151689
-0.0154267
-0.0156816
-0.0159338
-0.016184
-0.0164311
-0.0166768
-0.0169142
0.0148953
0.0144426
0.0138216
0.0131338
0.0123762
0.0115562
0.0106858
0.00976818
0.00881863
0.00785216
0.00687768
0.00590138
0.00492962
0.00396756
0.00301914
0.00208944
0.00118211
0.000299365
-0.000556058
-0.00138269
-0.00217907
-0.00294448
-0.00367895
-0.00438252
-0.00505559
-0.00569887
-0.00631327
-0.00689989
-0.00745984
-0.00799436
-0.00850468
-0.00899218
-0.00945813
-0.0099039
-0.0103308
-0.01074
-0.0111329
-0.0115108
-0.0118747
-0.0122258
-0.0125653
-0.0128941
-0.013213
-0.0135231
-0.013825
-0.0141194
-0.0144068
-0.0146877
-0.0149625
-0.015232
-0.0154965
-0.0157567
-0.0160132
-0.0162666
-0.0165178
-0.0167674
-0.0170162
-0.0172632
-0.0175105
-0.0177514
0.0148042
0.0143596
0.013737
0.0130361
0.012258
0.0114107
0.0105085
0.009556
0.00856908
0.00756346
0.00654849
0.00553074
0.00451704
0.00351299
0.00252284
0.00155211
0.000604832
-0.000316552
-0.00120896
-0.00207071
-0.00290015
-0.00369636
-0.00445934
-0.00518899
-0.0058857
-0.00655016
-0.00718331
-0.0077863
-0.00836028
-0.00890661
-0.0094266
-0.00992174
-0.0103934
-0.0108432
-0.0112724
-0.0116824
-0.0120748
-0.0124508
-0.0128118
-0.0131591
-0.0134939
-0.0138173
-0.0141303
-0.0144339
-0.0147291
-0.0150165
-0.0152968
-0.0155705
-0.0158383
-0.0161009
-0.0163589
-0.016613
-0.0168639
-0.0171124
-0.0173595
-0.0176059
-0.0178526
-0.018099
-0.0183472
-0.0185911
0.0147267
0.0142882
0.0136635
0.0129479
0.0121472
0.0112702
0.010334
0.00934412
0.00831745
0.00727033
0.00621257
0.00515119
0.00409352
0.0030456
0.00201202
0.000998775
1.02853e-05
-0.000950804
-0.00188106
-0.00277859
-0.00364158
-0.00446892
-0.00526058
-0.00601636
-0.00673664
-0.00742212
-0.00807377
-0.00869281
-0.00928047
-0.00983818
-0.0103674
-0.0108697
-0.0113466
-0.0117998
-0.0122307
-0.0126411
-0.0130323
-0.0134059
-0.0137635
-0.0141063
-0.0144357
-0.0147531
-0.0150596
-0.0153561
-0.015644
-0.0159237
-0.0161963
-0.0164623
-0.0167225
-0.0169777
-0.0172286
-0.017476
-0.0177207
-0.0179636
-0.0182059
-0.0184484
-0.0186923
-0.0189371
-0.0191852
-0.0194321
0.0146584
0.0142325
0.0136054
0.0128731
0.0120474
0.0111384
0.0101656
0.0091359
0.00806705
0.00697606
0.00587322
0.00476601
0.0036623
0.0025686
0.00148986
0.000432551
-0.000598506
-0.00160045
-0.0025695
-0.00350359
-0.00440072
-0.00525963
-0.00608026
-0.00686232
-0.00760623
-0.00831267
-0.00898269
-0.00961757
-0.0102186
-0.0107874
-0.0113255
-0.0118345
-0.0123162
-0.0127724
-0.0132047
-0.0136147
-0.0140043
-0.014375
-0.0147285
-0.0150663
-0.0153899
-0.0157008
-0.016
-0.016289
-0.0165688
-0.0168404
-0.0171047
-0.0173625
-0.0176144
-0.0178616
-0.0181048
-0.0183449
-0.0185828
-0.0188195
-0.0190562
-0.019294
-0.0195341
-0.0197763
-0.0200233
-0.0202697
0.0146039
0.0141908
0.0135609
0.0128099
0.0119568
0.0110134
0.0100016
0.00892973
0.00781638
0.00667924
0.00552913
0.00437399
0.00322225
0.00208095
0.000955387
-0.000147464
-0.00122237
-0.00226626
-0.00327502
-0.00424639
-0.00517821
-0.00606908
-0.00691893
-0.00772741
-0.00849494
-0.00922226
-0.00991046
-0.0105609
-0.0111751
-0.0117546
-0.0123011
-0.0128165
-0.0133025
-0.0137611
-0.0141942
-0.0146035
-0.0149908
-0.0153581
-0.015707
-0.0160392
-0.0163564
-0.01666
-0.0169515
-0.0172322
-0.0175036
-0.0177664
-0.0180218
-0.0182706
-0.0185137
-0.0187524
-0.0189872
-0.0192194
-0.0194498
-0.0196795
-0.01991
-0.0201422
-0.0203774
-0.0206155
-0.020859
-0.0211038
0.0145655
0.0141685
0.0135344
0.0127621
0.011879
0.0108987
0.00984545
0.00872894
0.0075687
0.0063831
0.00518347
0.00397824
0.00277646
0.00158566
0.000411557
-0.000738383
-0.00185851
-0.00294552
-0.00399498
-0.00500446
-0.00597162
-0.00689495
-0.00777437
-0.00860948
-0.00940075
-0.0101489
-0.0108553
-0.0115212
-0.0121482
-0.0127381
-0.0132927
-0.0138141
-0.014304
-0.0147647
-0.0151981
-0.0156062
-0.0159908
-0.0163541
-0.0166979
-0.0170239
-0.0173341
-0.01763
-0.0179132
-0.0181851
-0.0184473
-0.0187007
-0.0189467
-0.019186
-0.0194197
-0.0196492
-0.0198751
-0.0200987
-0.020321
-0.0205431
-0.0207664
-0.020992
-0.0212212
-0.0214538
-0.0216922
-0.0219313
0.0145546
0.0141669
0.0135244
0.0127275
0.0118118
0.0107921
0.00969509
0.00853159
0.00732218
0.00608591
0.00483461
0.00357724
0.00232345
0.00108137
-0.00014293
-0.00134144
-0.00250808
-0.00363933
-0.00473043
-0.00577876
-0.00678186
-0.00773807
-0.00864734
-0.00950925
-0.0103243
-0.0110933
-0.0118176
-0.0124987
-0.0131383
-0.0137383
-0.0143007
-0.0148276
-0.015321
-0.0157833
-0.0162165
-0.0166228
-0.0170042
-0.017363
-0.017701
-0.0180204
-0.018323
-0.0186106
-0.0188848
-0.0191473
-0.0193998
-0.0196432
-0.0198791
-0.0201084
-0.0203321
-0.0205517
-0.0207681
-0.0209825
-0.021196
-0.0214097
-0.0216251
-0.0218432
-0.0220652
-0.0222909
-0.0225219
-0.0227541
0.0145768
0.0141926
0.0135347
0.0127094
0.0117585
0.0106972
0.00955385
0.00834096
0.00708005
0.00579082
0.00448565
0.00317402
0.00186623
0.000570969
-0.000705239
-0.00195387
-0.00316841
-0.00434508
-0.00547884
-0.00656687
-0.00760657
-0.0085962
-0.0095357
-0.0104246
-0.0112636
-0.0120535
-0.0127956
-0.0134918
-0.0141438
-0.0147536
-0.0153234
-0.0158555
-0.016352
-0.0168155
-0.0172481
-0.0176521
-0.0180298
-0.0183836
-0.0187154
-0.0190276
-0.019322
-0.0196007
-0.0198655
-0.020118
-0.0203602
-0.0205931
-0.0208183
-0.0210369
-0.0212501
-0.0214593
-0.0216655
-0.0218701
-0.0220742
-0.0222788
-0.0224855
-0.0226951
-0.0229089
-0.0231262
-0.0233488
-0.0235712
0.0146458
0.0142423
0.0135614
0.0127049
0.0117167
0.0106112
0.0094193
0.00815477
0.00684016
0.00549584
0.00413469
0.00276677
0.00140306
5.28444e-05
-0.00127691
-0.00257715
-0.00384087
-0.00506408
-0.00624143
-0.00736992
-0.00844681
-0.00947029
-0.0104403
-0.0113564
-0.0122193
-0.01303
-0.0137899
-0.0145009
-0.015165
-0.0157843
-0.0163611
-0.016898
-0.0173972
-0.0178614
-0.0182928
-0.0186942
-0.0190676
-0.0194159
-0.0197409
-0.0200453
-0.020331
-0.0206003
-0.020855
-0.021097
-0.0213282
-0.02155
-0.021764
-0.0219713
-0.0221733
-0.0223716
-0.022567
-0.0227612
-0.0229551
-0.02315
-0.0233472
-0.0235476
-0.0237521
-0.0239602
-0.0241726
-0.0243852
0.0147596
0.0143157
0.0136065
0.0127171
0.0116895
0.0105377
0.00929473
0.00797627
0.00660573
0.0052041
0.00378482
0.00235852
0.00093689
-0.000470142
-0.00185516
-0.00320853
-0.00452282
-0.00579376
-0.0070157
-0.00818549
-0.00930024
-0.0103581
-0.011359
-0.0123025
-0.0131895
-0.0140209
-0.0147985
-0.0155242
-0.0162002
-0.0168288
-0.0174123
-0.0179536
-0.0184551
-0.0189195
-0.0193495
-0.0197476
-0.0201164
-0.0204586
-0.0207764
-0.0210724
-0.021349
-0.0216083
-0.0218524
-0.0220832
-0.022303
-0.0225131
-0.0227153
-0.0229108
-0.0231011
-0.0232878
-0.023472
-0.0236551
-0.0238383