/*--------------------------------*- C++ -*----------------------------------*\
  =========                 |
  \\      /  F ield         | OpenFOAM: The Open Source CFD Toolbox
   \\    /   O peration     | Website:  https://openfoam.org
    \\  /    A nd           | Version:  6.0
     \\/     M anipulation  |
\*---------------------------------------------------------------------------*/
FoamFile
{
    version     2.0;
    format      ascii;
    class       volScalarField;
    location    "16";
    object      p;
}
// * * * * * * * * * * * * * * * * * * * * * * * * * * * * * * * * * * * * * //

dimensions      [0 2 -2 0 0 0 0];

internalField   nonuniform List<scalar> 
47000
(
0.0130909
0.0133242
0.0134563
0.0134102
0.0131055
0.0125099
0.0116549
0.0106245
0.00953393
0.0084794
0.00753751
0.00672898
0.0060637
0.0055126
0.00506617
0.00469261
0.00438947
0.00413504
0.00392892
0.00375219
0.00360206
0.00346345
0.0033337
0.00320326
0.00307446
0.00294266
0.00282978
0.00268038
0.00277737
0.00379222
0.0130942
0.0133545
0.0135423
0.0135768
0.01337
0.0128782
0.0121197
0.0111677
0.0101313
0.00910677
0.00817466
0.00736067
0.0066801
0.00610588
0.00563178
0.00522538
0.00488779
0.00459674
0.00435587
0.00414467
0.00396271
0.00379168
0.00362915
0.00346106
0.00328943
0.00310538
0.00293702
0.00275279
0.00284695
0.00325982
0.0130993
0.0133705
0.0135856
0.0136634
0.013513
0.013083
0.0123814
0.0114712
0.0104549
0.00942705
0.00847164
0.00761926
0.00689081
0.00626207
0.00572947
0.00526067
0.00485942
0.00450486
0.00420563
0.00394399
0.0037249
0.00353228
0.00336762
0.00321765
0.00308697
0.0029697
0.00289836
0.00286474
0.0030912
0.00366632
0.0131073
0.0133904
0.0136381
0.0137702
0.0136942
0.0133523
0.0127428
0.0119177
0.0109721
0.00999777
0.00908104
0.00825721
0.00755198
0.0069435
0.00642886
0.0059737
0.00558109
0.00522892
0.00492797
0.00466165
0.0044391
0.00424631
0.00408846
0.00395288
0.00384527
0.00375936
0.00372362
0.0037249
0.00392707
0.00442862
0.0131198
0.0134127
0.0136956
0.0138867
0.0138925
0.0136499
0.0131472
0.0124256
0.0115715
0.0106732
0.00981902
0.00904905
0.0083947
0.0078367
0.00737289
0.00696557
0.00661489
0.00629442
0.0060135
0.00575369
0.00552545
0.00531521
0.00513033
0.00495845
0.00480586
0.00466572
0.00456188
0.00448001
0.00454392
0.0048144
0.0131319
0.0134258
0.0137301
0.0139617
0.0140266
0.0138579
0.0134344
0.0127865
0.0119916
0.0111344
0.0103052
0.0095504
0.00890893
0.00836739
0.00792639
0.00754726
0.00722737
0.00693574
0.00667841
0.00643344
0.00621048
0.00599505
0.00579575
0.00560072
0.00541787
0.00524231
0.00509661
0.00497133
0.00496155
0.00512873
0.0131402
0.013428
0.0137408
0.0139955
0.0140996
0.0139838
0.0136178
0.0130213
0.0122615
0.0114184
0.0105835
0.00980975
0.0091453
0.00858514
0.00813622
0.00776184
0.00745914
0.00719373
0.00696855
0.00675741
0.00656779
0.00638279
0.00621064
0.00603858
0.00587469
0.0057146
0.00557762
0.00545204
0.00540982
0.00550788
0.0131409
0.013423
0.0137434
0.014022
0.0141696
0.0141153
0.0138197
0.013291
0.0125843
0.0117722
0.0109445
0.0101589
0.00947175
0.00888777
0.00842183
0.00804226
0.0077481
0.00750381
0.00730988
0.00713626
0.00698731
0.00684244
0.00670749
0.00656672
0.00642572
0.00627766
0.00613612
0.00598184
0.00587176
0.00585109
0.0131341
0.0134164
0.0137521
0.0140679
0.0142786
0.0143123
0.0141211
0.0137005
0.0130913
0.0123553
0.0115768
0.0108141
0.0101298
0.00953643
0.00905746
0.00866723
0.00836883
0.00812727
0.00794236
0.00778097
0.00764478
0.00750932
0.00737755
0.00723014
0.00706976
0.00688698
0.0066917
0.00646031
0.00624333
0.00608115
0.0131183
0.0134057
0.013762
0.014124
0.0144114
0.0145525
0.0144911
0.0142108
0.0137367
0.0131173
0.0124278
0.0117234
0.0110688
0.0104824
0.00999459
0.00958643
0.00926578
0.00900015
0.00879017
0.00860164
0.00843483
0.0082629
0.00808709
0.0078861
0.00766164
0.00740426
0.00712439
0.00679937
0.0064767
0.00619586
0.0130943
0.0133869
0.0137596
0.0141624
0.0145211
0.0147655
0.0148337
0.0146985
0.0143708
0.0138846
0.0133039
0.0126776
0.0120691
0.0114997
0.0110055
0.0105729
0.0102152
0.00990344
0.00964096
0.00939416
0.00916416
0.00892366
0.00867449
0.00839558
0.00809027
0.00775145
0.0073927
0.00699415
0.00659827
0.00624557
0.0130603
0.0133517
0.013726
0.0141487
0.0145531
0.0148728
0.0150434
0.0150301
0.0148318
0.0144692
0.0139945
0.0134485
0.0128911
0.0123438
0.0118458
0.0113884
0.0109897
0.0106248
0.0103008
0.00998638
0.009685
0.0093709
0.00904809
0.00869749
0.00832533
0.00792751
0.00752053
0.00708588
0.00665785
0.00627751
0.013018
0.0132975
0.0136521
0.0140647
0.0144773
0.01483
0.0150592
0.0151266
0.0150225
0.0147566
0.0143702
0.0138956
0.0133874
0.0128653
0.0123703
0.0118961
0.0114654
0.0110569
0.010682
0.0103121
0.00995406
0.00958446
0.0092104
0.00881504
0.0084075
0.00798561
0.00756706
0.00713223
0.00670596
0.00633183
0.0129666
0.0132209
0.0135335
0.0139045
0.0142859
0.0146264
0.0148666
0.0149685
0.0149173
0.0147149
0.0143934
0.0139768
0.0135138
0.0130212
0.0125392
0.0120634
0.0116193
0.0111887
0.0107865
0.0103871
0.0100006
0.00960596
0.00921301
0.00880675
0.00839803
0.00798517
0.00758507
0.00717541
0.00677286
0.0064241
0.0129087
0.013126
0.0133781
0.0136814
0.0139988
0.0142889
0.0144992
0.0145948
0.0145595
0.01439
0.0141113
0.0137399
0.013319
0.012861
0.0124048
0.0119456
0.0115107
0.0110838
0.0106825
0.0102835
0.00989952
0.00951115
0.00913037
0.00874286
0.00836019
0.00797971
0.00761651
0.00724508
0.00687678
0.00656342
0.0128433
0.0130144
0.0131939
0.0134124
0.0136438
0.0138574
0.0140087
0.0140684
0.0140212
0.0138612
0.0136082
0.0132726
0.012892
0.0124744
0.012056
0.0116307
0.0112263
0.0108272
0.0104526
0.0100804
0.00972518
0.00936837
0.00902305
0.0086748
0.00833491
0.00799915
0.00768047
0.00735077
0.00701952
0.0067431
0.0127739
0.0128935
0.0129957
0.0131224
0.0132579
0.0133822
0.0134592
0.0134662
0.0133905
0.0132254
0.0129872
0.0126813
0.0123405
0.0119679
0.011597
0.0112191
0.0108617
0.0105084
0.0101795
0.00985284
0.00954421
0.00923488
0.00893848
0.00863972
0.00834933
0.00806123
0.00778672
0.00749609
0.00719981
0.00695938
0.0126996
0.012766
0.0127923
0.0128287
0.012869
0.0129027
0.0129019
0.0128506
0.0127394
0.0125623
0.0123332
0.0120539
0.0117526
0.011428
0.0111104
0.0107883
0.0104878
0.0101914
0.00991914
0.00964854
0.00939551
0.00914085
0.00889811
0.008651
0.00840949
0.00816606
0.00793092
0.00767388
0.00740871
0.00720013
0.0126237
0.0126388
0.0125956
0.01255
0.0125037
0.0124543
0.0123811
0.0122744
0.0121284
0.0119382
0.0117167
0.0114622
0.0111998
0.0109239
0.0106616
0.0103985
0.0101587
0.00992314
0.00971138
0.00949962
0.00930386
0.00910386
0.00891312
0.0087141
0.00851643
0.00831139
0.00810896
0.00787927
0.00764072
0.00746086
0.0125445
0.0125124
0.012409
0.0122934
0.0121734
0.0120537
0.0119189
0.0117649
0.0115893
0.0113885
0.0111749
0.0109446
0.0107198
0.0104912
0.0102829
0.0100776
0.00989758
0.00972168
0.00956866
0.00941344
0.00927165
0.00912208
0.00897796
0.00882086
0.00866016
0.00848656
0.00831025
0.0081024
0.00788671
0.00773121
0.0124648
0.0123918
0.0122389
0.0120671
0.0118886
0.0117135
0.0115306
0.0113399
0.0111422
0.0109352
0.0107312
0.0105245
0.0103351
0.0101505
0.00999265
0.00984094
0.00971629
0.0095952
0.0094958
0.00939139
0.00929747
0.00919163
0.0090872
0.00896481
0.00883407
0.00868532
0.00852952
0.00833907
0.00814304
0.00800952
0.0123826
0.0122751
0.0120831
0.0118685
0.0116463
0.0114306
0.0112129
0.0109965
0.0107845
0.0105761
0.0103833
0.0101994
0.0100427
0.00989825
0.00978562
0.00968191
0.00960643
0.00953381
0.00948132
0.00942096
0.00936793
0.00929893
0.00922732
0.00913315
0.00902636
0.0088973
0.0087578
0.00858172
0.00840325
0.00828844
0.0123004
0.0121654
0.0119438
0.0116986
0.0114461
0.0112032
0.010963
0.010731
0.0105121
0.0103064
0.0101263
0.00996421
0.00983723
0.00972821
0.00965532
0.00959322
0.00956026
0.00952908
0.00951658
0.00949326
0.00947441
0.00943573
0.00939094
0.00931948
0.00923195
0.00911869
0.00899263
0.00882893
0.00866639
0.00856895
0.0122159
0.012059
0.0118158
0.0115501
0.011278
0.0110187
0.0107658
0.0105264
0.0103064
0.0101069
0.00994047
0.00979893
0.00969863
0.00962078
0.00958224
0.00955595
0.00955927
0.00956336
0.00958462
0.00959248
0.00960221
0.0095888
0.00956625
0.00951366
0.00944219
0.00934237
0.0092281
0.00907581
0.00892834
0.00884586
0.0121316
0.0119583
0.0116998
0.0114213
0.0111383
0.0108709
0.0106131
0.0103725
0.0101559
0.00996499
0.00981274
0.00969036
0.00961399
0.00956324
0.00955442
0.00955865
0.00959294
0.00962685
0.00967681
0.00971095
0.00974493
0.00975285
0.00974929
0.00971286
0.00965547
0.00956768
0.00946444
0.00932309
0.00918996
0.00912177
0.012045
0.0118591
0.0115896
0.0113039
0.0110155
0.0107458
0.0104881
0.0102507
0.0100404
0.00985961
0.00972146
0.00961703
0.00956213
0.00953538
0.00955246
0.00958328
0.00964441
0.0097043
0.00977921
0.0098364
0.0098917
0.00991864
0.00993217
0.00991059
0.00986639
0.00979026
0.00969792
0.00956759
0.0094485
0.00939265
0.0119588
0.0117632
0.0114859
0.0111966
0.0109068
0.0106384
0.0103843
0.0101527
0.00995058
0.00978064
0.00965643
0.00956866
0.00953333
0.00952792
0.00956809
0.00962234
0.00970737
0.00979027
0.00988763
0.00996555
0.0100404
0.0100849
0.0101145
0.0101072
0.010076
0.0100115
0.00993035
0.00981121
0.00970576
0.00966194
0.0118702
0.0116666
0.0113831
0.0110921
0.0108025
0.0105372
0.0102881
0.0100636
0.00987032
0.00971145
0.00960065
0.00952864
0.0095114
0.0095257
0.00958699
0.00966286
0.00976993
0.00987434
0.00999275
0.0100905
0.0101841
0.0102458
0.0102916
0.0102986
0.0102808
0.0102286
0.0101591
0.0100516
0.00995963
0.00992612
0.011782
0.0115714
0.0112825
0.0109906
0.0107022
0.0104403
0.0101969
0.00997976
0.00979554
0.00964747
0.00954968
0.00949254
0.00949241
0.00952512
0.00960638
0.00970258
0.0098307
0.00995565
0.0100946
0.0102116
0.010324
0.010403
0.0104651
0.0104871
0.0104833
0.0104439
0.0103867
0.010291
0.0102123
0.0101889
0.0116912
0.0114736
0.0111792
0.0108861
0.0105981
0.0103393
0.0101008
0.00989063
0.00971494
0.00957729
0.00949189
0.00944915
0.0094655
0.00951617
0.00961685
0.00973312
0.00988204
0.0100276
0.0101872
0.010324
0.0104557
0.0105527
0.0106321
0.0106698
0.0106809
0.0106553
0.010611
0.0105276
0.0104618
0.010447
0.0116004
0.0113758
0.0110756
0.0107804
0.0104922
0.0102352
0.0100008
0.00979677
0.00962907
0.00950119
0.00942781
0.00939897
0.00943154
0.00949981
0.00961987
0.00975609
0.00992603
0.0100924
0.0102731
0.0104303
0.0105821
0.0106979
0.0107953
0.0108498
0.0108766
0.0108654
0.0108345
0.0107636
0.0107104
0.0107043
0.0115067
0.0112741
0.0109672
0.0106687
0.0103785
0.0101218
0.00988991
0.00969089
0.00953018
0.00941151
0.00934964
0.00933459
0.00938332
0.00946949
0.00960919
0.00976599
0.00995757
0.0101457
0.0103485
0.0105271
0.0107
0.0108358
0.0109525
0.0110247
0.0110682
0.0110722
0.0110553
0.0109971
0.0109564
0.0109574
0.0114126
0.0111714
0.010857
0.0105537
0.0102602
0.0100022
0.00977152
0.00957627
0.00942177
0.00931164
0.00926103
0.00925956
0.00932461
0.00942882
0.0095887
0.00976654
0.00998055
0.0101912
0.010417
0.0106179
0.010813
0.0109698
0.0111067
0.0111976
0.0112587
0.0112785
0.011276
0.0112306
0.0112019
0.0112102
0.011315
0.0110641
0.010741
0.0104314
0.0101325
0.0098714
0.00964016
0.00944742
0.00929808
0.00919595
0.00915626
0.00916849
0.0092501
0.009373
0.00955372
0.00975361
0.00999103
0.0102254
0.0104754
0.0107
0.0109185
0.0110975
0.0112558
0.0113663
0.0114458
0.0114822
0.0114945
0.0114621
0.0114452
0.0114594
0.0112166
0.0109553
0.0106227
0.0103051
0.00999965
0.00973371
0.00950054
0.00930909
0.00916417
0.00906943
0.00904052
0.00906641
0.00916493
0.00930689
0.00950919
0.0097318
0.00999361
0.0102525
0.0105279
0.0107771
0.01102
0.0112222
0.0114028
0.0115339
0.0116324
0.0116858
0.0117133
0.0116939
0.0116884
0.0117088
0.0111144
0.0108415
0.0104983
0.0101712
0.00985713
0.00958469
0.00934789
0.00915654
0.00901507
0.00892729
0.00890891
0.0089487
0.00906453
0.00922632
0.00945099
0.00969745
0.00998471
0.0102695
0.0105713
0.0108465
0.0111151
0.0113417
0.0115456
0.0116981
0.0118164
0.0118875
0.0119304
0.011924
0.0119297
0.011955
0.0110109
0.010726
0.0103714
0.0100334
0.00970949
0.00942906
0.00918744
0.00899511
0.00885646
0.00877515
0.00876725
0.00882096
0.00895449
0.00913652
0.00938435
0.00965534
0.00996904
0.0102805
0.0106099
0.0109119
0.0112072
0.011459
0.0116871
0.0118617
0.0120005
0.0120894
0.0121481
0.0121547
0.0121712
0.012202
0.0109033
0.0106053
0.0102385
0.00988808
0.00955252
0.00926256
0.00901457
0.00882021
0.00868353
0.00860833
0.00861074
0.00867867
0.00883032
0.0090334
0.00930517
0.0096018
0.00994298
0.0102825
0.0106405
0.0109706
0.0112936
0.0115717
0.0118249
0.0120225
0.0121823
0.0122898
0.0123643
0.0123839
0.0124112
0.0124461
0.0107943
0.0104829
0.0101031
0.00973909
0.00939086
0.00909006
0.00883471
0.00863736
0.00850213
0.00843262
0.00844532
0.0085275
0.00869767
0.00892219
0.00921865
0.00954156
0.00991114
0.0102794
0.0106671
0.011026
0.0113777
0.0116828
0.011962
0.0121831
0.0123645
0.0124907
0.0125814
0.012614
0.0126517
0.0126914
0.0106811
0.0103554
0.00996188
0.00958296
0.00922028
0.00890727
0.00864311
0.00844184
0.00830728
0.00824317
0.00826602
0.00836277
0.00855188
0.00879862
0.00912053
0.0094708
0.00986976
0.0102679
0.0106863
0.0110753
0.0114567
0.0117899
0.0120958
0.0123413
0.0125448
0.0126903
0.0127972
0.012843
0.0128909
0.0129343
0.0105665
0.0102264
0.00981837
0.00942346
0.00904548
0.00871906
0.00844522
0.00823918
0.00810484
0.00804575
0.00807875
0.00819008
0.00839851
0.00866781
0.00901588
0.00939407
0.00982327
0.0102521
0.0107021
0.0111219
0.0115339
0.0118958
0.0122292
0.0124995
0.0127257
0.0128907
0.0130141
0.0130729
0.0131309
0.0131786
0.0104476
0.0100924
0.00966927
0.00925721
0.00886215
0.00852102
0.00823614
0.00802445
0.0078896
0.00783525
0.00787827
0.0080045
0.00823264
0.00852528
0.00890022
0.00930739
0.00976779
0.0102284
0.0107111
0.0111628
0.0116062
0.011998
0.0123596
0.0126555
0.0129049
0.0130899
0.01323
0.0133019
0.0133698
0.0134209
0.0103275
0.0099571
0.00951817
0.00908793
0.008675
0.00831802
0.00802128
0.00780314
0.00766736
0.00761739
0.00767042
0.00781153
0.00805974
0.00837601
0.0087785
0.00921516
0.00970757
0.0102007
0.0107169
0.0112011
0.0116769
0.0120991
0.0124896
0.0128117
0.0130848
0.01329
0.013447
0.013532
0.0136098
0.0136649
0.0102034
0.00981716
0.00936181
0.00891229
0.00847967
0.00810554
0.00779558
0.00757013
0.00743268
0.00738683
0.00744973
0.00760603
0.00787468
0.00821534
0.00864609
0.00911329
0.00963864
0.0101654
0.010716
0.0112341
0.0117431
0.0121967
0.0126169
0.0129659
0.0132632
0.0134891
0.0136632
0.0137614
0.013849
0.0139072
0.010078
0.00967609
0.00920372
0.00873397
0.00828084
0.00788841
0.00756445
0.00733089
0.00719137
0.00714923
0.00722197
0.00739344
0.00768285
0.00804817
0.00850782
0.00900603
0.00956512
0.0101261
0.0107121
0.0112645
0.0118076
0.0122932
0.0127439
0.0131203
0.0134423
0.0136891
0.0138807
0.0139922
0.0140895
0.0141516
0.00994907
0.00953082
0.00904077
0.00854969
0.00807413
0.00766207
0.00732268
0.00708014
0.00693779
0.00689909
0.00698151
0.00716842
0.00747897
0.0078697
0.00835895
0.00888923
0.009483
0.0100793
0.0107017
0.0112896
0.0118677
0.0123864
0.0128683
0.0132728
0.0136201
0.0138884
0.0140975
0.0142225
0.0143296
0.0143946
0.00981908
0.0093846
0.00887629
0.00836295
0.00786416
0.00743129
0.00707572
0.00682337
0.00667777
0.00664208
0.0067341
0.00693639
0.00726838
0.00768476
0.00820423
0.00876704
0.00939628
0.0100286
0.0106882
0.0113122
0.0119262
0.0124785
0.0129923
0.0134255
0.0137986
0.0140886
0.0143157
0.0144542
0.0145711
0.0146399
0.00968586
0.00923469
0.00870733
0.0081706
0.00764655
0.0071915
0.00681824
0.0065552
0.00640553
0.00637253
0.00647396
0.0066919
0.00704567
0.00748846
0.00803888
0.00863529
0.00930095
0.00997045
0.0106682
0.0113296
0.0119802
0.0125672
0.0131138
0.0135765
0.0139759
0.0142881
0.0145334
0.0146857
0.0148125
0.0148843
0.00955171
0.00908387
0.00853688
0.00797584
0.00742577
0.00694739
0.00655572
0.00628114
0.00612693
0.00609616
0.00620689
0.00644036
0.00681619
0.00728561
0.00786758
0.00849803
0.00920091
0.00990815
0.010645
0.0113443
0.0120326
0.0126549
0.0132349
0.0137276
0.0141539
0.0144888
0.0147526
0.0149189
0.0150556
0.0151313
0.00941488
0.00892995
0.00836226
0.00777573
0.00719753
0.00669443
0.0062828
0.00599574
0.00583613
0.0058072
0.00592699
0.00617622
0.00657445
0.00707124
0.0076855
0.0083511
0.00909216
0.0098384
0.0106153
0.0113537
0.0120806
0.0127392
0.0133535
0.013877
0.0143307
0.0146888
0.0149715
0.015152
0.0152988
0.0153777
0.00927723
0.00877491
0.00818594
0.00757304
0.00696613
0.00643724
0.00600495
0.00570456
0.00553904
0.00551143
0.0056401
0.00590495
0.0063258
0.00685016
0.0074973
0.00819848
0.00897855
0.00976432
0.0105821
0.0113604
0.0121267
0.0128223
0.0134717
0.0140266
0.0145084
0.0148899
0.015192
0.015387
0.0155441
0.0156271
0.00913751
0.00861754
0.00800572
0.00736515
0.00672742
0.00617137
0.00571686
0.00540214
0.00522975
0.00520301
0.00534026
0.0056209
0.0060647
0.00661737
0.00729815
0.00803605
0.00885611
0.00968271
0.0105425
0.0113618
0.0121685
0.0129022
0.0135874
0.0141745
0.0146849
0.0150906
0.0154124
0.0156222
0.01579
0.0158763
0.00899715
0.00845887
0.00782353
0.00715446
0.00648554
0.0059014
0.00542402
0.00509409
0.00491427
0.0048878
0.00503338
0.00532961
0.00579653
0.00637769
0.00709268
0.00786772
0.00872859
0.00959658
0.0104993
0.0113602
0.0122082
0.0129807
0.0137026
0.0143224
0.0148622
0.0152925
0.0156345
0.0158594
0.0160381
0.016129
0.00885587
0.00829853
0.0076378
0.00693886
0.00623667
0.00562306
0.0051212
0.00477497
0.00458666
0.0045599
0.00471344
0.00502538
0.0055157
0.00612608
0.00687607
0.00768942
0.00859213
0.00950283
0.0104495
0.0113534
0.0122437
0.0130561
0.0138153
0.0144688
0.0150384
0.0154939
0.0158565
0.0160971
0.0162872
0.016382
0.00871461
0.00813681
0.00745009
0.00672056
0.0059849
0.00534094
0.00481395
0.00445047
0.00425301
0.00422526
0.00438642
0.0047138
0.00522767
0.0058674
0.00665293
0.007505
0.00845036
0.00940434
0.0103959
0.0113434
0.012277
0.0131299
0.0139275
0.0146152
0.0152154
0.0156965
0.0160803
0.016337
0.0165388
0.016639
0.00857372
0.00797445
0.00725958
0.00649805
0.00572683
0.00505106
0.00449717
0.00411521
0.00390739
0.00387799
0.00404628
0.00438916
0.00492681
0.00559662
0.00641848
0.00731047
0.00829955
0.0092982
0.0103358
0.0113283
0.012306
0.0132006
0.0140372
0.01476
0.0153913
0.0158988
0.0163043
0.0165776
0.0167919
0.0168971
0.00843382
0.00781176
0.00706808
0.00627374
0.00546668
0.00475809
0.00417653
0.00377497
0.00355597
0.00352409
0.00369909
0.0040571
0.00461862
0.0053186
0.00617733
0.00710961
0.00814325
0.00918712
0.0102717
0.0113098
0.0123328
0.0132698
0.0141463
0.0149047
0.0155679
0.0161021
0.0165299
0.0168204
0.0170479
0.0171596
0.00829594
0.00765042
0.00687557
0.00604673
0.00520153
0.00445837
0.00384711
0.00342446
0.0031929
0.0031577
0.0033388
0.00371193
0.0042975
0.00502837
0.00592476
0.00689858
0.00797786
0.0090684
0.0102012
0.0112863
0.0123555
0.0133359
0.014253
0.0150479
0.0157435
0.0163052
0.0167559
0.0170643
0.0173057
0.0174239
0.0081606
0.00749108
0.00668438
0.00581986
0.00493582
0.00415671
0.00351464
0.00306954
0.00282437
0.00278489
0.00297155
0.00335936
0.00396902
0.00473082
0.00566536
0.00668107
0.00780682
0.00894461
0.0101265
0.0112594
0.0123759
0.0134004
0.014359
0.0151909
0.0159196
0.0165092
0.0169835
0.0173104
0.0175666
0.0176933
0.00802956
0.00733566
0.00649487
0.00559265
0.00466702
0.00384972
0.00317441
0.00270503
0.00244466
0.00239989
0.00259136
0.00299374
0.00362762
0.00442105
0.00539455
0.00645341
0.00762677
0.00881331
0.0100456
0.0112276
0.0123922
0.0134619
0.0144627
0.0153323
0.0160947
0.016713
0.0172115
0.0175578
0.0178299
0.0179654
0.00790306
0.0071853
0.00630992
0.00536833
0.00439976
0.0035423
0.00283219
0.00233686
0.00205999
0.00200879
0.00220443
0.00262086
0.00327892
0.00410397
0.00511689
0.00621925
0.00744103
0.0086769
0.00996052
0.0111924
0.0124063
0.0135218
0.0145656
0.0154735
0.0162702
0.0169176
0.0174411
0.0178075
0.0180965
0.0182431
0.00778306
0.00704216
0.00612998
0.00514653
0.00413167
0.00323123
0.00248343
0.00195995
0.00166475
0.00160596
0.00180487
0.00223515
0.00291746
0.00377482
0.00482796
0.00597511
0.00724649
0.00853323
0.00986946
0.0111526
0.0124166
0.0135789
0.0146662
0.0156131
0.0164447
0.017122
0.0176711
0.0180586
0.0183656
0.0185239
0.0076695
0.0069074
0.005958
0.00493048
0.00386731
0.00292134
0.00213383
0.00158019
0.00126515
0.00119747
0.00139892
0.00184245
0.00254894
0.00343854
0.00453233
0.00572459
0.00704638
0.00838458
0.00977442
0.0111096
0.0124247
0.0136345
0.014766
0.0157524
0.0166194
0.017327
0.0179025
0.018312
0.018638
0.01881
0.00756449
0.00678273
0.00579392
0.00471951
0.00360422
0.00260942
0.00177895
0.00119269
0.000855785
0.000777908
0.000980885
0.00143738
0.00216805
0.00309056
0.00422582
0.00546449
0.00683787
0.00822911
0.00967379
0.0110623
0.0124293
0.0136874
0.0148636
0.0158901
0.016793
0.0175316
0.0181342
0.0185668
0.018913
0.0190995
0.00746762
0.00666858
0.00564014
0.00451642
0.00334659
0.00230004
0.00142428
0.000803185
0.000442758
0.000353306
0.000557012
0.00102581
0.00178053
0.00273586
0.00391296
0.00519834
0.00662413
0.00806895
0.00956944
0.011012
0.0124319
0.0137388
0.0149605
0.0160273
0.0169667
0.0177367
0.0183672
0.0188237
0.0191913
0.0193944
0.00738099
0.00656621
0.00549584
0.00431996
0.00309165
0.00198988
0.00106546
0.000406951
2.09109e-05
-8.15068e-05
0.000121815
0.000602571
0.00138131
0.00237009
0.00358987
0.00492328
0.00640262
0.00790258
0.00946006
0.0109579
0.0124314
0.0137878
0.0150551
0.016163
0.0171391
0.0179412
0.0186003
0.0190819
0.0194721
0.0196931
0.00730353
0.00647499
0.00536262
0.0041322
0.00284301
0.00168312
0.00070768
9.53504e-06
-0.000403798
-0.000520574
-0.000318436
0.000173578
0.000976159
0.00199826
0.00326106
0.00464275
0.00617643
0.00773204
0.0093474
0.010901
0.012429
0.0138353
0.015149
0.016298
0.0173114
0.0181459
0.0188344
0.0193418
0.019756
0.0199969
0.00723728
0.0063957
0.00523892
0.00395134
0.00259756
0.0013763
0.000346681
-0.000393558
-0.000836217
-0.000968724
-0.00076893
-0.000266036
0.00056032
0.00161637
0.002923
0.00435428
0.00594339
0.0075561
0.00923038
0.010841
0.0124238
0.0138807
0.0152407
0.0164313
0.0174822
0.0183498
0.0190684
0.0196029
0.0200423
0.0203043
0.0071803
0.00632667
0.00512541
0.00377862
0.00235828
0.00107315
-1.26965e-05
-0.000797046
-0.00127057
-0.00142012
-0.00122341
-0.000710345
0.000139593
0.00122943
0.00258017
0.00406125
0.00570649
0.00737672
0.00911069
0.0107786
0.0124171
0.0139246
0.0153316
0.0165639
0.0176528
0.0185535
0.0193029
0.0198652
0.0203311
0.0206162
0.00713467
0.00626878
0.00502026
0.00361195
0.00212188
0.000770249
-0.000374507
-0.00120509
-0.00171132
-0.00187918
-0.00168671
-0.00116385
-0.000290422
0.000833785
0.00222945
0.00376156
0.00546391
0.00719296
0.00898742
0.0107137
0.012408
0.0139667
0.0154203
0.0166946
0.0178215
0.0187561
0.0195371
0.0201283
0.020622
0.0209312
0.00709753
0.00621937
0.00492348
0.00345197
0.00189087
0.000470893
-0.000734261
-0.00161269
-0.00215289
-0.00234021
-0.0021526
-0.00162062
-0.000723907
0.000434475
0.00187525
0.00345852
0.00521856
0.00700667
0.00886221
0.0106469
0.0123976
0.0140074
0.0155081
0.0168244
0.0179897
0.0189582
0.0197711
0.0203919
0.0209146
0.0212498
0.00707143
0.00617961
0.00483336
0.00329675
0.00166213
0.000171954
-0.00109561
-0.00202353
-0.00259927
-0.00280713
-0.00262546
-0.00208471
-0.00116482
2.82823e-05
0.00151492
0.00315047
0.00496897
0.00681718
0.0087343
0.010578
0.0123852
0.0140463
0.0155938
0.0169521
0.0181558
0.0191588
0.0200044
0.0206559
0.0212088
0.021571
0.00705229
0.00614615
0.00474947
0.00314657
0.00143788
-0.000123556
-0.00145436
-0.0024329
-0.00304505
-0.00327437
-0.0030991
-0.0025502
-0.00160736
-0.000379794
0.00115279
0.0028406
0.00471795
0.00662626
0.00860532
0.010508
0.0123718
0.0140838
0.0156785
0.0170787
0.018321
0.0193583
0.0202369
0.0209196
0.0215037
0.0218947
0.00704376
0.00612116
0.00467088
0.0030002
0.00121557
-0.000418216
-0.00181357
-0.00284383
-0.00349366
-0.0037453
-0.0035774
-0.00302067
-0.002055
-0.000792513
0.000786624
0.00252763
0.00446432
0.00643342
0.00847451
0.0104364
0.0123567
0.0141198
0.0157608
0.017203
0.0184836
0.0195558
0.0204681
0.0211831
0.0217993
0.0222199
0.00704051
0.00610074
0.00459709
0.00285783
0.000997354
-0.000709174
-0.00216931
-0.00325192
-0.00393991
-0.00421452
-0.00405426
-0.00349024
-0.002502
-0.00120494
0.000420683
0.00221465
0.00421079
0.00624036
0.00834358
0.0103642
0.0123406
0.0141543
0.0158421
0.0173258
0.0186449
0.0197515
0.0206974
0.0214449
0.0220941
0.0225458
0.00704805
0.00608826
0.00452819
0.00271925
0.000781524
-0.000998227
-0.00252383
-0.00365941
-0.00438652
-0.00468474
-0.00453299
-0.00396194
-0.0029513
-0.00161935
5.31459e-05
0.00190074
0.00395646
0.00604674
0.00821167
0.0102911
0.0123232
0.0141873
0.015921
0.017446
0.0188029
0.0199443
0.0209243
0.0217052
0.022388
0.0228712
0.00705931
0.00607939
0.00446366
0.00258466
0.000570241
-0.00128262
-0.00287345
-0.00406221
-0.00482854
-0.00515077
-0.0050076
-0.00443
-0.0033973
-0.00203096
-0.000311833
0.00158887
0.00370386
0.00585411
0.00808064
0.010218
0.012305
0.0142187
0.0159986
0.0175645
0.018959
0.0201344
0.021148
0.0219622
0.0226789
0.0231945
0.00708245
0.00607914
0.00440484
0.002455
0.000362797
-0.00156326
-0.00321951
-0.00446165
-0.00526796
-0.00561464
-0.00548082
-0.00489691
-0.00384236
-0.00244154
-0.000675775
0.00127832
0.00345233
0.00566229
0.00794941
0.0101442
0.0122856
0.0142486
0.0160735
0.0176796
0.0191109
0.02032
0.0213671
0.022215
0.0229658
0.0235135
0.00710856
0.00608271
0.00435134
0.00233054
0.00016134
-0.00183751
-0.00355866
-0.00485407
-0.0057001
-0.00607144
-0.00594685
-0.00535706
-0.00428114
-0.00284653
-0.00103457
0.00097204
0.0032042
0.00547264
0.00781993
0.0100709
0.0122653
0.0142765
0.0161467
0.0177924
0.0192595
0.0205012
0.0215809
0.022462
0.0232466
0.0238263
0.00714813
0.00609657
0.0043056
0.00221326
-3.38488e-05
-0.00210537
-0.00389124
-0.00523981
-0.0061262
-0.00652248
-0.00640784
-0.0058124
-0.00471542
-0.00324722
-0.00138954
0.0006694
0.00295901
0.00528511
0.00769087
0.00999709
0.0122435
0.0143025
0.0162164
0.0179007
0.0194023
0.0206753
0.0217869
0.0227011
0.023519
0.0241295
0.00719044
0.00611549
0.00426718
0.00210343
-0.000220755
-0.0023644
-0.00421435
-0.00561576
-0.00654193
-0.00696321
-0.00685826
-0.00625758
-0.00514017
-0.00363936
-0.00173657
0.000373374
0.00271888
0.00510081
0.00756411
0.00992353
0.0122201
0.0143255
0.0162833
0.0180051
0.0195397
0.0208428
0.0219847
0.0229313
0.0237815
0.024422
0.00724743
0.006147
0.00423946
0.00200385
-0.000398215
-0.00261378
-0.00452734
-0.00598123
-0.00694782
-0.00739429
-0.00729975
-0.00669406
-0.00555662
-0.00402373
-0.002077
8.3186e-05
0.00248342
0.00491976
0.00743812
0.00984908
0.0121943
0.0143451
0.0163448
0.0181031
0.0196688
0.0210002
0.0221711
0.0231494
0.0240313
0.0246998
0.00730835
0.00618604
0.00422218
0.00191477
-0.000564479
-0.00285141
-0.00482793
-0.00633383
-0.00733997
-0.00781162
-0.0077271
-0.00711681
-0.00596013
-0.00439647
-0.00240669
-0.0001982
0.00225446
0.00474267
0.00731409
0.00977397
0.0121653
0.0143599
0.016401
0.0181946
0.0197896
0.0211484
0.022347
0.0233567
0.0242693
0.0249653
0.0073868
0.00624105
0.00421924
0.00183953
-0.000717674
-0.00307577
-0.00511452
-0.00667186
-0.00771823
-0.00821522
-0.00814153
-0.00752688
-0.00635143
-0.0047579
-0.00272714
-0.00047188
0.00203151
0.00456952
0.0071908
0.00969654
0.0121319
0.0143685
0.016449
0.0182766
0.0199
0.0212853
0.0225113
0.0235522
0.0244955
0.0252178
0.00747229
0.00630744
0.00423053
0.00177832
-0.000856476
-0.00328525
-0.00538561
-0.00699379
-0.00807929
-0.00860157
-0.00853821
-0.00791963
-0.00672628
-0.00510454
-0.00303424
-0.000735007
0.00181599
0.00440042
0.00706796
0.00961646
0.0120923
0.0143693
0.016488
0.0183489
0.0200002
0.0214136
0.0226676
0.0237408
0.0247147
0.0254644
0.00757795
0.00639386
0.0042601
0.00173467
-0.000978497
-0.00347777
-0.00563874
-0.00729698
-0.00842239
-0.00897017
-0.00891809
-0.00829582
-0.00708511
-0.00543652
-0.00332982
-0.000989218
0.00160703
0.00423522
0.0069449
0.00953226
0.0120455
0.0143607
0.0165155
0.0184094
0.02009
0.0215331
0.0228169
0.0239235
0.0249294
0.0257063
0.00769422
0.00649592
0.00430802
0.00170865
-0.00108298
-0.00365237
-0.00587331
-0.00758085
-0.00874482
-0.00931811
-0.00927675
-0.0086513
-0.00742417
-0.00575082
-0.00361028
-0.00123189
0.00140534
0.00407333
0.00681987
0.00944263
0.0119895
0.0143414
0.0165307
0.0184585
0.0201701
0.0216473
0.022964
0.0241068
0.0251459
0.0259525
0.00783489
0.00662222
0.00437797
0.0017037
-0.00116727
-0.00380661
-0.00608614
-0.00784194
-0.00904538
-0.00964444
-0.00961503
-0.00898671
-0.00774394
-0.0060477
-0.00387754
-0.00146565
0.00120982
0.00391413
0.00669394
0.00934819
0.0119258
0.0143117
0.0165347
0.0184973
0.0202437
0.021759
0.0231126
0.0242941
0.025369
0.0262065
0.00798999
0.00676811
0.00446965
0.00171944
-0.00123138
-0.0039403
-0.00627754
-0.00808058
-0.00932195
-0.00994692
-0.00992893
-0.00929853
-0.00804116
-0.00632467
-0.00412921
-0.00168815
0.00102001
0.00375678
0.00656501
0.00924908
0.0118543
0.0142738
0.0165291
0.0185291
0.0203138
0.0218734
0.0232685
0.0244927
0.0256052
0.0264772
0.00817332
0.0069417
0.00458605
0.00175889
-0.00127258
-0.00405075
-0.00644385
-0.00829279
-0.00957299
-0.0102242
-0.0102193
-0.00958751
-0.00831695
-0.0065826
-0.00436755
-0.00190247
0.000834373
0.00360134
0.00643676
0.00914894
0.0117806
0.0142317
0.0165198
0.0185588
0.0203868
0.0219951
0.0234367
0.0247061
0.0258587
0.0267659
0.00837278
0.00713678
0.00472603
0.00182099
-0.00129183
-0.00413864
-0.00658634
-0.00847982
-0.00979708
-0.0104749
-0.010483
-0.00985086
-0.00856875
-0.00681962
-0.00459106
-0.00210737
0.00065224
0.00344683
0.00630687
0.00904814
0.0117056
0.0141892
0.0165097
0.0185908
0.0204658
0.0221284
0.0236206
0.0249381
0.0261321
0.0270769
0.00860276
0.00736071
0.00489178
0.00190819
-0.00128647
-0.0042012
-0.00670118
-0.0086375
-0.00999251
-0.0106972
-0.0107208
-0.0100899
-0.00879854
-0.00703783
-0.00480088
-0.00230414
0.000474547
0.00329567
0.00618185
0.00895364
0.011638
0.0141538
0.0165083
0.0186332
0.0205588
0.022278
0.0238234
0.02519
0.0264263
0.0274078
0.00884817
0.00760568
0.00508071
0.00201845
-0.00125856
-0.00424005
-0.00679062
-0.00876803
-0.0101587
-0.0108906
-0.0109308
-0.0103026
-0.00900494