/*--------------------------------*- C++ -*----------------------------------*\
  =========                 |
  \\      /  F ield         | OpenFOAM: The Open Source CFD Toolbox
   \\    /   O peration     | Website:  https://openfoam.org
    \\  /    A nd           | Version:  6.0
     \\/     M anipulation  |
\*---------------------------------------------------------------------------*/
FoamFile
{
    version     2.0;
    format      ascii;
    class       volVectorField;
    location    "16";
    object      U;
}
// * * * * * * * * * * * * * * * * * * * * * * * * * * * * * * * * * * * * * //

dimensions      [0 1 -1 0 0 0 0];

internalField   nonuniform List<vector> 
47000
(
(1 5.60284e-05 3.10723e-18)
(0.999982 5.70572e-05 5.86858e-18)
(0.999943 3.57727e-05 -4.28123e-17)
(0.99989 -1.60917e-05 -7.8012e-17)
(0.99983 -9.60658e-05 5.90974e-17)
(0.999769 -0.000191202 -3.72391e-17)
(0.999714 -0.000283046 1.63146e-16)
(0.999668 -0.000358037 -1.89742e-18)
(0.999629 -0.00041036 2.34521e-17)
(0.999595 -0.000445081 -2.69112e-16)
(0.999563 -0.000471696 1.89691e-16)
(0.999533 -0.000500938 7.58056e-17)
(0.999505 -0.000538592 1.25862e-16)
(0.999481 -0.0005872 1.65459e-16)
(0.999461 -0.000644659 -1.60181e-16)
(0.999444 -0.000710909 -1.00226e-16)
(0.99943 -0.000785169 -8.524e-18)
(0.999416 -0.000871677 -1.25357e-16)
(0.999402 -0.000973672 -7.8878e-17)
(0.999387 -0.00109833 -4.51952e-18)
(0.999374 -0.00124947 -3.82905e-16)
(0.999364 -0.00143345 -1.87694e-16)
(0.999362 -0.00165423 -1.66767e-16)
(0.999368 -0.00191922 -4.31456e-18)
(0.999387 -0.00224294 1.82089e-16)
(0.999407 -0.00263557 -8.85954e-17)
(0.99951 -0.00319455 2.14327e-16)
(0.999228 -0.00393404 -1.76555e-16)
(1.00031 -0.00513691 7.94414e-17)
(0.990818 -0.0110595 -3.62074e-17)
(0.999992 0.000105244 -6.68742e-18)
(0.999948 -1.38263e-05 -2.03068e-17)
(0.999875 -0.000168929 -8.61266e-19)
(0.999786 -0.000349805 9.91509e-17)
(0.999695 -0.000531506 -4.90605e-17)
(0.999615 -0.000681731 1.3181e-16)
(0.99955 -0.000775585 -1.04939e-16)
(0.999498 -0.00080993 2.85482e-17)
(0.999451 -0.000800856 -1.84061e-16)
(0.999404 -0.000777901 -1.10801e-17)
(0.999356 -0.000767312 -3.72464e-17)
(0.999312 -0.000784533 6.61765e-17)
(0.999275 -0.000829867 -1.5807e-16)
(0.999249 -0.000895098 9.21096e-18)
(0.999234 -0.00096901 6.28112e-17)
(0.999224 -0.00104677 -2.18774e-17)
(0.999217 -0.00112945 1.37306e-16)
(0.999205 -0.00122667 -8.54553e-17)
(0.999189 -0.00134947 -2.36358e-16)
(0.999168 -0.00151121 3.22545e-16)
(0.999148 -0.00172026 1.40736e-16)
(0.999134 -0.00198404 4.18336e-17)
(0.999134 -0.00230608 1.22499e-16)
(0.999149 -0.00268991 1.24271e-16)
(0.999193 -0.00314931 -7.49322e-17)
(0.999219 -0.003688 -6.77307e-18)
(0.999417 -0.00437599 -7.38862e-17)
(0.999048 -0.0053216 -1.42263e-16)
(0.99913 -0.00665135 1.41433e-16)
(0.996751 -0.00915963 4.72373e-17)
(0.999949 8.06237e-05 7.80544e-18)
(0.999897 -0.000156113 1.79812e-18)
(0.99982 -0.000417452 -2.52239e-18)
(0.999734 -0.000671934 -1.71479e-16)
(0.999655 -0.000880445 1.5651e-17)
(0.999592 -0.00100823 -1.14123e-16)
(0.999546 -0.00104153 1.03013e-16)
(0.99951 -0.000997404 -8.57609e-17)
(0.999476 -0.000913361 1.76984e-16)
(0.99944 -0.000833878 1.15989e-16)
(0.999404 -0.000789771 -4.86293e-17)
(0.999374 -0.000790905 -4.08013e-17)
(0.999358 -0.000827062 2.44047e-16)
(0.999359 -0.000878018 -7.71651e-17)
(0.999374 -0.000924716 5.56859e-17)
(0.999398 -0.000957801 3.57283e-17)
(0.999423 -0.000979874 -1.39488e-16)
(0.999442 -0.00100345 2.10883e-16)
(0.999453 -0.0010454 1.35123e-16)
(0.999455 -0.00112311 -1.25373e-17)
(0.999452 -0.00124965 2.76643e-16)
(0.999451 -0.00143418 2.78345e-16)
(0.999457 -0.00168215 2.22166e-16)
(0.999472 -0.00199616 6.33528e-17)
(0.99951 -0.00238683 -1.02724e-16)
(0.999509 -0.00286888 2.50132e-17)
(0.999638 -0.00345149 -1.78228e-16)
(0.999368 -0.00428995 1.8654e-16)
(0.99888 -0.00539438 -4.90091e-17)
(0.997079 -0.00674177 -6.3548e-17)
(0.999879 2.9101e-05 -1.09498e-17)
(0.99982 -0.000284596 4.64303e-18)
(0.999739 -0.000604959 4.30654e-17)
(0.999652 -0.000888133 1.28604e-16)
(0.999574 -0.00109171 1.15775e-17)
(0.999513 -0.00118762 1.52987e-17)
(0.999468 -0.00117606 -1.14864e-16)
(0.999431 -0.00109003 -4.93767e-18)
(0.999394 -0.000979301 -9.27417e-17)
(0.999354 -0.000893863 -3.49627e-17)
(0.999314 -0.000863157 5.24704e-17)
(0.999281 -0.00089076 -3.3832e-17)
(0.999262 -0.000958868 -1.02761e-16)
(0.999261 -0.00103999 6.4723e-17)
(0.999278 -0.00111049 4.29102e-18)
(0.999305 -0.00115816 1.72865e-16)
(0.999338 -0.0011857 -5.05799e-17)
(0.99937 -0.00120645 -9.62968e-17)
(0.999396 -0.00123991 -1.35742e-16)
(0.999417 -0.00130592 -3.97022e-16)
(0.999434 -0.00142119 -8.84093e-17)
(0.999451 -0.0015979 -2.5454e-16)
(0.999473 -0.00184551 -2.38405e-16)
(0.999497 -0.00217074 -1.97996e-16)
(0.999537 -0.00258525 2.78929e-16)
(0.999533 -0.00311912 -1.7039e-16)
(0.999587 -0.00375864 1.06294e-16)
(0.999396 -0.00462503 1.24714e-16)
(0.998842 -0.00572602 -1.24322e-16)
(0.99732 -0.00731362 3.51475e-17)
(0.999794 -1.85556e-05 2.05131e-18)
(0.999727 -0.000365786 -5.62852e-18)
(0.99964 -0.000705548 -4.15253e-18)
(0.999547 -0.00098983 -2.52118e-18)
(0.999462 -0.00117927 -6.94672e-17)
(0.999396 -0.00125407 1.69103e-17)
(0.999345 -0.00122435 -3.7238e-17)
(0.999304 -0.00113107 -5.83452e-17)
(0.999263 -0.00102751 1.18354e-16)
(0.999218 -0.000963105 -3.14854e-17)
(0.99917 -0.000964274 1.30051e-16)
(0.999126 -0.00103106 1.38522e-16)
(0.99909 -0.00114328 -1.2327e-16)
(0.999069 -0.00127187 -1.27202e-16)
(0.999063 -0.00139265 -1.98111e-16)
(0.999071 -0.00149239 -1.7197e-16)
(0.999088 -0.00157297 3.64514e-17)
(0.999112 -0.00164606 -6.49736e-17)
(0.99914 -0.00172999 3.52528e-16)
(0.999172 -0.00184314 8.34762e-17)
(0.999209 -0.00200186 -2.88442e-16)
(0.999252 -0.00221796 -1.00614e-16)
(0.999304 -0.00250127 6.01115e-17)
(0.99936 -0.00285911 8.86249e-17)
(0.999429 -0.00330008 -1.85489e-16)
(0.999461 -0.00385458 1.50346e-16)
(0.999506 -0.00449555 4.73539e-17)
(0.999392 -0.00526964 -2.3701e-16)
(0.998909 -0.00621668 5.64357e-17)
(0.998 -0.00757295 1.00889e-17)
(0.999708 -5.08483e-05 -2.27212e-18)
(0.999633 -0.000401021 8.6501e-18)
(0.999543 -0.000735766 -7.04127e-17)
(0.999449 -0.00100775 -2.83083e-17)
(0.999366 -0.00118294 4.39479e-17)
(0.999304 -0.00124778 1.27018e-16)
(0.999262 -0.00121644 1.31182e-16)
(0.999235 -0.00113027 8.82406e-18)
(0.999212 -0.00103923 1.64982e-17)
(0.999187 -0.000988263 1.16698e-16)
(0.999156 -0.00100051 -1.02468e-16)
(0.999123 -0.00107559 -1.646e-16)
(0.999089 -0.00119576 4.94198e-17)
(0.999061 -0.00133575 2.06831e-16)
(0.99904 -0.0014749 4.29047e-16)
(0.999029 -0.00160175 -1.13946e-18)
(0.999029 -0.0017179 7.19174e-17)
(0.999039 -0.00183272 2.70858e-16)
(0.99906 -0.00196138 -2.89246e-16)
(0.999094 -0.00211854 2.01205e-16)
(0.999141 -0.00231741 2.6733e-16)
(0.999202 -0.00256712 1.627e-16)
(0.999277 -0.00287545 1.28752e-16)
(0.99936 -0.00324833 -1.21042e-17)
(0.999453 -0.00369085 -4.67168e-17)
(0.999516 -0.00422953 1.69506e-16)
(0.999567 -0.00483488 7.92264e-17)
(0.999502 -0.00549951 1.19664e-16)
(0.999122 -0.00629134 5.56897e-17)
(0.998503 -0.00763361 -4.50487e-17)
(0.999628 -6.5672e-05 3.25949e-18)
(0.999544 -0.000402891 1.53019e-17)
(0.999454 -0.000722772 3.67517e-17)
(0.999363 -0.000980661 3.46743e-17)
(0.999287 -0.00114848 1.09718e-16)
(0.999238 -0.00121618 -7.51689e-17)
(0.999215 -0.00119699 -9.95894e-17)
(0.999216 -0.00112708 6.30203e-17)
(0.999228 -0.00104844 -1.18451e-16)
(0.999243 -0.000999079 -4.39282e-17)
(0.999252 -0.000998984 -2.39071e-16)
(0.999253 -0.00104951 1.6387e-16)
(0.999244 -0.0011388 8.2965e-17)
(0.999228 -0.00124922 1.17931e-17)
(0.999208 -0.00136714 -2.44359e-16)
(0.99919 -0.00148557 4.12617e-17)
(0.999176 -0.00160768 -8.36422e-17)
(0.999172 -0.00174151 -3.26476e-16)
(0.999181 -0.00189936 -4.76345e-18)
(0.999206 -0.00209211 -3.10405e-16)
(0.999248 -0.00232958 -3.04778e-16)
(0.999308 -0.00261799 -1.34938e-16)
(0.999386 -0.00296323 -1.08751e-16)
(0.999473 -0.00337015 -1.21395e-16)
(0.999568 -0.00384242 -6.78276e-17)
(0.999639 -0.00440368 -3.96851e-16)
(0.999685 -0.00503008 1.45949e-17)
(0.999638 -0.00567898 1.44017e-16)
(0.999368 -0.00642515 1.61726e-17)
(0.998914 -0.0078957 4.51881e-17)
(0.999555 -6.4449e-05 1.25539e-17)
(0.999459 -0.000382967 -3.03619e-17)
(0.999366 -0.000688068 -4.41508e-17)
(0.999273 -0.000937938 -2.75066e-17)
(0.999197 -0.0011107 -3.17922e-17)
(0.999151 -0.00119785 -4.04695e-17)
(0.999139 -0.00120844 7.33873e-17)
(0.999158 -0.00117023 -1.63344e-16)
(0.999199 -0.00111484 -6.68045e-17)
(0.99925 -0.00107209 1.32972e-16)
(0.999298 -0.00105883 1.99323e-16)
(0.999336 -0.00107904 -8.88572e-17)
(0.999357 -0.0011282 -2.42958e-16)
(0.999361 -0.00119794 -1.02096e-16)
(0.999352 -0.00128331 5.36447e-18)
(0.999334 -0.00138336 9.81674e-18)
(0.999315 -0.00150414 3.87425e-17)
(0.999301 -0.00165346 -5.17717e-17)
(0.999299 -0.00184155 2.48007e-16)
(0.999313 -0.00207599 2.08937e-16)
(0.999347 -0.0023634 1.94902e-16)
(0.999402 -0.00270697 5.46404e-17)
(0.999476 -0.00311015 -1.21529e-16)
(0.999562 -0.00357575 -6.32405e-17)
(0.999655 -0.00410472 1.48901e-16)
(0.999732 -0.00471473 2.58668e-16)
(0.999785 -0.00538452 -2.5338e-16)
(0.999756 -0.00604049 -2.2583e-16)
(0.999595 -0.00674208 3.33704e-17)
(0.999431 -0.00819897 -2.30366e-17)
(0.99949 -4.93506e-05 3.68981e-19)
(0.999377 -0.000348844 1.17091e-17)
(0.999273 -0.000643973 5.24336e-17)
(0.999166 -0.000894628 -8.81684e-19)
(0.999074 -0.00108537 -4.95667e-17)
(0.999011 -0.00120815 -6.15858e-18)
(0.998986 -0.00126647 -5.81091e-17)
(0.999 -0.00127851 8.75445e-17)
(0.999044 -0.0012649 1.13772e-17)
(0.999108 -0.00124707 -1.38171e-16)
(0.999176 -0.00123864 -2.21237e-16)
(0.999237 -0.00124598 -1.17384e-16)
(0.99928 -0.00127145 2.06515e-16)
(0.999304 -0.00131546 1.68363e-16)
(0.999308 -0.00138137 -1.22352e-16)
(0.9993 -0.00147406 -2.80642e-16)
(0.999286 -0.00160251 4.10667e-17)
(0.999275 -0.00177455 2.44669e-16)
(0.999276 -0.00199854 -2.53177e-16)
(0.999294 -0.00227881 1.58566e-16)
(0.999334 -0.00261844 -1.49771e-16)
(0.999398 -0.00301683 -2.83534e-17)
(0.999484 -0.0034737 9.45766e-17)
(0.999586 -0.00398759 1.48375e-16)
(0.999698 -0.00455433 -2.74485e-17)
(0.999802 -0.00518194 -1.6269e-16)
(0.999889 -0.00584756 -3.36669e-17)
(0.999903 -0.00645494 7.17688e-18)
(0.999835 -0.00704714 -8.05551e-18)
(1.00005 -0.00834738 -1.18875e-17)
(0.999428 -2.34456e-05 -2.70699e-18)
(0.999296 -0.000305644 7.07103e-18)
(0.999174 -0.000596239 -1.77761e-17)
(0.999044 -0.000854758 -8.0538e-18)
(0.998921 -0.00107217 -5.49695e-17)
(0.998824 -0.00124054 -1.573e-17)
(0.998765 -0.00135769 8.04456e-18)
(0.99875 -0.00143272 -6.44644e-17)
(0.998773 -0.00147603 -3.49088e-17)
(0.998825 -0.00150132 2.29827e-17)
(0.99889 -0.00151894 5.22047e-17)
(0.998956 -0.00153684 1.17301e-16)
(0.99901 -0.00156268 8.05132e-18)
(0.999049 -0.00160376 -3.32251e-16)
(0.99907 -0.0016699 -6.67457e-17)
(0.99908 -0.00177039 4.26512e-17)
(0.999086 -0.00191619 1.69994e-16)
(0.999097 -0.00211462 -6.49365e-17)
(0.999122 -0.00237191 1.37912e-16)
(0.999167 -0.00268903 1.77556e-16)
(0.999238 -0.00306525 1.07394e-16)
(0.999335 -0.00349576 -6.07265e-17)
(0.999458 -0.0039759 -1.3422e-16)
(0.9996 -0.0044993 1.16075e-16)
(0.999754 -0.00505641 -1.07795e-16)
(0.999907 -0.00564655 2.96961e-16)
(1.00005 -0.0062465 -3.68655e-17)
(1.00012 -0.00675183 2.68136e-17)
(1.00012 -0.00720383 -9.53078e-17)
(1.0007 -0.00832244 1.23994e-17)
(0.999367 9.97999e-06 -1.23817e-17)
(0.999218 -0.000257049 -5.20587e-18)
(0.999076 -0.000547014 -2.43295e-18)
(0.998919 -0.000816558 3.71207e-17)
(0.998762 -0.00106262 8.98311e-17)
(0.998625 -0.00127744 1.07937e-16)
(0.998523 -0.00145395 9.57698e-17)
(0.998466 -0.00159368 4.25139e-20)
(0.998453 -0.00169856 1.21489e-16)
(0.998478 -0.00177579 -3.22045e-17)
(0.998526 -0.00183277 -2.42831e-18)
(0.998585 -0.00187806 1.78226e-16)
(0.998643 -0.00192277 2.06179e-16)
(0.998694 -0.00197871 4.95793e-17)
(0.998736 -0.00205977 1.42385e-16)
(0.998773 -0.00217777 2.68446e-17)
(0.998813 -0.00234429 -9.32532e-17)
(0.998863 -0.00256548 1.5645e-16)
(0.998931 -0.00284524 5.4552e-17)
(0.999024 -0.00318134 -3.80805e-16)
(0.999146 -0.00356964 6.39899e-17)
(0.999296 -0.0040017 9.29194e-17)
(0.999474 -0.00446938 1.33688e-17)
(0.999672 -0.00496273 -1.81504e-16)
(0.999882 -0.00546928 7.63511e-17)
(1.00009 -0.00598387 -2.50808e-16)
(1.00029 -0.00648714 1.40351e-16)
(1.00042 -0.0068783 -7.36408e-17)
(1.00047 -0.00720999 -2.92408e-17)
(1.00129 -0.00820116 1.67856e-18)
(0.999302 4.72393e-05 8.88985e-18)
(0.999145 -0.000206372 -1.2382e-17)
(0.998987 -0.000497388 2.90602e-17)
(0.998809 -0.000777182 -2.41889e-17)
(0.998623 -0.00104775 -8.68835e-17)
(0.998451 -0.0013018 -4.23788e-17)
(0.99831 -0.00152868 -1.92654e-16)
(0.998214 -0.00172437 1.01861e-16)
(0.998164 -0.00188456 -1.40446e-17)
(0.998159 -0.00201165 1.19369e-17)
(0.998186 -0.00211069 3.05247e-17)
(0.998234 -0.00219018 -2.40159e-16)
(0.998293 -0.00226296 -1.734e-16)
(0.998357 -0.00234314 2.06472e-16)
(0.998423 -0.00244648 2.95799e-17)
(0.998495 -0.00258551 8.49997e-17)
(0.998576 -0.00277127 -1.74901e-16)
(0.998676 -0.00300827 -1.33509e-16)
(0.998799 -0.00329816 1.01273e-16)
(0.99895 -0.00363613 1.21848e-16)
(0.999132 -0.00401558 -1.63055e-16)
(0.999344 -0.00442584 -9.08738e-17)
(0.999582 -0.00485706 1.31319e-16)
(0.999838 -0.00529812 6.04067e-17)
(1.0001 -0.00573662 9.04097e-17)
(1.00036 -0.00616724 4.53798e-17)
(1.00061 -0.00657736 4.09216e-17)
(1.00078 -0.00687488 1.75129e-16)
(1.00085 -0.00712928 -5.25681e-17)
(1.00182 -0.00806521 -2.34928e-17)
(0.999233 8.51233e-05 -2.66314e-18)
(0.999076 -0.000156475 3.98716e-17)
(0.998912 -0.000448368 2.69272e-17)
(0.998723 -0.000734999 -2.59671e-18)
(0.998523 -0.00102216 -6.59222e-18)
(0.99833 -0.00130345 6.44148e-17)
(0.998164 -0.00156607 7.85485e-17)
(0.99804 -0.00180263 -7.20438e-17)
(0.997963 -0.00200495 -8.21917e-17)
(0.997933 -0.00217242 -3.07101e-17)
(0.997943 -0.00230848 -1.40444e-17)
(0.997983 -0.00242123 1.57247e-16)
(0.998045 -0.002524 -2.82215e-16)
(0.998123 -0.00263143 -4.50727e-17)
(0.998214 -0.00275939 -4.57004e-17)
(0.998322 -0.00291974 7.07095e-17)
(0.998448 -0.00312217 1.71218e-16)
(0.998599 -0.00336933 2.8044e-16)
(0.998778 -0.00366097 -3.55428e-16)
(0.998988 -0.00399052 2.28215e-17)
(0.99923 -0.00435011 1.89668e-16)
(0.999499 -0.00472834 1.39205e-16)
(0.999791 -0.00511543 2.62422e-18)
(1.0001 -0.00550105 5.04703e-17)
(1.0004 -0.00587505 1.67182e-16)
(1.00069 -0.00623433 1.31848e-16)
(1.00097 -0.00657337 2.41581e-16)
(1.00117 -0.00680858 -1.66039e-17)
(1.00125 -0.00702612 8.68826e-17)
(1.00227 -0.00796492 2.02011e-17)
(0.99916 0.000120954 -4.47501e-18)
(0.999014 -0.00010997 -2.26521e-17)
(0.998852 -0.000401437 -3.88041e-17)
(0.998666 -0.000690467 4.1768e-18)
(0.998466 -0.000985222 6.10899e-17)
(0.998271 -0.00128061 2.67416e-17)
(0.998098 -0.00156308 -6.26955e-18)
(0.997962 -0.0018239 3.80842e-17)
(0.997871 -0.00205319 6.85335e-17)
(0.997828 -0.0022489 3.82188e-17)
(0.997828 -0.00241373 4.14199e-17)
(0.997865 -0.00255524 -2.3373e-19)
(0.997932 -0.00268637 8.31619e-17)
(0.998025 -0.00282105 4.49238e-17)
(0.998142 -0.00297405 9.62924e-17)
(0.998283 -0.00315564 -6.12344e-17)
(0.998452 -0.00337363 1.80821e-18)
(0.99865 -0.00362884 -1.27393e-16)
(0.99888 -0.00391955 -7.20902e-17)
(0.999142 -0.00423818 -4.14853e-18)
(0.999433 -0.0045766 5.61643e-17)
(0.999749 -0.0049238 -1.3047e-16)
(1.00008 -0.00527125 -4.81157e-17)
(1.00042 -0.00561052 -7.07855e-17)
(1.00075 -0.00593445 -1.53665e-16)
(1.00107 -0.00624278 -6.3257e-17)
(1.00136 -0.00653579 -3.72077e-16)
(1.00157 -0.00673605 -1.57158e-16)
(1.00164 -0.00694411 -2.02925e-17)
(1.00265 -0.00792036 2.60453e-17)
(0.999083 0.000153101 -3.53518e-18)
(0.998956 -6.86872e-05 -1.96888e-17)
(0.998806 -0.000358146 -2.96258e-18)
(0.998635 -0.000645495 -4.82149e-17)
(0.99845 -0.000939893 4.96117e-18)
(0.998267 -0.00123794 -6.53683e-18)
(0.998103 -0.00152657 1.72227e-17)
(0.997971 -0.00179734 3.80383e-17)
(0.99788 -0.00204035 -6.30729e-17)
(0.997836 -0.00225348 3.23931e-17)
(0.997835 -0.00243932 6.4595e-17)
(0.997874 -0.00260486 -4.53706e-17)
(0.99795 -0.00276212 1.61904e-16)
(0.998059 -0.00292352 -1.49584e-17)
(0.998199 -0.00310195 -2.27584e-16)
(0.998371 -0.00330551 -1.39585e-16)
(0.998575 -0.00353994 -5.98408e-17)
(0.998814 -0.00380431 -6.61667e-17)
(0.999085 -0.00409579 1.8726e-16)
(0.999387 -0.00440638 -1.25486e-17)
(0.999717 -0.00472829 -2.18812e-16)
(1.00007 -0.00505154 1.87217e-16)
(1.00043 -0.00536933 1.8638e-16)
(1.00079 -0.00567537 7.45951e-17)
(1.00113 -0.00596529 -9.40915e-17)
(1.00145 -0.00624124 -7.6164e-18)
(1.00174 -0.00650753 2.96997e-16)
(1.00195 -0.00669052 2.07503e-16)
(1.00202 -0.00690236 -1.72401e-17)
(1.00298 -0.00793027 -2.60079e-17)
(0.999006 0.000180528 4.56215e-18)
(0.998902 -3.395e-05 3.46886e-17)
(0.998771 -0.000320088 -2.1427e-17)
(0.998623 -0.000602897 4.04429e-17)
(0.998463 -0.000891334 -1.42862e-17)
(0.998305 -0.00118395 -1.23787e-16)
(0.998161 -0.00146913 2.04973e-17)
(0.998045 -0.00173986 -1.17387e-16)
(0.997967 -0.00198751 -3.95012e-17)
(0.99793 -0.00221068 -6.81483e-17)
(0.997936 -0.00241234 -1.56154e-16)
(0.997983 -0.00259888 -3.66155e-17)
(0.99807 -0.00278104 3.29425e-17)
(0.998195 -0.00296926 -4.41269e-17)
(0.998356 -0.00317409 3.2538e-16)
(0.998554 -0.00340121 2.52846e-17)
(0.998788 -0.00365418 4.06445e-17)
(0.999057 -0.00393052 9.39248e-17)
(0.99936 -0.00422652 -2.91248e-17)
(0.999692 -0.0045341 1.63441e-16)
(1.00005 -0.00484608 7.42792e-17)
(1.00042 -0.00515372 7.98287e-17)
(1.00079 -0.00545194 -1.90827e-16)
(1.00116 -0.00573632 3.49953e-17)
(1.00151 -0.00600468 2.61465e-17)
(1.00183 -0.00626082 -1.51983e-16)
(1.00211 -0.00651171 -7.48858e-17)
(1.00231 -0.0066858 -4.36435e-17)
(1.00238 -0.00690437 3.91624e-17)
(1.00327 -0.00798383 -2.00548e-18)
(0.99893 0.000203141 -6.37791e-18)
(0.99885 -6.18782e-06 -1.19529e-17)
(0.998741 -0.000288433 5.41118e-17)
(0.99862 -0.000565465 -6.15729e-17)
(0.998492 -0.000845159 -2.31011e-17)
(0.998365 -0.00112816 6.39403e-17)
(0.99825 -0.00140491 -7.41969e-17)
(0.998158 -0.00167061 1.04086e-16)
(0.998099 -0.00191849 1.35814e-16)
(0.998077 -0.0021484 1.13398e-17)
(0.998096 -0.00236383 1.09466e-16)
(0.998155 -0.00257053 -8.50339e-17)
(0.998256 -0.0027777 -1.23526e-16)
(0.998396 -0.00299353 -5.41856e-17)
(0.998576 -0.00322604 -4.58499e-17)
(0.998796 -0.0034784 1.6963e-16)
(0.999054 -0.0037521 -6.74055e-17)
(0.999347 -0.00404317 -1.75165e-16)
(0.999673 -0.00434727 3.96436e-17)
(1.00003 -0.00465636 -2.7067e-16)
(1.0004 -0.00496397 4.17872e-18)
(1.00078 -0.0052625 -2.6136e-16)
(1.00117 -0.00554832 2.19815e-16)
(1.00154 -0.00581851 -1.23742e-16)
(1.00188 -0.00607241 -4.18905e-17)
(1.00219 -0.00631488 6.98002e-17)
(1.00246 -0.00655464 -3.09186e-17)
(1.00265 -0.0067213 -1.25348e-16)
(1.00271 -0.00694314 1.34944e-17)
(1.00352 -0.00806615 5.10064e-18)
(0.998857 0.000221209 4.91933e-18)
(0.998799 1.45539e-05 -1.56993e-17)
(0.998713 -0.000264102 1.87961e-19)
(0.99862 -0.000535747 1.00559e-16)
(0.998524 -0.000806629 6.50368e-17)
(0.998431 -0.00107945 -5.59896e-18)
(0.998347 -0.00134703 1.76165e-16)
(0.998284 -0.00160709 -5.96842e-17)
(0.998248 -0.001855 -1.17402e-16)
(0.998246 -0.00209191 -4.2047e-17)
(0.998281 -0.00232179 -6.71519e-17)
(0.998355 -0.00254961 -7.9316e-17)
(0.998471 -0.00278286 9.31704e-17)
(0.998628 -0.00302738 1.64979e-16)
(0.998826 -0.00328862 -3.26902e-17)
(0.999064 -0.00356733 2.31859e-17)
(0.999341 -0.003863 -4.64244e-17)
(0.999654 -0.00417042 1.14787e-16)
(0.999997 -0.0044847 -1.01804e-16)
(1.00036 -0.00479792 1.34422e-16)
(1.00075 -0.00510426 -3.9658e-17)
(1.00114 -0.00539711 -1.59643e-17)
(1.00152 -0.00567403 -6.44813e-17)
(1.00189 -0.00593317 8.91881e-17)
(1.00223 -0.00617496 7.07762e-17)
(1.00252 -0.00640496 6.81933e-17)
(1.00279 -0.00663321 -3.46046e-17)
(1.00296 -0.00679004 7.35523e-17)
(1.00301 -0.00700904 2.49677e-17)
(1.00376 -0.00816421 6.05888e-18)
(0.998788 0.000235548 -4.49856e-18)
(0.998748 2.88714e-05 -1.19031e-17)
(0.998683 -0.000247518 -1.6706e-17)
(0.998617 -0.000515589 -5.45114e-17)
(0.998551 -0.000779823 -2.64618e-18)
(0.99849 -0.0010448 6.54924e-17)
(0.998437 -0.00130578 -1.25992e-16)
(0.998402 -0.00156299 3.3086e-17)
(0.998391 -0.0018138 7.95233e-17)
(0.998411 -0.00206049 7.32059e-17)
(0.998464 -0.00230732 6.4845e-17)
(0.998557 -0.00255825 -3.15213e-18)
(0.998689 -0.002819 2.02036e-17)
(0.998863 -0.00309301 -1.61699e-16)
(0.999078 -0.00338328 1.79942e-16)
(0.999334 -0.00368828 -7.35937e-17)
(0.999628 -0.00400576 -7.24128e-18)
(0.999957 -0.00432939 -6.29705e-17)
(1.00031 -0.0046539 8.65406e-17)
(1.00069 -0.00497151 -1.04764e-16)
(1.00108 -0.00527701 -9.73812e-17)
(1.00147 -0.00556461 7.27581e-17)
(1.00186 -0.00583284 -2.08157e-16)
(1.00222 -0.00608067 -1.39974e-16)
(1.00255 -0.00630934 6.09158e-17)
(1.00284 -0.00652499 -1.22205e-16)
(1.00309 -0.00673881 -4.51357e-17)
(1.00325 -0.00688169 1.33831e-17)
(1.00328 -0.00709107 -4.47449e-18)
(1.00397 -0.00826679 -2.72418e-17)
(0.998723 0.000246851 1.43093e-18)
(0.998694 3.73566e-05 2.42487e-17)
(0.998648 -0.000238935 -4.63942e-17)
(0.998605 -0.000506325 4.99747e-17)
(0.998566 -0.000767688 -1.42571e-17)
(0.998533 -0.00102916 -1.2637e-16)
(0.998509 -0.00128828 4.18693e-17)
(0.998501 -0.00154754 -2.7729e-17)
(0.998515 -0.00180595 -3.48421e-17)
(0.998556 -0.00206657 -3.20411e-17)
(0.99863 -0.00233367 3.42988e-17)
(0.998741 -0.00260998 1.4553e-16)
(0.998891 -0.00289938 -8.13213e-17)
(0.999083 -0.00320301 9.66058e-17)
(0.999316 -0.00352159 -1.75315e-16)
(0.999589 -0.00385156 -7.25214e-17)
(0.999899 -0.00418917 1.06842e-16)
(1.00024 -0.0045272 9.30697e-17)
(1.00061 -0.00486013 -5.67455e-17)
(1.001 -0.00518038 2.59084e-16)
(1.00139 -0.00548333 2.61122e-16)
(1.00179 -0.00576389 -1.26365e-16)
(1.00217 -0.00602143 1.72984e-16)
(1.00252 -0.00625563 7.04762e-17)
(1.00284 -0.0064684 -1.33342e-16)
(1.00312 -0.00666653 9.46082e-17)
(1.00336 -0.00686227 1.85408e-16)
(1.00351 -0.00698702 3.76561e-17)
(1.00353 -0.00718094 -2.42263e-17)
(1.00416 -0.00836686 1.91145e-17)
(0.998662 0.000255958 1.2254e-17)
(0.998638 4.08861e-05 3.36522e-18)
(0.998607 -0.000238253 3.4294e-17)
(0.998583 -0.000508585 -4.60697e-17)
(0.998566 -0.000771826 2.91135e-17)
(0.998557 -0.00103526 -1.71792e-17)
(0.998558 -0.00129841 6.9945e-17)
(0.998574 -0.00156561 -2.47192e-17)
(0.99861 -0.00183705 -3.37544e-17)
(0.998673 -0.00211614 -4.13701e-17)
(0.998768 -0.00240679 -1.32393e-16)
(0.998898 -0.00271038 4.47175e-17)
(0.999068 -0.00302891 2.61785e-17)
(0.999279 -0.00336138 4.6631e-17)
(0.99953 -0.00370648 -2.01631e-17)
(0.999821 -0.00405892 6.92217e-17)
(1.00015 -0.0044137 -1.56128e-16)
(1.0005 -0.00476298 -1.7185e-16)
(1.00088 -0.00510112 2.66291e-18)
(1.00128 -0.00542087 -1.7233e-16)
(1.00168 -0.00571814 3.58242e-18)
(1.00207 -0.00598856 1.18616e-16)
(1.00245 -0.00623226 -8.45668e-17)
(1.0028 -0.00644959 8.95646e-18)
(1.00311 -0.00664314 5.98101e-17)
(1.00338 -0.00682034 -3.35274e-17)
(1.00361 -0.00699456 -1.92769e-16)
(1.00374 -0.0070976 -9.52888e-17)
(1.00376 -0.0072714 2.74606e-17)
(1.00433 -0.00845925 2.09053e-17)
(0.998602 0.000263371 -8.75877e-18)
(0.998578 4.00465e-05 9.47993e-18)
(0.99856 -0.000245354 -1.31627e-17)
(0.99855 -0.000522622 3.03443e-17)
(0.99855 -0.000792902 -3.68894e-17)
(0.99856 -0.00106416 -2.34414e-17)
(0.998581 -0.00133747 -9.38627e-17)
(0.998618 -0.00161857 1.06641e-16)
(0.998676 -0.0019083 1.48688e-16)
(0.99876 -0.00221 3.51379e-17)
(0.998875 -0.0025269 2.52639e-17)
(0.999026 -0.00285891 -1.68432e-17)
(0.999217 -0.00320622 2.21291e-17)
(0.999447 -0.00356586 -7.34426e-18)
(0.999718 -0.00393477 1.16131e-16)
(1.00003 -0.00430628 4.69289e-17)
(1.00037 -0.00467444 5.95286e-17)
(1.00074 -0.00503101 9.97626e-18)
(1.00113 -0.00537042 1.40227e-16)
(1.00153 -0.00568582 8.64354e-17)
(1.00194 -0.00597374 -1.29802e-16)
(1.00233 -0.00623049 -9.46754e-17)
(1.00271 -0.00645698 6.78611e-17)
(1.00306 -0.00665421 1.60128e-17)
(1.00336 -0.00682549 1.29235e-17)
(1.00362 -0.00697897 -1.22355e-17)
(1.00384 -0.00712908 1.10147e-16)
(1.00396 -0.00720792 4.90812e-17)
(1.00397 -0.00735852 -1.27714e-16)
(1.00449 -0.00854209 -2.90411e-18)
(0.998542 0.000269596 4.00844e-18)
(0.998515 3.55394e-05 3.56797e-18)
(0.998505 -0.000259874 2.94013e-17)
(0.998505 -0.000548167 -1.4376e-17)
(0.998518 -0.000830602 -5.69423e-17)
(0.998543 -0.00111536 5.83757e-18)
(0.998581 -0.00140462 -9.85846e-17)
(0.998636 -0.00170502 2.4709e-17)
(0.998713 -0.00201759 -1.11224e-16)
(0.998817 -0.00234518 -3.59109e-17)
(0.998953 -0.00269013 -2.58495e-17)
(0.999126 -0.0030508 3.8453e-17)
(0.999337 -0.00342566 -2.84146e-17)
(0.999589 -0.00381003 5.21884e-18)
(0.999879 -0.0041994 -2.99398e-17)
(1.00021 -0.00458603 -1.16544e-16)
(1.00057 -0.00496334 -1.03039e-17)
(1.00095 -0.00532291 8.42141e-17)
(1.00135 -0.00565942 -9.71833e-17)
(1.00176 -0.00596654 7.12564e-17)
(1.00217 -0.00624145 -1.75276e-16)
(1.00257 -0.00648118 1.00857e-16)
(1.00294 -0.00668739 -1.42753e-16)
(1.00329 -0.00686182 4.9117e-17)
(1.00359 -0.00700846 -4.08864e-17)
(1.00384 -0.0071362 8.39342e-19)
(1.00404 -0.00726052 -6.43869e-17)
(1.00415 -0.0073136 -6.38946e-17)
(1.00416 -0.00743907 6.291e-17)
(1.00464 -0.00861414 6.4531e-18)
(0.998479 0.000274766 -1.0498e-17)
(0.998447 2.76772e-05 -3.81128e-17)
(0.998443 -0.000281499 -3.09197e-17)
(0.99845 -0.000584745 1.37717e-17)
(0.998471 -0.000884078 1.62732e-17)
(0.998508 -0.00118744 9.1571e-17)
(0.99856 -0.00149763 1.51851e-16)
(0.998631 -0.0018218 -1.75854e-16)
(0.998726 -0.00216069 2.68042e-17)
(0.998849 -0.00251639 -2.05459e-17)
(0.999006 -0.00289017 1.74631e-16)
(0.9992 -0.00327883 -6.52931e-17)
(0.999433 -0.0036793 -1.8765e-17)
(0.999706 -0.0040854 1.27032e-17)
(1.00002 -0.00449154 -1.49558e-16)
(1.00036 -0.00488918 4.49945e-17)
(1.00074 -0.00527138 3.27831e-17)
(1.00114 -0.0056298 2.21223e-17)
(1.00155 -0.00595951 3.61482e-17)
(1.00197 -0.00625478 -4.13533e-17)
(1.00238 -0.00651349 4.8792e-17)
(1.00278 -0.00673343 -8.53885e-17)
(1.00316 -0.00691704 1.23638e-16)
(1.0035 -0.00706674 1.11564e-16)
(1.00379 -0.00718726 1.50255e-16)
(1.00403 -0.00728822 -8.39206e-18)
(1.00423 -0.00738601 2.39343e-17)
(1.00433 -0.0074128 8.39924e-18)
(1.00432 -0.00751239 -2.30148e-17)
(1.00478 -0.00867631 -1.64979e-17)
(0.998413 0.000279057 8.94182e-18)
(0.998375 1.68892e-05 2.36369e-17)
(0.998373 -0.000309698 -3.25464e-18)
(0.998385 -0.000631506 8.80028e-18)
(0.998413 -0.000951886 -3.1565e-18)
(0.998458 -0.00127816 -5.95621e-17)
(0.998522 -0.00161329 -2.92147e-18)
(0.998607 -0.00196457 6.75826e-17)
(0.998718 -0.00233214 9.1599e-17)
(0.99886 -0.00271708 1.66585e-16)
(0.999037 -0.0031195 5.56284e-17)
(0.999252 -0.00353473 5.72544e-17)
(0.999507 -0.00395831 -5.31519e-17)
(0.999802 -0.00438286 -8.74258e-17)
(1.00013 -0.00480197 2.2482e-16)
(1.0005 -0.00520661 1.10814e-16)
(1.00089 -0.00558975 -2.05777e-16)
(1.0013 -0.00594327 -1.14012e-16)
(1.00173 -0.00626278 -2.04029e-16)
(1.00215 -0.00654323 -8.88448e-17)
(1.00257 -0.00678324 1.00349e-16)
(1.00297 -0.00698136 1.66274e-16)
(1.00335 -0.00714078 -2.38635e-16)
(1.00368 -0.00726466 -4.60125e-17)
(1.00397 -0.00735838 -1.27215e-16)
(1.00421 -0.00743226 4.06346e-17)
(1.0044 -0.00750352 -8.20873e-17)
(1.00449 -0.00750408 -7.67374e-17)
(1.00448 -0.00757768 2.83137e-17)
(1.0049 -0.00872907 -1.02313e-17)
(0.99834 0.000282397 1.44929e-18)
(0.998297 3.26628e-06 1.68502e-17)
(0.998297 -0.000343992 2.13022e-17)
(0.998311 -0.000687515 -3.64636e-17)
(0.998343 -0.00103237 2.21398e-17)
(0.998396 -0.00138495 3.30578e-17)
(0.998469 -0.00174796 -5.02318e-17)
(0.998567 -0.00212854 5.01199e-17)
(0.998694 -0.00252603 7.98858e-18)
(0.998854 -0.00294033 -1.83695e-16)
(0.999051 -0.00337041 -7.34287e-17)
(0.999287 -0.0038102 -8.74041e-17)
(0.999564 -0.00425409 1.31679e-17)
(0.999879 -0.00469373 6.75765e-17)
(1.00023 -0.00512218 -1.24449e-16)
(1.00061 -0.00553018 -5.65257e-17)
(1.00102 -0.00591078 1.82531e-16)
(1.00145 -0.00625627 1.88648e-16)
(1.00188 -0.00656289 2.88539e-17)
(1.00232 -0.0068263 1.48109e-16)
(1.00274 -0.0070459 -8.09652e-17)
(1.00315 -0.00722097 7.98213e-18)
(1.00352 -0.00735546 3.43345e-16)
(1.00385 -0.00745319 -1.2292e-16)
(1.00414 -0.00752018 -2.73666e-17)
(1.00437 -0.00756739 -5.15951e-17)
(1.00455 -0.00761271 -1.06834e-17)
(1.00463 -0.0075877 2.01902e-16)
(1.00462 -0.00763592 3.51048e-17)
(1.00501 -0.0087743 1.85875e-17)
(0.998261 0.000284863 -2.54115e-18)
(0.998214 -1.28864e-05 -2.49965e-17)
(0.998214 -0.000383686 8.89801e-20)
(0.998229 -0.000751564 -1.30617e-17)
(0.998265 -0.00112356 -1.46662e-17)
(0.998323 -0.00150491 -4.26987e-17)
(0.998406 -0.00189773 -7.11544e-18)
(0.998516 -0.00230879 -7.50258e-17)
(0.998657 -0.00273645 -1.3307e-16)
(0.998834 -0.00317943 1.01463e-16)
(0.999051 -0.00363556 -2.04754e-16)
(0.999308 -0.00409755 2.65775e-17)
(0.999605 -0.00455882 2.24349e-17)
(0.999941 -0.00501033 5.50279e-17)
(1.00031 -0.0054448 -4.37864e-17)
(1.00071 -0.00585299 -1.80755e-17)
(1.00114 -0.00622818 2.08312e-17)
(1.00158 -0.00656318 -1.9274e-16)
(1.00202 -0.00685493 1.28947e-16)
(1.00247 -0.00709983 -1.62647e-17)
(1.00289 -0.00729803 5.43365e-17)
(1.0033 -0.00744953 1.40762e-16)
(1.00367 -0.00755898 -2.22983e-16)
(1.00401 -0.00763083 1.1041e-17)
(1.00429 -0.00767169 4.08254e-17)
(1.00451 -0.00769306 -4.62717e-17)
(1.00469 -0.00771338 2.01066e-16)
(1.00476 -0.00766373 9.39339e-19)
(1.00474 -0.00768734 -3.2746e-17)
(1.00511 -0.00881293 -9.89055e-18)
(0.998174 0.000286391 -6.11499e-18)
(0.998126 -3.1521e-05 3.20547e-19)
(0.998124 -0.000428142 1.35824e-17)
(0.99814 -0.000822449 -7.7429e-18)
(0.998178 -0.00122348 -2.79997e-18)
(0.998242 -0.0016352 -2.78563e-17)
(0.998333 -0.00205884 3.69746e-17)
(0.998454 -0.00250062 4.13376e-17)
(0.99861 -0.00295792 -4.84646e-17)
(0.998804 -0.00342825 3.68589e-17)
(0.999039 -0.00390842 2.79755e-16)
(0.999316 -0.00439007 6.50489e-17)
(0.999633 -0.00486587 -1.49161e-16)
(0.99999 -0.00532627 -4.29525e-17)
(1.00038 -0.00576391 9.15048e-17)
(1.0008 -0.00616968 3.08991e-17)
(1.00124 -0.00653725 9.71131e-17)
(1.00169 -0.00686001 1.30734e-16)
(1.00215 -0.00713563 1.03251e-16)
(1.00259 -0.00736125 -1.09244e-16)
(1.00303 -0.00753774 -1.36405e-16)
(1.00344 -0.00766578 -1.97565e-16)
(1.00381 -0.00775066 1.64986e-17)
(1.00414 -0.00779744 9.77151e-17)
(1.00442 -0.00781319 1.11131e-16)