1.45 	0 	0 	-0.305032
2.35 	0 	0 	-0.134033
