/*--------------------------------*- C++ -*----------------------------------*\
  =========                 |
  \\      /  F ield         | OpenFOAM: The Open Source CFD Toolbox
   \\    /   O peration     | Website:  https://openfoam.org
    \\  /    A nd           | Version:  6.0
     \\/     M anipulation  |
\*---------------------------------------------------------------------------*/
FoamFile
{
    version     2.0;
    format      ascii;
    class       volScalarField;
    location    "3.8";
    object      p;
}
// * * * * * * * * * * * * * * * * * * * * * * * * * * * * * * * * * * * * * //

dimensions      [0 2 -2 0 0 0 0];

internalField   nonuniform List<scalar> 
24000
(
1.00675
1.00681
1.00644
1.00581
1.00486
1.00381
1.00276
1.00185
1.00107
1.00052
1.00006
0.999751
1.00676
1.00687
1.00661
1.00611
1.00526
1.00429
1.00324
1.00227
1.00138
1.00071
1.00008
0.999664
1.00676
1.00685
1.00656
1.00603
1.00517
1.0042
1.00317
1.00222
1.00135
1.00071
1.00009
0.999716
1.00676
1.00683
1.0065
1.00594
1.00507
1.0041
1.00309
1.00217
1.00134
1.00072
1.0001
0.99974
1.00676
1.00682
1.0065
1.00594
1.00507
1.00411
1.00311
1.0022
1.00137
1.00074
1.0001
0.999716
1.00677
1.00683
1.00651
1.00596
1.0051
1.00414
1.00314
1.00221
1.00138
1.00074
1.00008
0.999679
1.00677
1.00683
1.00652
1.00597
1.00511
1.00415
1.00314
1.00222
1.00137
1.00073
1.00006
0.999654
1.00678
1.00683
1.00652
1.00598
1.00513
1.00417
1.00316
1.00224
1.00139
1.00075
1.00006
0.999642
1.00678
1.00683
1.00653
1.006
1.00516
1.00421
1.00321
1.00228
1.00143
1.00078
1.00007
0.999633
1.00679
1.00684
1.00654
1.00602
1.00519
1.00425
1.00325
1.00233
1.00147
1.0008
1.00008
0.999617
1.0068
1.00684
1.00654
1.00603
1.00521
1.00427
1.00328
1.00236
1.00149
1.00082
1.00007
0.999597
1.00681
1.00684
1.00654
1.00603
1.00522
1.00429
1.0033
1.00237
1.0015
1.00082
1.00007
0.999575
1.00682
1.00685
1.00655
1.00603
1.00522
1.0043
1.00331
1.00238
1.00151
1.00081
1.00006
0.999557
1.00683
1.00685
1.00655
1.00603
1.00523
1.00431
1.00332
1.00239
1.00152
1.00082
1.00005
0.999541
1.00684
1.00686
1.00656
1.00604
1.00524
1.00432
1.00334
1.00241
1.00153
1.00082
1.00005
0.999528
1.00685
1.00688
1.00657
1.00605
1.00525
1.00434
1.00336
1.00243
1.00155
1.00083
1.00005
0.999516
1.00686
1.00689
1.00659
1.00606
1.00526
1.00436
1.00338
1.00245
1.00156
1.00084
1.00006
0.999505
1.00688
1.0069
1.00661
1.00608
1.00528
1.00438
1.00341
1.00247
1.00158
1.00085
1.00006
0.999495
1.00689
1.00692
1.00663
1.0061
1.00531
1.0044
1.00343
1.0025
1.0016
1.00086
1.00006
0.999486
1.00691
1.00694
1.00665
1.00613
1.00533
1.00443
1.00346
1.00252
1.00162
1.00088
1.00007
0.999478
1.00692
1.00696
1.00667
1.00616
1.00536
1.00446
1.00349
1.00255
1.00164
1.00089
1.00007
0.99947
1.00694
1.00698
1.0067
1.00618
1.00539
1.0045
1.00352
1.00258
1.00166
1.0009
1.00008
0.999462
1.00695
1.007
1.00672
1.00621
1.00543
1.00453
1.00355
1.00261
1.00168
1.00091
1.00008
0.999454
1.00697
1.00701
1.00674
1.00623
1.00545
1.00456
1.00358
1.00263
1.0017
1.00092
1.00008
0.999446
1.00699
1.00703
1.00676
1.00625
1.00548
1.00459
1.00361
1.00266
1.00172
1.00093
1.00009
0.999438
1.007
1.00705
1.00677
1.00628
1.0055
1.00461
1.00364
1.00268
1.00174
1.00094
1.00009
0.999431
1.00702
1.00707
1.00679
1.0063
1.00553
1.00464
1.00366
1.0027
1.00176
1.00095
1.00009
0.999424
1.00704
1.00708
1.00681
1.00632
1.00555
1.00467
1.00369
1.00272
1.00177
1.00096
1.0001
0.999416
1.00706
1.0071
1.00683
1.00634
1.00558
1.00469
1.00371
1.00275
1.00179
1.00097
1.0001
0.999409
1.00708
1.00712
1.00685
1.00636
1.0056
1.00472
1.00374
1.00277
1.00181
1.00097
1.0001
0.999401
1.0071
1.00715
1.00687
1.00639
1.00563
1.00475
1.00376
1.00279
1.00182
1.00098
1.0001
0.999393
1.00713
1.00717
1.0069
1.00641
1.00565
1.00477
1.00379
1.00281
1.00184
1.00099
1.0001
0.999384
1.00715
1.00719
1.00692
1.00644
1.00568
1.0048
1.00381
1.00283
1.00185
1.00099
1.0001
0.999376
1.00717
1.00722
1.00694
1.00646
1.0057
1.00482
1.00384
1.00285
1.00187
1.001
1.0001
0.999367
1.0072
1.00724
1.00697
1.00649
1.00573
1.00485
1.00386
1.00287
1.00188
1.001
1.0001
0.999359
1.00723
1.00727
1.007
1.00651
1.00576
1.00488
1.00389
1.00289
1.00189
1.00101
1.0001
0.999351
1.00725
1.0073
1.00703
1.00654
1.00578
1.0049
1.00391
1.00291
1.00191
1.00101
1.0001
0.999342
1.00728
1.00733
1.00706
1.00657
1.00581
1.00493
1.00394
1.00293
1.00192
1.00102
1.0001
0.999333
1.00731
1.00736
1.00709
1.0066
1.00584
1.00496
1.00396
1.00295
1.00194
1.00102
1.0001
0.999325
1.00734
1.00739
1.00712
1.00664
1.00588
1.00499
1.00399
1.00298
1.00195
1.00103
1.0001
0.999315
1.00738
1.00743
1.00716
1.00668
1.00591
1.00503
1.00402
1.003
1.00197
1.00104
1.0001
0.999306
1.00741
1.00746
1.0072
1.00671
1.00595
1.00506
1.00405
1.00302
1.00199
1.00104
1.0001
0.999295
1.00744
1.0075
1.00723
1.00675
1.00599
1.0051
1.00408
1.00305
1.002
1.00105
1.00009
0.999284
1.00748
1.00754
1.00727
1.00679
1.00603
1.00513
1.00412
1.00307
1.00202
1.00105
1.00009
0.999272
1.00751
1.00757
1.00731
1.00683
1.00607
1.00517
1.00415
1.0031
1.00203
1.00106
1.00009
0.999259
1.00755
1.00761
1.00735
1.00687
1.00611
1.00521
1.00418
1.00312
1.00205
1.00106
1.00008
0.999245
1.00759
1.00765
1.00739
1.00691
1.00614
1.00524
1.00421
1.00314
1.00206
1.00106
1.00008
0.999231
1.00762
1.00769
1.00743
1.00695
1.00618
1.00528
1.00424
1.00316
1.00207
1.00106
1.00007
0.999216
1.00766
1.00773
1.00747
1.00699
1.00622
1.00531
1.00427
1.00319
1.00208
1.00106
1.00007
0.999199
1.0077
1.00777
1.00751
1.00703
1.00626
1.00535
1.0043
1.00321
1.0021
1.00107
1.00006
0.999182
1.00774
1.00781
1.00755
1.00708
1.0063
1.00538
1.00433
1.00323
1.00211
1.00107
1.00005
0.999164
1.00779
1.00785
1.00759
1.00712
1.00634
1.00542
1.00436
1.00325
1.00212
1.00107
1.00004
0.999146
1.00783
1.0079
1.00764
1.00716
1.00638
1.00546
1.00438
1.00327
1.00213
1.00107
1.00003
0.999127
1.00787
1.00794
1.00768
1.00721
1.00642
1.00549
1.00441
1.00329
1.00214
1.00106
1.00002
0.999107
1.00792
1.00799
1.00773
1.00725
1.00646
1.00553
1.00444
1.00331
1.00215
1.00106
1.00001
0.999086
1.00797
1.00804
1.00778
1.0073
1.00651
1.00557
1.00447
1.00333
1.00216
1.00106
0.999998
0.999065
1.00801
1.00809
1.00783
1.00735
1.00655
1.00561
1.00451
1.00335
1.00217
1.00106
0.999985
0.999044
1.00806
1.00814
1.00788
1.0074
1.0066
1.00565
1.00454
1.00337
1.00218
1.00105
0.999972
0.999022
1.00811
1.00819
1.00793
1.00745
1.00664
1.00569
1.00457
1.0034
1.00219
1.00105
0.999958
0.999
1.00817
1.00825
1.00799
1.0075
1.00669
1.00573
1.0046
1.00342
1.0022
1.00105
0.999944
0.998976
1.00822
1.0083
1.00804
1.00756
1.00674
1.00577
1.00464
1.00344
1.00221
1.00104
0.999929
0.998952
1.00827
1.00836
1.0081
1.00761
1.00679
1.00581
1.00467
1.00346
1.00222
1.00104
0.999913
0.998927
1.00833
1.00842
1.00816
1.00767
1.00685
1.00586
1.0047
1.00348
1.00222
1.00103
0.999897
0.998901
1.00838
1.00848
1.00822
1.00773
1.0069
1.00591
1.00474
1.00351
1.00223
1.00103
0.99988
0.998873
1.00844
1.00854
1.00828
1.00779
1.00695
1.00595
1.00478
1.00353
1.00224
1.00102
0.999862
0.998844
1.0085
1.0086
1.00834
1.00785
1.00701
1.006
1.00481
1.00355
1.00225
1.00101
0.999843
0.998814
1.00856
1.00867
1.00841
1.00791
1.00706
1.00605
1.00485
1.00357
1.00226
1.00101
0.999823
0.998783
1.00862
1.00873
1.00847
1.00797
1.00712
1.00609
1.00488
1.00359
1.00226
1.001
0.999802
0.998751
1.00869
1.0088
1.00854
1.00804
1.00718
1.00614
1.00492
1.00362
1.00227
1.00099
0.99978
0.998717
1.00875
1.00887
1.0086
1.0081
1.00724
1.00619
1.00495
1.00364
1.00227
1.00098
0.999757
0.998683
1.00882
1.00893
1.00867
1.00817
1.00729
1.00624
1.00499
1.00366
1.00228
1.00097
0.999733
0.998647
1.00888
1.00901
1.00874
1.00823
1.00735
1.00629
1.00502
1.00368
1.00228
1.00095
0.999707
0.998611
1.00895
1.00908
1.00881
1.0083
1.00741
1.00634
1.00506
1.0037
1.00228
1.00094
0.999681
0.998574
1.00902
1.00915
1.00888
1.00837
1.00748
1.00639
1.0051
1.00372
1.00229
1.00093
0.999654
0.998537
1.0091
1.00923
1.00896
1.00844
1.00754
1.00644
1.00513
1.00374
1.00229
1.00092
0.999627
0.998499
1.00917
1.00931
1.00903
1.00852
1.0076
1.0065
1.00517
1.00376
1.00229
1.0009
0.999598
0.998459
1.00925
1.00938
1.00911
1.00859
1.00767
1.00655
1.00521
1.00378
1.0023
1.00089
0.999569
0.998419
1.00933
1.00947
1.00919
1.00867
1.00774
1.0066
1.00525
1.0038
1.0023
1.00087
0.999539
0.998378
1.00941
1.00955
1.00927
1.00875
1.00781
1.00666
1.00529
1.00383
1.0023
1.00086
0.999509
0.998336
1.00949
1.00963
1.00935
1.00883
1.00788
1.00672
1.00533
1.00385
1.00231
1.00084
0.999478
0.998293
1.00957
1.00972
1.00944
1.00891
1.00795
1.00678
1.00537
1.00387
1.00231
1.00083
0.999446
0.998248
1.00966
1.00981
1.00953
1.00899
1.00802
1.00684
1.00541
1.0039
1.00231
1.00081
0.999412
0.998202
1.00974
1.0099
1.00962
1.00908
1.0081
1.0069
1.00546
1.00392
1.00232
1.0008
0.999378
0.998155
1.00983
1.00999
1.00971
1.00917
1.00818
1.00697
1.0055
1.00394
1.00232
1.00078
0.999343
0.998105
1.00993
1.01009
1.0098
1.00926
1.00825
1.00703
1.00555
1.00397
1.00232
1.00076
0.999306
0.998055
1.01002
1.01018
1.0099
1.00935
1.00834
1.0071
1.00559
1.00399
1.00233
1.00074
0.999268
0.998002
1.01011
1.01028
1.00999
1.00944
1.00842
1.00716
1.00564
1.00402
1.00233
1.00072
0.99923
0.997948
1.01021
1.01038
1.01009
1.00954
1.0085
1.00723
1.00569
1.00405
1.00233
1.0007
0.999189
0.997892
1.01031
1.01049
1.01019
1.00964
1.00859
1.0073
1.00574
1.00407
1.00233
1.00068
0.999147
0.997835
1.01041
1.01059
1.0103
1.00973
1.00867
1.00737
1.00579
1.0041
1.00233
1.00066
0.999103
0.997775
1.01052
1.0107
1.0104
1.00984
1.00876
1.00745
1.00584
1.00413
1.00233
1.00063
0.999059
0.997713
1.01062
1.01081
1.01051
1.00994
1.00885
1.00752
1.00589
1.00415
1.00233
1.00061
0.999012
0.997649
1.01073
1.01092
1.01062
1.01005
1.00895
1.0076
1.00594
1.00418
1.00233
1.00058
0.998964
0.997584
1.01084
1.01103
1.01073
1.01015
1.00904
1.00768
1.00599
1.00421
1.00233
1.00055
0.998914
0.997516
1.01095
1.01115
1.01085
1.01027
1.00914
1.00776
1.00605
1.00424
1.00233
1.00053
0.998863
0.997447
1.01107
1.01127
1.01097
1.01038
1.00924
1.00784
1.0061
1.00426
1.00233
1.0005
0.99881
0.997375
1.01118
1.01139
1.01109
1.0105
1.00934
1.00792
1.00616
1.00429
1.00233
1.00047
0.998756
0.997301
1.0113
1.01151
1.01121
1.01061
1.00945
1.00801
1.00622
1.00432
1.00232
1.00044
0.998699
0.997224
1.01143
1.01164
1.01134
1.01074
1.00956
1.00809
1.00628
1.00435
1.00232
1.0004
0.998641
0.997146
1.01155
1.01177
1.01147
1.01086
1.00967
1.00818
1.00634
1.00438
1.00232
1.00037
0.99858
0.997064
1.01168
1.0119
1.01161
1.01099
1.00978
1.00827
1.0064
1.00441
1.00231
1.00034
0.998519
0.996981
1.01181
1.01204
1.01174
1.01112
1.0099
1.00837
1.00646
1.00444
1.00231
1.0003
0.998454
0.996895
1.01194
1.01218
1.01188
1.01125
1.01002
1.00846
1.00652
1.00447
1.0023
1.00026
0.998388
0.996807
1.01207
1.01232
1.01203
1.01139
1.01014
1.00856
1.00659
1.0045
1.0023
1.00022
0.998319
0.996715
1.01221
1.01246
1.01217
1.01153
1.01026
1.00865
1.00665
1.00453
1.00229
1.00018
0.998249
0.996621
1.01235
1.01261
1.01232
1.01167
1.01039
1.00875
1.00672
1.00456
1.00228
1.00014
0.998175
0.996524
1.0125
1.01276
1.01247
1.01182
1.01051
1.00886
1.00679
1.00459
1.00228
1.00009
0.9981
0.996425
1.01264
1.01292
1.01263
1.01196
1.01064
1.00896
1.00685
1.00462
1.00227
1.00005
0.998021
0.996321
1.01279
1.01308
1.01279
1.01212
1.01078
1.00906
1.00692
1.00465
1.00226
1
0.997941
0.996216
1.01295
1.01324
1.01295
1.01227
1.01091
1.00917
1.00699
1.00468
1.00224
0.99995
0.997858
0.996107
1.0131
1.0134
1.01312
1.01243
1.01105
1.00928
1.00706
1.00471
1.00223
0.999898
0.997772
0.995995
1.01326
1.01357
1.01328
1.01259
1.01119
1.00939
1.00713
1.00474
1.00222
0.999843
0.997683
0.995879
1.01342
1.01374
1.01346
1.01275
1.01134
1.0095
1.00721
1.00477
1.0022
0.999787
0.997592
0.995761
1.01359
1.01392
1.01363
1.01292
1.01148
1.00961
1.00728
1.0048
1.00219
0.999728
0.997497
0.995638
1.01376
1.0141
1.01381
1.01309
1.01163
1.00973
1.00735
1.00483
1.00217
0.999668
0.9974
0.995513
1.01393
1.01428
1.01399
1.01326
1.01178
1.00985
1.00743
1.00486
1.00215
0.999604
0.9973
0.995383
1.01411
1.01447
1.01418
1.01344
1.01194
1.00997
1.00751
1.00489
1.00213
0.999539
0.997197
0.995251
1.01429
1.01466
1.01437
1.01362
1.01209
1.01009
1.00758
1.00492
1.00211
0.999471
0.99709
0.995113
1.01447
1.01485
1.01457
1.0138
1.01225
1.01021
1.00766
1.00494
1.00209
0.999401
0.99698
0.994973
1.01466
1.01505
1.01476
1.01399
1.01242
1.01034
1.00774
1.00497
1.00207
0.999327
0.996866
0.994828
1.01485
1.01525
1.01497
1.01418
1.01258
1.01046
1.00782
1.005
1.00204
0.999252
0.99675
0.99468
1.01505
1.01546
1.01517
1.01438
1.01275
1.01059
1.0079
1.00503
1.00201
0.999173
0.996629
0.994526
1.01525
1.01567
1.01538
1.01458
1.01293
1.01073
1.00798
1.00505
1.00199
0.999092
0.996505
0.99437
1.01545
1.01589
1.0156
1.01478
1.0131
1.01086
1.00807
1.00508
1.00195
0.999007
0.996376
0.994208
1.01566
1.01611
1.01582
1.01499
1.01328
1.011
1.00815
1.0051
1.00192
0.99892
0.996245
0.994042
1.01587
1.01633
1.01604
1.0152
1.01346
1.01114
1.00823
1.00513
1.00189
0.998828
0.996108
0.993871
1.01609
1.01656
1.01627
1.01541
1.01365
1.01128
1.00832
1.00515
1.00185
0.998735
0.995969
0.993696
1.01631
1.01679
1.01651
1.01563
1.01384
1.01142
1.0084
1.00517
1.00181
0.998637
0.995823
0.993515
1.01654
1.01703
1.01674
1.01586
1.01403
1.01157
1.00849
1.0052
1.00177
0.998536
0.995675
0.99333
1.01677
1.01728
1.01699
1.01609
1.01423
1.01171
1.00858
1.00522
1.00173
0.998431
0.995521
0.993139
1.01701
1.01753
1.01723
1.01632
1.01443
1.01186
1.00867
1.00524
1.00168
0.998323
0.995363
0.992944
1.01725
1.01778
1.01749
1.01656
1.01463
1.01201
1.00875
1.00526
1.00163
0.99821
0.9952
0.992742
1.01749
1.01804
1.01775
1.0168
1.01484
1.01217
1.00884
1.00527
1.00158
0.998095
0.995033
0.992536
1.01774
1.0183
1.01801
1.01705
1.01505
1.01233
1.00893
1.00529
1.00153
0.997974
0.994859
0.992323
1.018
1.01858
1.01828
1.0173
1.01527
1.01248
1.00902
1.00531
1.00147
0.99785
0.994682
0.992106
1.01826
1.01885
1.01855
1.01756
1.01549
1.01265
1.00912
1.00532
1.00141
0.997721
0.994498
0.991881
1.01853
1.01913
1.01884
1.01782
1.01571
1.01281
1.00921
1.00533
1.00135
0.997589
0.99431
0.991652
1.0188
1.01942
1.01912
1.01809
1.01594
1.01298
1.0093
1.00535
1.00128
0.99745
0.994115
0.991414
1.01908
1.01972
1.01942
1.01836
1.01617
1.01315
1.00939
1.00536
1.00121
0.997309
0.993916
0.991172
1.01936
1.02002
1.01971
1.01864
1.01641
1.01332
1.00949
1.00537
1.00114
0.997161
0.993709
0.990922
1.01965
1.02033
1.02002
1.01893
1.01665
1.01349
1.00958
1.00537
1.00107
0.997009
0.993497
0.990667
1.01995
1.02064
1.02033
1.01922
1.01689
1.01367
1.00968
1.00538
1.00099
0.996851
0.993278
0.990403
1.02025
1.02096
1.02065
1.01952
1.01715
1.01385
1.00977
1.00538
1.0009
0.996689
0.993054
0.990133
1.02056
1.02129
1.02098
1.01982
1.0174
1.01403
1.00987
1.00538
1.00082
0.99652
0.992821
0.989855
1.02088
1.02163
1.02131
1.02013
1.01766
1.01422
1.00996
1.00538
1.00072
0.996346
0.992583
0.989571
1.0212
1.02197
1.02165
1.02045
1.01793
1.01441
1.01006
1.00538
1.00063
0.996165
0.992337
0.989277
1.02153
1.02232
1.022
1.02077
1.0182
1.0146
1.01016
1.00537
1.00053
0.99598
0.992085
0.988977
1.02187
1.02268
1.02235
1.02111
1.01847
1.01479
1.01025
1.00537
1.00042
0.995786
0.991824
0.988667
1.02221
1.02304
1.02272
1.02144
1.01876
1.01499
1.01035
1.00536
1.00031
0.995588
0.991556
0.988351
1.02256
1.02342
1.02309
1.02179
1.01904
1.01519
1.01045
1.00534
1.0002
0.995381
0.991279
0.988024
1.02292
1.0238
1.02347
1.02214
1.01934
1.01539
1.01054
1.00533
1.00007
0.995168
0.990996
0.98769
1.02329
1.02419
1.02386
1.0225
1.01963
1.0156
1.01064
1.00531
0.999948
0.994947
0.990702
0.987345
1.02367
1.0246
1.02426
1.02287
1.01994
1.01581
1.01073
1.00528
0.999816
0.99472
0.990402
0.986993
1.02405
1.02501
1.02467
1.02325
1.02025
1.01602
1.01083
1.00526
0.999677
0.994483
0.990091
0.98663
1.02445
1.02543
1.02508
1.02363
1.02057
1.01624
1.01092
1.00523
0.999533
0.99424
0.989772
0.986259
1.02485
1.02585
1.02551
1.02403
1.02089
1.01645
1.01102
1.00519
0.999381
0.993987
0.989442
0.985875
1.02526
1.02629
1.02594
1.02443
1.02122
1.01668
1.01111
1.00515
0.999223
0.993727
0.989105
0.985484
1.02569
1.02674
1.02639
1.02484
1.02155
1.0169
1.0112
1.00511
0.999057
0.993457
0.988755
0.98508
1.02612
1.0272
1.02685
1.02526
1.0219
1.01713
1.0113
1.00506
0.998885
0.993179
0.988397
0.984667
1.02656
1.02768
1.02732
1.02569
1.02225
1.01736
1.01139
1.00501
0.998704
0.992889
0.988027
0.98424
1.02702
1.02816
1.0278
1.02614
1.0226
1.01759
1.01147
1.00495
0.998516
0.992592
0.987647
0.983805
1.02748
1.02865
1.02829
1.02659
1.02297
1.01782
1.01156
1.00489
0.998318
0.992282
0.987254
0.983355
1.02795
1.02916
1.02879
1.02705
1.02334
1.01806
1.01165
1.00482
0.998112
0.991964
0.986851
0.982896
1.02844
1.02968
1.02931
1.02752
1.02372
1.0183
1.01173
1.00474
0.997896
0.991633
0.986435
0.982422
1.02894
1.03021
1.02984
1.02801
1.02411
1.01855
1.01181
1.00466
0.997671
0.991292
0.986008
0.981937
1.02945
1.03076
1.03038
1.0285
1.0245
1.01879
1.01188
1.00457
0.997435
0.990937
0.985566
0.981438
1.02997
1.03132
1.03094
1.02901
1.0249
1.01904
1.01196
1.00447
0.99719
0.990572
0.985113
0.980927
1.03051
1.03189
1.0315
1.02953
1.02531
1.01929
1.01203
1.00436
0.996932
0.990192
0.984645
0.9804
1.03106
1.03248
1.03209
1.03006
1.02573
1.01955
1.0121
1.00425
0.996663
0.989801
0.984165
0.979861
1.03162
1.03308
1.03269
1.03061
1.02616
1.0198
1.01216
1.00413
0.996382
0.989395
0.983668
0.979305
1.0322
1.0337
1.03331
1.03117
1.02659
1.02006
1.01222
1.00399
0.996089
0.988975
0.983158
0.978737
1.03279
1.03433
1.03394
1.03174
1.02704
1.02032
1.01227
1.00385
0.995781
0.98854
0.982632
0.978151
1.0334
1.03499
1.03459
1.03233
1.02749
1.02058
1.01232
1.00369
0.995461
0.988091
0.982091
0.977551
1.03403
1.03566
1.03525
1.03293
1.02795
1.02084
1.01236
1.00353
0.995124
0.987624
0.981532
0.976934
1.03467
1.03634
1.03594
1.03355
1.02842
1.0211
1.01239
1.00335
0.994774
0.987143
0.980958
0.976302
1.03532
1.03705
1.03664
1.03418
1.0289
1.02136
1.01242
1.00316
0.994407
0.986643
0.980366
0.975651
1.036
1.03777
1.03736
1.03483
1.02939
1.02162
1.01243
1.00296
0.994024
0.986126
0.979757
0.974984
1.03669
1.03852
1.0381
1.0355
1.02988
1.02188
1.01244
1.00274
0.993622
0.98559
0.979128
0.974298
1.0374
1.03929
1.03887
1.03618
1.03039
1.02214
1.01244
1.0025
0.993204
0.985036
0.978482
0.973595
1.03813
1.04007
1.03965
1.03688
1.0309
1.0224
1.01243
1.00225
0.992765
0.984461
0.977815
0.972871
1.03888
1.04088
1.04046
1.0376
1.03143
1.02266
1.01241
1.00198
0.992307
0.983867
0.97713
0.97213
1.03965
1.04172
1.04129
1.03834
1.03196
1.02291
1.01237
1.00169
0.991827
0.983251
0.976422
0.971368
1.04044
1.04258
1.04215
1.03909
1.0325
1.02316
1.01232
1.00139
0.991326
0.982613
0.975695
0.970587
1.04126
1.04346
1.04303
1.03987
1.03305
1.02341
1.01226
1.00106
0.990801
0.981952
0.974944
0.969783
1.0421
1.04437
1.04394
1.04067
1.03361
1.02365
1.01218
1.00071
0.990253
0.981268
0.974172
0.96896
1.04296
1.04531
1.04487
1.04148
1.03417
1.02388
1.01208
1.00034
0.989678
0.980558
0.973375
0.968113
1.04385
1.04627
1.04583
1.04232
1.03475
1.02411
1.01197
0.999938
0.989079
0.979823
0.972556
0.967245
1.04476
1.04727
1.04683
1.04318
1.03533
1.02432
1.01183
0.999513
0.98845
0.979061
0.971711
0.966353
1.0457
1.0483
1.04785
1.04407
1.03592
1.02453
1.01167
0.999061
0.987794
0.978274
0.970842
0.965439
1.04667
1.04936
1.04891
1.04497
1.03651
1.02472
1.01148
0.998578
0.987107
0.977456
0.969946
0.964499
1.04767
1.05045
1.05
1.04591
1.03711
1.0249
1.01127
0.998065
0.986389
0.97661
0.969024
0.963537
1.0487
1.05158
1.05112
1.04686
1.03771
1.02507
1.01103
0.997517
0.985637
0.975733
0.968073
0.962547
1.04977
1.05274
1.05228
1.04784
1.03832
1.02522
1.01076
0.996935
0.984851
0.974825
0.967096
0.961534
1.05086
1.05395
1.05348
1.04884
1.03893
1.02534
1.01046
0.996315
0.984029
0.973883
0.966087
0.960492
1.05199
1.05519
1.05472
1.04987
1.03954
1.02545
1.01012
0.995656
0.98317
0.972909
0.965051
0.959425
1.05316
1.05648
1.056
1.05093
1.04014
1.02553
1.00974
0.994954
0.98227
0.971899
0.963982
0.958329
1.05437
1.05782
1.05733
1.05201
1.04075
1.02558
1.00932
0.994209
0.98133
0.970854
0.962883
0.957206
1.05562
1.0592
1.0587
1.05312
1.04135
1.0256
1.00886
0.993416
0.980347
0.96977
0.961751
0.956053
1.05691
1.06063
1.06012
1.05425
1.04194
1.02558
1.00834
0.992575
0.97932
0.96865
0.960587
0.954872
1.05824
1.06211
1.06158
1.05541
1.04252
1.02552
1.00778
0.991681
0.978246
0.967488
0.959388
0.95366
1.05962
1.06365
1.0631
1.05659
1.04309
1.02542
1.00715
0.990732
0.977124
0.966287
0.958155
0.952419
1.06105
1.06525
1.06468
1.0578
1.04364
1.02527
1.00647
0.989724
0.975951
0.965043
0.956885
0.951145
1.06253
1.06691
1.06631
1.05903
1.04417
1.02507
1.00572
0.988656
0.974727
0.963756
0.955581
0.949841
1.06406
1.06863
1.068
1.06029
1.04467
1.0248
1.0049
0.987523
0.973448
0.962424
0.954238
0.948503
1.06565
1.07042
1.06975
1.06156
1.04514
1.02447
1.00401
0.986323
0.972114
0.961047
0.952858
0.947133
1.0673
1.07229
1.07156
1.06285
1.04558
1.02407
1.00304
0.985052
0.97072
0.959622
0.951439
0.945729
1.06902
1.07423
1.07344
1.06416
1.04596
1.02358
1.00198
0.983706
0.969268
0.95815
0.949982
0.944293
1.0708
1.07626
1.07539
1.06548
1.0463
1.02301
1.00083
0.982283
0.967752
0.956628
0.948483
0.94282
1.07265
1.07837
1.0774
1.0668
1.04657
1.02233
0.999578
0.980778
0.966173
0.955056
0.946945
0.941313
1.07457
1.08058
1.07949
1.06813
1.04677
1.02156
0.998226
0.979189
0.964528
0.953432
0.945364
0.93977
1.07657
1.08288
1.08166
1.06946
1.04688
1.02066
0.996763
0.977511
0.962815
0.951756
0.943743
0.938191
1.07866
1.0853
1.0839
1.07077
1.04691
1.01963
0.995183
0.975742
0.961032
0.950026
0.942078
0.936575
1.08084
1.08782
1.08621
1.07206
1.04682
1.01847
0.993479
0.973878
0.959179
0.948242
0.940371
0.934923
1.08311
1.09047
1.08861
1.07332
1.04661
1.01715
0.991645
0.971915
0.957253
0.946403
0.93862
0.933232
1.08549
1.09324
1.09108
1.07454
1.04625
1.01567
0.989673
0.969851
0.955253
0.944509
0.936826
0.931506
1.08797
1.09615
1.09362
1.0757
1.04574
1.014
0.987557
0.967683
0.953177
0.942558
0.934987
0.929741
1.09057
1.09921
1.09624
1.07678
1.04504
1.01215
0.98529
0.965409
0.951026
0.94055
0.933104
0.927941
1.0933
1.10243
1.09892
1.07776
1.04414
1.01009
0.982866
0.963026
0.948797
0.938485
0.931176
0.926102
1.09616
1.10581
1.10166
1.07863
1.04301
1.0078
0.980278
0.960532
0.946491
0.936364
0.929204
0.924227
1.09917
1.10937
1.10446
1.07935
1.04162
1.00528
0.977522
0.957926
0.944106
0.934185
0.927187
0.922314
1.10234
1.11312
1.1073
1.07989
1.03995
1.0025
0.974593
0.955208
0.941645
0.93195
0.925127
0.920365
1.10569
1.11707
1.11015
1.08022
1.03796
0.999454
0.971488
0.952377
0.939105
0.929658
0.923021
0.918378
1.10922
1.12122
1.11301
1.08029
1.03562
0.996125
0.968203
0.949434
0.936489
0.92731
0.920873
0.916356
1.11297
1.1256
1.11585
1.08006
1.0329
0.9925
0.964737
0.94638
0.933797
0.924908
0.918681
0.914297
1.11694
1.13021
1.11863
1.07947
1.02975
0.988567
0.961092
0.943217
0.931032
0.922452
0.916448
0.912203
1.12116
1.13505
1.12132
1.07848
1.02614
0.984317
0.957269
0.939948
0.928194
0.919943
0.914172
0.910074
1.12566
1.14013
1.12385
1.077
1.02203
0.979742
0.953271
0.936577
0.925286
0.917385
0.911857
0.907911
1.13047
1.14545
1.12619
1.07497
1.01739
0.974839
0.949107
0.933108
0.922312
0.914778
0.909503
0.905713
1.13561
1.151
1.12824
1.07232
1.01217
0.96961
0.944785
0.929547
0.919273
0.912125
0.907111
0.903484
1.14114
1.15677
1.12993
1.06894
1.00635
0.96406
0.940315
0.9259
0.916175
0.909428
0.904684
0.901222
1.14709
1.16274
1.13115
1.06476
0.999897
0.958201
0.935711
0.922173
0.91302
0.906692
0.902222
0.898931
1.15351
1.16887
1.13178
1.05967
0.992793
0.952054
0.930991
0.918376
0.909815
0.90392
0.899729
0.896609
1.16045
1.17511
1.13169
1.05358
0.985025
0.945642
0.926171
0.914515
0.906563
0.901115
0.897207
0.89426
1.16798
1.18138
1.13071
1.04639
0.976598
0.939003
0.921273
0.910599
0.903271
0.898282
0.894658
0.891883
1.17615
1.18759
1.12866
1.03799
0.967527
0.932177
0.916318
0.906638
0.899946
0.895428
0.892087
0.889483
1.18504
1.1936
1.12533
1.02831
0.957853
0.925217
0.911329
0.90264
0.896593
0.892556
0.889495
0.887058
1.19472
1.19925
1.12049
1.01726
0.947635
0.918181
0.906326
0.898614
0.893222
0.889675
0.886889
0.884611
1.20526
1.2043
1.11389
1.00482
0.936961
0.911133
0.901333
0.894568
0.88984
0.886793
0.88427
0.882143
1.21673
1.20849
1.10527
0.990949
0.925945
0.90414
0.896365
0.890512
0.886459
0.883918
0.881647
0.879656
1.22918
1.21145
1.09434
0.975701
0.914733
0.897269
0.89144
0.886455
0.88309
0.881062
0.879028
0.877147
1.24264
1.21277
1.08082
0.959171
0.903494
0.890582
0.886567
0.882404
0.879746
0.878238
0.876426
0.874617
1.25712
1.2119
1.06445
0.941544
0.892423
0.884134
0.881754
0.878373
0.876443
0.875456
0.873837
0.872053
1.27255
1.20818
1.04501
0.923097
0.881716
0.877953
0.876996
0.874374
0.873215
0.872765
0.871309
0.86948
1.28876
1.20084
1.02237
0.904233
0.871595
0.872079
0.872289
0.870386
0.870009
0.870065
0.868718
0.866793
1.30544
1.1889
0.996528
0.885411
0.862167
0.866479
0.867704
0.86662
0.86715
0.867743
0.866387
0.864196
1.32209
1.17127
0.967866
0.867422
0.853725
0.860975
0.862739
0.862339
0.863722
0.864904
0.863522
0.861141
1.33774
1.14655
0.936802
0.850439
0.846713
0.856907
0.859386
0.859796
0.861884
0.863246
0.861311
0.858367
1.35125
1.11394
0.90631
0.834476
0.83789
0.84972
0.853124
0.85514
0.858857
0.86093
0.858605
0.855107
1.35906
1.06928
0.880865
0.828541
0.837714
0.848735
0.851073
0.853311
0.857786
0.860077
0.857235
0.853277
1.36239
0.998785
0.832234
0.805202
0.827294
0.843463
0.848187
0.852038
0.85754
0.860136
0.85724
0.853286
0.996292
0.997145
0.998245
0.998687
0.998602
0.998415
0.998377
0.998482
0.998585
0.998571
0.998422
0.998208
0.996936
0.997458
0.998286
0.998652
0.998596
0.998444
0.998406
0.998486
0.998566
0.998546
0.998406
0.998208
0.997465
0.997633
0.998189
0.998523
0.998547
0.998459
0.998422
0.998463
0.998511
0.998487
0.998367
0.998197
0.997731
0.997707
0.998114
0.998458
0.998559
0.998512
0.998455
0.998447
0.99846
0.998436
0.998341
0.998199
0.997883
0.997795
0.998123
0.998457
0.998582
0.998537
0.998451
0.998404
0.998398
0.998383
0.998314
0.998199
0.998033
0.997924
0.99818
0.998466
0.998574
0.998522
0.998424
0.998365
0.998356
0.998351
0.998303
0.998209
0.998193
0.998059
0.998236
0.998457
0.99854
0.998491
0.998402
0.998348
0.998339
0.998338
0.998298
0.998217
0.998332
0.998169
0.998272
0.998436
0.998505
0.99847
0.998397
0.998347
0.998333
0.998327
0.99829
0.998216
0.998433
0.998246
0.998295
0.998421
0.998483
0.99846
0.998399
0.99835
0.998328
0.998315
0.998279
0.998214
0.9985
0.998303
0.998319
0.998418
0.998474
0.998457
0.998402
0.998351
0.998323
0.998305
0.998271
0.998211
0.998551
0.998355
0.99835
0.998426
0.998472
0.998456
0.998403
0.998353
0.998321
0.998299
0.998263
0.998207
0.998597
0.998406
0.998384
0.998439
0.998473
0.998455
0.998405
0.998355
0.99832
0.998293
0.998255
0.9982
0.998642
0.998455
0.998418
0.998454
0.998476
0.998456
0.998408
0.998358
0.998318
0.998287
0.998247
0.998194
0.998684
0.998499
0.998449
0.998469
0.998481
0.998459
0.998411
0.998359
0.998316
0.99828
0.998238
0.998187
0.99872
0.998538
0.998479
0.998485
0.998489
0.998462
0.998413
0.998359
0.998313
0.998274
0.998231
0.99818
0.998751
0.998573
0.998506
0.998502
0.998496
0.998465
0.998414
0.998359
0.99831
0.998269
0.998224
0.998173
0.998778
0.998604
0.998532
0.998517
0.998504
0.998468
0.998415
0.998358
0.998307
0.998263
0.998217
0.998165
0.998803
0.998632
0.998554
0.998531
0.99851
0.99847
0.998415
0.998357
0.998305
0.998258
0.998209
0.998156
0.998823
0.998656
0.998574
0.998543
0.998516
0.998473
0.998416
0.998356
0.998301
0.998252
0.9982
0.998145
0.998841
0.998676
0.99859
0.998554
0.998522
0.998476
0.998417
0.998355
0.998297
0.998244
0.998189
0.998133
0.998854
0.998692
0.998604
0.998563
0.998528
0.998478
0.998417
0.998352
0.998292
0.998236
0.998179
0.998121
0.998864
0.998705
0.998616
0.998572
0.998532
0.99848
0.998416
0.998349
0.998285
0.998227
0.998168
0.99811
0.998873
0.998717
0.998627
0.998579
0.998536
0.99848
0.998413
0.998343
0.998278
0.998217
0.998157
0.998099
0.99888
0.998727
0.998636
0.998585
0.998538
0.998479
0.998409
0.998337
0.99827
0.998208
0.998147
0.998088
0.998885
0.998734
0.998642
0.998588
0.998538
0.998476
0.998404
0.998331
0.998262
0.998199
0.998137
0.998079
0.99889
0.99874
0.998647
0.99859
0.998536
0.998472
0.998398
0.998323
0.998254
0.998191
0.998129
0.99807
0.998892
0.998744
0.998649
0.998589
0.998533
0.998467
0.998392
0.998316
0.998246
0.998182
0.99812
0.998062
0.998894
0.998747
0.99865
0.998587
0.998528
0.998461
0.998385
0.998309
0.998239
0.998175
0.998112
0.998053
0.998893
0.998747
0.998649
0.998583
0.998523
0.998455
0.998379
0.998302
0.998231
0.998166
0.998103
0.998044
0.998892
0.998746
0.998646
0.998579
0.998517
0.998448
0.998372
0.998295
0.998223
0.998158
0.998094
0.998034
0.99889
0.998744
0.998643
0.998573
0.998511
0.998441
0.998365
0.998288
0.998215
0.998149
0.998083
0.998023
0.998887
0.998741
0.998639
0.998568
0.998504
0.998435
0.998358
0.99828
0.998206
0.998138
0.998072
0.998011
0.998883
0.998738
0.998635
0.998562
0.998498
0.998428
0.99835
0.998271
0.998196
0.998127
0.998059
0.997998
0.99888
0.998735
0.998631
0.998556
0.998491
0.99842
0.998342
0.998261
0.998185
0.998114
0.998046
0.997984
0.998876
0.998732
0.998626
0.99855
0.998483
0.998412
0.998332
0.998251
0.998172
0.998101
0.998032
0.997969
0.998873
0.998728
0.99862
0.998543
0.998475
0.998403
0.998322
0.998239
0.998159
0.998087
0.998017
0.997954
0.998868
0.998723
0.998614
0.998535
0.998467
0.998393
0.998311
0.998227
0.998145
0.998071
0.998001
0.997937
0.998864
0.998718
0.998607
0.998527
0.998458
0.998383
0.9983
0.998213
0.998131
0.998055
0.997984
0.99792
0.998858
0.998711
0.998599
0.998518
0.998448
0.998372
0.998288
0.9982
0.998115
0.998039
0.997966
0.997902
0.99885
0.998703
0.99859
0.998508
0.998437
0.998361
0.998275
0.998185
0.998099
0.998022
0.997948
0.997883
0.998842
0.998694
0.99858
0.998498
0.998426
0.998349
0.998262
0.998171
0.998083
0.998004
0.997929
0.997864
0.998832
0.998684
0.998569
0.998486
0.998415
0.998337
0.998248
0.998155
0.998066
0.997985
0.99791
0.997844
0.998821
0.998672
0.998557
0.998474
0.998402
0.998324
0.998234
0.998139
0.998049
0.997967
0.997891
0.997825
0.998808
0.998659
0.998544
0.998461
0.998389
0.99831
0.998219
0.998123
0.998031
0.997948
0.997871
0.997805
0.998795
0.998645
0.99853
0.998448
0.998375
0.998296
0.998204
0.998106
0.998013
0.997929