/*--------------------------------*- C++ -*----------------------------------*\
  =========                 |
  \\      /  F ield         | OpenFOAM: The Open Source CFD Toolbox
   \\    /   O peration     | Website:  https://openfoam.org
    \\  /    A nd           | Version:  6.0
     \\/     M anipulation  |
\*---------------------------------------------------------------------------*/
FoamFile
{
    version     2.0;
    format      ascii;
    class       surfaceScalarField;
    location    "3.8";
    object      phi;
}
// * * * * * * * * * * * * * * * * * * * * * * * * * * * * * * * * * * * * * //

dimensions      [0 3 -1 0 0 0 0];

internalField   nonuniform List<scalar> 
47678
(
2.9808e-05
0.00388594
2.39933e-09
5.98443e-05
0.00381845
8.91105e-05
0.0036858
0.000116961
0.00348998
0.000142853
0.00323441
0.000166314
0.00292356
0.000186917
0.00256291
0.000204298
0.00215866
0.000218148
0.00171786
0.000228223
0.00124783
0.000234334
0.000757395
0.000258004
0.000236932
2.96168e-05
0.00385632
5.6682e-09
5.94641e-05
0.0037886
8.85455e-05
0.00365671
0.00011622
0.00346229
0.000141947
0.00320867
0.000165257
0.00290024
0.000185728
0.00254243
0.000202998
0.00214138
0.000216759
0.00170409
0.000226764
0.00123782
0.000232949
0.000751201
0.000255275
0.00023567
2.94271e-05
0.00382688
8.55997e-09
5.90865e-05
0.00375894
8.79844e-05
0.0036278
0.000115484
0.00343479
0.000141047
0.0031831
0.000164209
0.00287708
0.000184549
0.00252209
0.000201708
0.00212422
0.000215382
0.00169041
0.000225315
0.00122789
0.00023148
0.000745037
0.0002526
0.000234163
2.92389e-05
0.00379763
1.11081e-08
5.87114e-05
0.00372947
8.74269e-05
0.00359908
0.000114752
0.00340746
0.000140154
0.00315769
0.000163167
0.00285406
0.000183377
0.00250187
0.000200425
0.00210717
0.000214014
0.00167682
0.000223878
0.00121802
0.000229987
0.000738922
0.000249989
0.000232591
2.90524e-05
0.00376857
1.32818e-08
5.83389e-05
0.00370019
8.68729e-05
0.00357054
0.000114025
0.00338031
0.000139265
0.00313245
0.000162132
0.00283119
0.000182212
0.00248179
0.000199151
0.00209023
0.000212654
0.00166331
0.000222454
0.00120822
0.000228502
0.000732875
0.000247472
0.000231027
2.88672e-05
0.00373968
1.50502e-08
5.79688e-05
0.00367109
8.63223e-05
0.00354218
0.000113302
0.00335333
0.000138382
0.00310736
0.000161103
0.00280847
0.000181054
0.00246183
0.000197885
0.00207339
0.000211303
0.00164989
0.000221042
0.00119848
0.000227035
0.000726876
0.000245015
0.000229487
2.86835e-05
0.00371098
1.64262e-08
5.76011e-05
0.00364217
8.57751e-05
0.003514
0.000112584
0.00332652
0.000137505
0.00308244
0.00016008
0.00278589
0.000179904
0.00244201
0.000196627
0.00205667
0.00020996
0.00163656
0.000219641
0.0011888
0.000225586
0.000720934
0.000242638
0.000227969
2.85009e-05
0.00368246
1.74052e-08
5.72357e-05
0.00361343
8.52312e-05
0.003486
0.00011187
0.00329988
0.000136632
0.00305767
0.000159064
0.00276345
0.000178761
0.00242231
0.000195376
0.00204005
0.000208625
0.0016233
0.00021825
0.00117917
0.000224151
0.000715028
0.00024031
0.000226474
2.83197e-05
0.00365413
1.80146e-08
5.68726e-05
0.00358488
8.46907e-05
0.00345818
0.00011116
0.00327341
0.000135765
0.00303307
0.000158053
0.00274117
0.000177625
0.00240274
0.000194134
0.00202354
0.000207299
0.00161014
0.000216868
0.0011696
0.000222728
0.000709171
0.000238042
0.000225001
2.81396e-05
0.00362597
1.83007e-08
5.65117e-05
0.00355651
8.41535e-05
0.00343054
0.000110455
0.0032471
0.000134903
0.00300862
0.000157049
0.00271902
0.000176495
0.00238329
0.000192899
0.00200714
0.000205981
0.00159705
0.000215494
0.00116008
0.000221316
0.000703345
0.000235803
0.000223548
2.79607e-05
0.00359799
1.83302e-08
5.61531e-05
0.00352832
8.36196e-05
0.00340307
0.000109754
0.00322097
0.000134047
0.00298432
0.000156051
0.00269701
0.000175373
0.00236396
0.000191672
0.00199084
0.000204671
0.00158406
0.000214129
0.00115063
0.000219914
0.000697562
0.00023361
0.000222111
2.7783e-05
0.00357019
1.81637e-08
5.57966e-05
0.0035003
8.3089e-05
0.00337578
0.000109057
0.003195
0.000133195
0.00296018
0.000155059
0.00267515
0.000174258
0.00234476
0.000190453
0.00197464
0.00020337
0.00157114
0.000212771
0.00114122
0.000218521
0.000691808
0.000231437
0.000220687
2.76064e-05
0.00354256
1.78573e-08
5.54424e-05
0.00347247
8.25617e-05
0.00334866
0.000108365
0.0031692
0.000132349
0.0029362
0.000154074
0.00265342
0.00017315
0.00232569
0.000189242
0.00195855
0.000202077
0.0015583
0.000211422
0.00113188
0.000217138
0.000686095
0.000229304
0.000219275
2.7431e-05
0.00351511
1.74621e-08
5.50904e-05
0.00344481
8.20377e-05
0.00332171
0.000107677
0.00314356
0.000131508
0.00291236
0.000153094
0.00263183
0.000172049
0.00230673
0.000188039
0.00194256
0.000200792
0.00154555
0.000210082
0.00112259
0.000215763
0.00068041
0.000227188
0.000217873
2.72567e-05
0.00348784
1.70137e-08
5.47406e-05
0.00341732
8.15168e-05
0.00329493
0.000106993
0.00311808
0.000130672
0.00288869
0.000152121
0.00261039
0.000170955
0.0022879
0.000186843
0.00192667
0.000199516
0.00153288
0.000208749
0.00111336
0.000214397
0.000674765
0.000225109
0.000216481
2.70836e-05
0.00346074
1.65248e-08
5.43929e-05
0.00339001
8.09991e-05
0.00326832
0.000106313
0.00309276
0.000129842
0.00286516
0.000151154
0.00258907
0.000169868
0.00226918
0.000185655
0.00191088
0.000198247
0.00152028
0.000207425
0.00110418
0.000213038
0.000669148
0.000223043
0.000215099
2.69116e-05
0.00343381
1.60052e-08
5.40474e-05
0.00336288
8.04846e-05
0.00324189
0.000105637
0.00306761
0.000129016
0.00284178
0.000150192
0.0025679
0.000168788
0.00225058
0.000184475
0.00189519
0.000196987
0.00150777
0.000206109
0.00109506
0.000211689
0.000663571
0.000221011
0.000213726
2.67406e-05
0.00340705
1.54538e-08
5.37041e-05
0.00333591
7.99732e-05
0.00321561
0.000104966
0.00304262
0.000128196
0.00281855
0.000149237
0.00254685
0.000167714
0.0022321
0.000183302
0.0018796
0.000195736
0.00149533
0.000204801
0.00108599
0.000210347
0.000658021
0.000218989
0.000212364
2.65708e-05
0.00338047
1.48764e-08
5.33628e-05
0.00330912
7.94648e-05
0.00318951
0.000104298
0.00301779
0.00012738
0.00279547
0.000148288
0.00252595
0.000166647
0.00221375
0.000182137
0.00186412
0.000194492
0.00148298
0.000203502
0.00107698
0.000209014
0.000652512
0.000216999
0.000211011
2.6402e-05
0.00335405
1.42922e-08
5.30236e-05
0.0032825
7.89596e-05
0.00316357
0.000103635
0.00299311
0.00012657
0.00277253
0.000147344
0.00250517
0.000165588
0.0021955
0.000180979
0.00184872
0.000193256
0.0014707
0.00020221
0.00106802
0.000207689
0.000647029
0.000215016
0.000209667
2.62342e-05
0.0033278
1.37408e-08
5.26865e-05
0.00325605
7.84574e-05
0.0031378
0.000102976
0.00296859
0.000125764
0.00274974
0.000146407
0.00248453
0.000164534
0.00217738
0.000179829
0.00183343
0.000192028
0.0014585
0.000200927
0.00105913
0.000206373
0.000641586
0.000213066
0.000208332
2.60675e-05
0.00330172
1.32789e-08
5.23515e-05
0.00322976
7.79583e-05
0.0031122
0.00010232
0.00294423
0.000124964
0.00272709
0.000145475
0.00246402
0.000163488
0.00215936
0.000178686
0.00181823
0.000190809
0.00144638
0.000199653
0.00105028
0.000205065
0.00063617
0.000211117
0.000207007
2.59018e-05
0.00327581
1.29819e-08
5.20184e-05
0.00320364
7.74622e-05
0.00308675
0.000101669
0.00292002
0.000124169
0.0027046
0.00014455
0.00244364
0.000162448
0.00214146
0.00017755
0.00180313
0.000189597
0.00143433
0.000198386
0.00104149
0.000203765
0.000630794
0.000209201
0.000205691
2.5737e-05
0.00325006
1.29251e-08
5.16873e-05
0.00317769
7.69691e-05
0.00306147
0.000101022
0.00289597
0.000123378
0.00268224
0.00014363
0.00242338
0.000161415
0.00212368
0.000176422
0.00178812
0.000188393
0.00142236
0.000197127
0.00103275
0.000202473
0.000625444
0.000207284
0.000204383
2.55731e-05
0.00322447
1.31784e-08
5.13583e-05
0.00315191
7.64791e-05
0.00303635
0.000100379
0.00287207
0.000122593
0.00266003
0.000142716
0.00240326
0.000160389
0.00210601
0.000175301
0.00177321
0.000187196
0.00141047
0.000195877
0.00102408
0.00020119
0.000620134
0.000205397
0.000203084
2.54102e-05
0.00319904
1.37865e-08
5.10311e-05
0.00312629
7.5992e-05
0.00301139
9.97395e-05
0.00284832
0.000121813
0.00263795
0.000141808
0.00238327
0.000159369
0.00208844
0.000174187
0.00175839
0.000186008
0.00139864
0.000194634
0.00101545
0.000199915
0.000614849
0.00020351
0.000201794
2.52483e-05
0.00317378
1.4766e-08
5.0706e-05
0.00310083
7.55079e-05
0.00298659
9.91043e-05
0.00282473
0.000121037
0.00261602
0.000140906
0.0023634
0.000158356
0.00207099
0.000173081
0.00174366
0.000184827
0.0013869
0.000193399
0.00100688
0.000198648
0.000609604
0.000201652
0.000200512
2.50872e-05
0.00314868
1.60972e-08
5.03828e-05
0.00307553
7.50267e-05
0.00296194
9.8473e-05
0.00280128
0.000120266
0.00259422
0.000140009
0.00234365
0.000157349
0.00205365
0.000171981
0.00172903
0.000183654
0.00137522
0.000192173
0.000998355
0.000197389
0.000604384
0.000199793
0.000199238
2.4927e-05
0.00312373
1.77344e-08
5.00615e-05
0.0030504
7.45486e-05
0.00293746
9.78456e-05
0.00277798
0.000119501
0.00257257
0.000139119
0.00232404
0.000156348
0.00203643
0.000170889
0.00171449
0.000182488
0.00136363
0.000190954
0.000989892
0.000196137
0.000599204
0.000197962
0.000197973
2.47677e-05
0.00309895
1.96101e-08
4.97421e-05
0.00302542
7.40733e-05
0.00291312
9.72222e-05
0.00275483
0.00011874
0.00255105
0.000138233
0.00230454
0.000155354
0.0020193
0.000169803
0.00170004
0.00018133
0.0013521
0.000189743
0.000981475
0.000194894
0.000594049
0.00019613
0.000196717
2.46093e-05
0.00307432
2.16542e-08
4.94247e-05
0.00300061
7.3601e-05
0.00288895
9.66027e-05
0.00273183
0.000117984
0.00252967
0.000137354
0.00228518
0.000154367
0.00200229
0.000168725
0.00168568
0.000180179
0.00134065
0.00018854
0.000973117
0.000193659
0.000588933
0.000194324
0.000195468
2.44517e-05
0.00304984
2.37995e-08
4.91092e-05
0.00297595
7.31316e-05
0.00286492
9.59871e-05
0.00270898
0.000117233
0.00250842
0.00013648
0.00226593
0.000153386
0.00198538
0.000167653
0.00167141
0.000179036
0.00132926
0.000187344
0.000964805
0.000192432
0.000583841
0.000192519
0.000194228
2.4295e-05
0.00302552
2.59969e-08
4.87955e-05
0.00295145
7.26651e-05
0.00284106
9.53754e-05
0.00268627
0.000116486
0.00248732
0.000135612
0.0022468
0.000152411
0.00196859
0.000166589
0.00165724
0.0001779
0.00131795
0.000186156
0.000956552
0.000191212
0.000578789
0.000190739
0.000192995
2.41392e-05
0.00300135
2.82128e-08
4.84838e-05
0.00292711
7.22016e-05
0.00281734
9.47675e-05
0.0026637
0.000115744
0.00246634
0.000134749
0.0022278
0.000151442
0.00195189
0.000165531
0.00164315
0.000176771
0.00130671
0.000184976
0.000948344
0.000190001
0.000573761
0.00018896
0.000191771
2.39842e-05
0.00297734
3.04336e-08
4.81739e-05
0.00290292
7.17408e-05
0.00279377
9.41635e-05
0.00264128
0.000115007
0.0024455
0.000133892
0.00220891
0.00015048
0.00193531
0.00016448
0.00162915
0.00017565
0.00129554
0.000183804
0.000940193
0.000188797
0.000568772
0.000187206
0.000190554
2.38302e-05
0.00295347
3.26548e-08
4.78659e-05
0.00287888
7.1283e-05
0.00277035
9.35633e-05
0.002619
0.000114275
0.00242478
0.00013304
0.00219015
0.000149523
0.00191882
0.000163436
0.00161523
0.000174536
0.00128444
0.000182638
0.000932087
0.0001876
0.000563806
0.000185453
0.000189345
2.36769e-05
0.00292976
3.48798e-08
4.75598e-05
0.002855
7.0828e-05
0.00274709
9.29668e-05
0.00259686
0.000113547
0.0024042
0.000132194
0.0021715
0.000148573
0.00190244
0.000162398
0.00160141
0.000173429
0.00127341
0.000181481
0.000924038
0.000186412
0.000558879
0.000183727
0.000188144
2.35246e-05
0.0029062
3.71083e-08
4.72556e-05
0.00283127
7.03758e-05
0.00272396
9.23741e-05
0.00257486
0.000112824
0.00238375
0.000131353
0.00215297
0.000147629
0.00188617
0.000161367
0.00158767
0.000172329
0.00126245
0.00018033
0.000916033
0.000185231
0.000553975
0.000182
0.000186951
2.33731e-05
0.00288279
3.93362e-08
4.69532e-05
0.00280769
6.99265e-05
0.00270099
9.17851e-05
0.00255301
0.000112106
0.00236343
0.000130518
0.00213456
0.000146691
0.00187
0.000160343
0.00157402
0.000171236
0.00125156
0.000179187
0.000908085
0.000184057
0.000549109
0.000180299
0.000185765
2.32225e-05
0.00285952
4.15488e-08
4.66526e-05
0.00278426
6.94799e-05
0.00267816
9.11999e-05
0.00253128
0.000111392
0.00234324
0.000129688
0.00211627
0.000145759
0.00185392
0.000159325
0.00156045
0.00017015
0.00124073
0.000178052
0.00090018
0.000182891
0.000544267
0.000178597
0.000184587
2.30728e-05
0.00283641
4.37262e-08
4.63539e-05
0.00276098
6.90362e-05
0.00265548
9.06184e-05
0.00250971
0.000110683
0.00232318
0.000128863
0.00209809
0.000144833
0.00183795
0.000158314
0.00154697
0.000169071
0.00122997
0.000176923
0.000892331
0.000181733
0.000539462
0.000176922
0.000183417
2.2924e-05
0.00281344
4.58409e-08
4.60571e-05
0.00273784
6.85952e-05
0.00263294
9.00405e-05
0.00248826
0.000109978
0.00230324
0.000128043
0.00208002
0.000143913
0.00182208
0.000157309
0.00153357
0.000167999
0.00121928
0.000175802
0.000884524
0.000180581
0.000534679
0.000175244
0.000182254
2.27761e-05
0.00279061
4.78668e-08
4.57621e-05
0.00271486
6.8157e-05
0.00261055
8.94663e-05
0.00246695
0.000109278
0.00228343
0.000127229
0.00206207
0.000142999
0.00180632
0.000156311
0.00152026
0.000166934
0.00120866
0.000174688
0.000876773
0.000179437
0.000529935
0.000173593
0.000181099
2.26291e-05
0.00276793
4.9778e-08
4.54689e-05
0.00269202
6.77216e-05
0.0025883
8.88958e-05
0.00244578
0.000108582
0.00226374
0.00012642
0.00204423
0.00014209
0.00179064
0.000155319
0.00150703
0.000165876
0.0011981
0.000173581
0.000869064
0.000178301
0.000525212
0.000171937
0.000179951
2.24829e-05
0.0027454
5.1557e-08
4.51776e-05
0.00266932
6.72889e-05
0.00256619
8.83289e-05
0.00242474
0.00010789
0.00224419
0.000125616
0.00202651
0.000141188
0.00177507
0.000154334
0.00149389
0.000164824
0.00118762
0.000172481
0.000861411
0.000177172
0.000520527
0.00017031
0.000178811
2.23377e-05
0.00272301
5.3192e-08
4.48881e-05
0.00264677
6.6859e-05
0.00254422
8.77656e-05
0.00240383
0.000107203
0.00222475
0.000124817
0.0020089
0.000140291
0.0017596
0.000153354
0.00148082
0.000163779
0.00117719
0.000171388
0.000853798
0.000176049
0.000515864
0.000168674
0.000177678
2.21934e-05
0.00270076
5.46814e-08
4.46004e-05
0.00262437
6.64318e-05
0.00252239
8.72059e-05
0.00238306
0.000106521
0.00220543
0.000124023
0.0019914
0.0001394
0.00174422
0.000152381
0.00146785
0.000162741
0.00116683
0.000170302
0.00084624
0.000174934
0.000511239
0.000167069
0.000176552
2.205e-05
0.00267866
5.60288e-08
4.43145e-05
0.0026021
6.60073e-05
0.00250069
8.66498e-05
0.00236242
0.000105842
0.00218624
0.000123235
0.001974
0.000138515
0.00172894
0.000151415
0.00145494
0.000161709
0.00115654
0.000169223
0.000838722
0.000173827
0.000506634
0.000165453
0.000175434
2.19075e-05
0.00265669
5.72437e-08
4.40305e-05
0.00257998
6.55856e-05
0.00247914
8.60972e-05
0.00234191
0.000105169
0.00216717
0.000122451
0.00195672
0.000137635
0.00171376
0.000150454
0.00144213
0.000160684
0.00114631
0.000168151
0.000831259
0.000172726
0.000502067
0.000163866
0.000174323
2.17659e-05
0.00263487
5.8336e-08
4.37482e-05
0.002558
6.51665e-05
0.00245772
8.55482e-05
0.00232152
0.000104499
0.00214822
0.000121673
0.00193955
0.000136761
0.00169867
0.0001495
0.00142939
0.000159666
0.00113614
0.000167086
0.000823835
0.000171632
0.00049752
0.000162268
0.000173218
2.16252e-05
0.00261319
5.93156e-08
4.34678e-05
0.00253616
6.47501e-05
0.00243644
8.50027e-05
0.00230128
0.000103834
0.00212939
0.000120899
0.00192249
0.000135893
0.00168368
0.000148551
0.00141673
0.000158654
0.00112604
0.000166027
0.000816466
0.000170545
0.000493012
0.0001607
0.000172121
2.14855e-05
0.00259164
6.01892e-08
4.31892e-05
0.00251445
6.43364e-05
0.00241529
8.44607e-05
0.00228115
0.000103173
0.00211068
0.000120131
0.00190553
0.00013503
0.00166878
0.000147609
0.00140415
0.000157648
0.001116
0.000164976
0.000809135
0.000169465
0.000488522
0.000159121
0.000171031
2.13467e-05
0.00257023
6.09615e-08
4.29124e-05
0.00249289
6.39254e-05
0.00239428
8.39222e-05
0.00226116
0.000102516
0.00209209
0.000119367
0.00188868
0.000134173
0.00165398
0.000146673
0.00139165
0.000156649
0.00110603
0.000163931
0.000801858
0.000168392
0.00048407
0.00015757
0.000169948
2.12088e-05
0.00254896
6.16353e-08
4.26374e-05
0.00247146
6.3517e-05
0.0023734
8.33872e-05
0.00224128
0.000101864
0.00207361
0.000118608
0.00187193
0.000133321
0.00163926
0.000145742
0.00137923
0.000155656
0.00109611
0.000162892
0.000794618
0.000167325
0.000479636
0.00015601
0.000168871
2.10718e-05
0.00252783
6.22153e-08
4.23641e-05
0.00245017
6.31113e-05
0.00235265
8.28556e-05
0.00222154
0.000101215
0.00205525
0.000117855
0.0018553
0.000132474
0.00162464
0.000144818
0.00136689
0.00015467
0.00108627
0.000161861
0.000787433
0.000166266
0.00047524
0.000154478
0.000167802
2.09358e-05
0.00250683
6.271e-08
4.20927e-05
0.00242901
6.27082e-05
0.00233204
8.23275e-05
0.00220192
0.000100571
0.00203701
0.000117106
0.00183876
0.000131633
0.00161011
0.0001439
0.00135462
0.00015369
0.00107647
0.000160835
0.000780284
0.000165213
0.00047086
0.000152939
0.000166739
2.08007e-05
0.00248597
6.31356e-08
4.1823e-05
0.00240799
6.23077e-05
0.00231155
8.18028e-05
0.00218243
9.99312e-05
0.00201888
0.000116361
0.00182233
0.000130798
0.00159568
0.000142987
0.00134243
0.000152716
0.00106675
0.000159817
0.000773188
0.000164167
0.000466518
0.000151428
0.000165683
2.06665e-05
0.00246524
6.35156e-08
4.15551e-05
0.0023871
6.19098e-05
0.0022912
8.12815e-05
0.00216306
9.92953e-05
0.00200087
0.000115622
0.00180601
0.000129968
0.00158133
0.00014208
0.00133032
0.000151748
0.00105708
0.000158805
0.000766129
0.000163127
0.000462193
0.000149911
0.000164633
2.05333e-05
0.00244464
6.38825e-08
4.1289e-05
0.00236634
6.15145e-05
0.00227098
8.07635e-05
0.00214381
9.86636e-05
0.00198297
0.000114887
0.00178979
0.000129143
0.00156708
0.000141179
0.00131828
0.000150787
0.00104748
0.000157799
0.000759123
0.000162095
0.000457905
0.000148422
0.000163591
2.0401e-05
0.00242418
6.42736e-08
4.10246e-05
0.00234572
6.11218e-05
0.00225088
8.02489e-05
0.00212468
9.80359e-05
0.00196518
0.000114157
0.00177366
0.000128323
0.00155291
0.000140284
0.00130632
0.000149831
0.00103793
0.0001568
0.000752152
0.000161068
0.000453633
0.000146927
0.000162555
2.02695e-05
0.00240385
6.47288e-08
4.0762e-05
0.00232523
6.07316e-05
0.00223091
7.97376e-05
0.00210568
9.74122e-05
0.00194751
0.000113432
0.00175765
0.000127508
0.00153884
0.000139395
0.00129444
0.000148882
0.00102845
0.000155807
0.000745234
0.000160049
0.000449399
0.000145461
0.000161526
2.0139e-05
0.00238364
6.52843e-08
4.05011e-05
0.00230487
6.0344e-05
0.00221107
7.92296e-05
0.00208679
9.67925e-05
0.00192995
0.000112711
0.00174173
0.000126699
0.00152485
0.000138511
0.00128263
0.000147939
0.00101902
0.00015482
0.00073835
0.000159036
0.000445181
0.000143986
0.000160503
2.00094e-05
0.00236357
6.59697e-08
4.02419e-05
0.00228464
5.99589e-05
0.00219135
7.8725e-05
0.00206803
9.61768e-05
0.0019125
0.000111995
0.00172591
0.000125895
0.00151096
0.000137633
0.00127089
0.000147002
0.00100965
0.00015384
0.000731518
0.000158029
0.000441
0.000142542
0.000159487
1.98806e-05
0.00234362
6.6803e-08
3.99844e-05
0.00226453
5.95763e-05
0.00217176
7.82235e-05
0.00204938
9.55651e-05
0.00189516
0.000111284
0.00171019
0.000125096
0.00149714
0.00013676
0.00125923
0.00014607
0.00100034
0.000152866
0.000724721
0.000157029
0.000436834
0.000141085
0.000158478
1.97527e-05
0.0023238
6.77901e-08
3.97287e-05
0.00224456
5.91962e-05
0.00215229
7.77253e-05
0.00203086
9.49573e-05
0.00187793
0.000110577
0.00169458
0.000124302
0.00148342
0.000135893
0.00124764
0.000145145
0.000991096
0.000151898
0.000717975
0.000156035
0.000432707
0.000139661
0.000157475
1.96257e-05
0.00230411
6.89238e-08
3.94746e-05
0.00222471
5.88186e-05
0.00213295
7.72303e-05
0.00201244
9.43534e-05
0.0018608
0.000109874
0.00167906
0.000123514
0.00146978
0.000135032
0.00123612
0.000144226
0.000981901
0.000150936
0.000711262
0.000155048
0.000428594
0.000138219
0.000156478
1.94996e-05
0.00228454
7.01875e-08
3.92222e-05
0.00220499
5.84434e-05
0.00211373
7.67385e-05
0.00199415
9.37534e-05
0.00184379
0.000109176
0.00166364
0.00012273
0.00145623
0.000134176
0.00122468
0.000143312
0.000972771
0.000149981
0.000704601
0.000154067
0.000424519
0.000136811
0.000155488
1.93743e-05
0.00226509
7.15568e-08
3.89715e-05
0.00218539
5.80706e-05
0.00209463
7.62499e-05
0.00197597
9.31572e-05
0.00182688
0.000108483
0.00164831
0.000121951
0.00144276
0.000133325
0.00121331
0.000142404
0.000963691
0.000149032
0.000697972
0.000153092
0.000420457
0.000135382
0.000154504
1.92498e-05
0.00224577
7.30052e-08
3.87223e-05
0.00216592
5.77003e-05
0.00207565
7.57644e-05
0.00195791
9.25648e-05
0.00181009
0.000107794
0.00163309
0.000121178
0.00142938
0.00013248
0.00120201
0.000141503
0.000954675
0.000148088
0.000691394
0.000152123
0.000416434
0.000133989
0.000153527
1.91262e-05
0.00222657
7.45063e-08
3.84749e-05
0.00214657
5.73323e-05
0.00205679
7.5282e-05
0.00193996
9.19762e-05
0.00179339
0.000107109
0.00161795
0.000120409
0.00141608
0.00013164
0.00119078
0.000140607
0.000945709
0.000147151
0.000684847
0.000151161
0.000412422
0.000132574
0.000152555
1.90033e-05
0.0022075
7.60379e-08
3.8229e-05
0.00212734
5.69668e-05
0.00203806
7.48027e-05
0.00192213
9.13914e-05
0.00177681
0.000106429
0.00160292
0.000119645
0.00140287
0.000130806
0.00117962
0.000139716
0.000936806
0.00014622
0.000678351
0.000150205
0.000408449
0.000131193
0.00015159
1.88813e-05
0.00218854
7.75823e-08
3.79848e-05
0.00210824
5.66035e-05
0.00201944
7.43265e-05
0.0019044
9.08104e-05
0.00176032
0.000105753
0.00158798
0.000118886
0.00138974
0.000129977
0.00116853
0.000138832
0.000927951
0.000145295
0.000671885
0.000149255
0.000404485
0.000129792
0.000150631
1.87601e-05
0.0021697
7.91277e-08
3.77421e-05
0.00208926
5.62427e-05
0.00200094
7.38533e-05
0.0018868
9.0233e-05
0.00174395
0.000105082
0.00157313
0.000118132
0.00137669
0.000129154
0.00115752
0.000137953
0.00091916
0.000144376
0.00066547
0.000148311
0.00040056
0.000128428
0.000149678
1.86396e-05
0.00215098
8.06655e-08
3.7501e-05
0.0020704
5.58841e-05
0.00198256
7.33832e-05
0.0018693
8.96594e-05
0.00172767
0.000104415
0.00155838
0.000117383
0.00136372
0.000128335
0.00114657
0.000137079
0.000910416
0.000143462
0.000659085
0.000147373
0.000396644
0.000127043
0.000148732
1.852e-05
0.00213238
8.21908e-08
3.72614e-05
0.00205166
5.55278e-05
0.00196429
7.29161e-05
0.00185191
8.90894e-05
0.0017115
0.000103752
0.00154372
0.000116638
0.00135084
0.000127522
0.00113569
0.000136212
0.000901734
0.000142555
0.000652749
0.000146441
0.000392767
0.000125696
0.000147791
1.84011e-05
0.00211389
8.36983e-08
3.70234e-05
0.00203303
5.51739e-05
0.00194614
7.2452e-05
0.00183463
8.85231e-05
0.00169543
0.000103093
0.00152915
0.000115899
0.00133804
0.000126714
0.00112487
0.00013535
0.000893098
0.000141654
0.000646442
0.000145515
0.000388899
0.000124328
0.000146856
1.82829e-05
0.00209553
8.51832e-08
3.67869e-05
0.00201453
5.48221e-05
0.00192811
7.19908e-05
0.00181747
8.79604e-05
0.00167946
0.000102438
0.00151467
0.000115164
0.00132532
0.000125912
0.00111413
0.000134493
0.000884525
0.000140758
0.000640185
0.000144595
0.00038507
0.000123
0.000145928
1.81655e-05
0.00207727
8.66381e-08
3.6552e-05
0.00199614
5.44727e-05
0.00191019
7.15326e-05
0.00180041
8.74013e-05
0.00166359
0.000101788
0.00150029
0.000114434
0.00131267
0.000125114
0.00110345
0.000133642
0.000875996
0.000139868
0.000633956
0.000143681
0.000381248
0.000121649
0.000145005
1.80489e-05
0.00205914
8.80551e-08
3.63185e-05
0.00197788
5.41255e-05
0.00189238
7.10773e-05
0.00178346
8.68458e-05
0.00164783
0.000101142
0.001486
0.000113708
0.00130011
0.000124322
0.00109284
0.000132797
0.00086753
0.000138984
0.000627777
0.000142773
0.000377466
0.00012034
0.000144088
1.79329e-05
0.00204112
8.94241e-08
3.60865e-05
0.00195972
5.37804e-05
0.00187469
7.06249e-05
0.00176661
8.62938e-05
0.00163216
0.0001005
0.00147179
0.000112987
0.00128763
0.000123535
0.0010823
0.000131957
0.000859107
0.000138105
0.000621624
0.000141871
0.00037369
0.000119005
0.000143178
1.78177e-05
0.00202321
9.07367e-08
3.5856e-05
0.00194168
5.34376e-05
0.00185711
7.01755e-05
0.00174988
8.57454e-05
0.00161659
9.98622e-05
0.00145768
0.000112271
0.00127523
0.000122753
0.00107182
0.000131122
0.000850745
0.000137232
0.000615521
0.000140975
0.000369955
0.000117715
0.000142273
1.77032e-05
0.00200541
9.19837e-08
3.5627e-05
0.00192376
5.3097e-05
0.00183964
6.97289e-05
0.00173325
8.52005e-05
0.00160112
9.92284e-05
0.00144365
0.000111559
0.0012629
0.000121976
0.00106141
0.000130293
0.000842427
0.000136365
0.000609444
0.000140084
0.000366225
0.000116397
0.000141375
1.75895e-05
0.00198773
9.31599e-08
3.53994e-05
0.00190595
5.27585e-05
0.00182228
6.92851e-05
0.00171672
8.4659e-05
0.00158575
9.85988e-05
0.00142972
0.000110852
0.00125065
0.000121204
0.00105106
0.000129469
0.000834169
0.000135504
0.000603416
0.0001392
0.000362536
0.000115123
0.000140482
1.74764e-05
0.00197016
9.42609e-08
3.51732e-05
0.00188825
5.24222e-05
0.00180503
6.88442e-05
0.0017003
8.41211e-05
0.00157048
9.79732e-05
0.00141587
0.00011015
0.00123847
0.000120436
0.00104078
0.00012865
0.000825954
0.000134648
0.000597414
0.000138321
0.000358851
0.00011382
0.000139595
1.7364e-05
0.00195271
9.52868e-08
3.49484e-05
0.00187067
5.20881e-05
0.00178789
6.84061e-05
0.00168399
8.35866e-05
0.0015553
9.73516e-05
0.00140211
0.000109452
0.00122638
0.000119674
0.00103056
0.000127837
0.000817798
0.000133797
0.000591461
0.000137448
0.000355208
0.000112564
0.000138714
1.72523e-05
0.00193536
9.62376e-08
3.47251e-05
0.0018532
5.1756e-05
0.00177086
6.79708e-05
0.00166777
8.30556e-05
0.00154021
9.6734e-05
0.00138843
0.000108759
0.00121435
0.000118917
0.0010204
0.000127029
0.000809684
0.000132952
0.000585531
0.00013658
0.000351567
0.000111276
0.000137838
1.71413e-05
0.00191812
9.71169e-08
3.45032e-05
0.00183584
5.14261e-05
0.00175394
6.75383e-05
0.00165166
8.25279e-05
0.00152523
9.61204e-05
0.00137484
0.00010807
0.00120241
0.000118165
0.00101032
0.000126227
0.00080163
0.000132113
0.000579652
0.000135718
0.000347969
0.000110037
0.000136969
1.7031e-05
0.00190099
9.79268e-08
3.42826e-05
0.00181858
5.10982e-05
0.00173712
6.71086e-05
0.00163565
8.20037e-05
0.00151033
9.55108e-05
0.00136134
0.000107385
0.00119054
0.000117418
0.00100028
0.000125429
0.000793616
0.000131279
0.000573795
0.000134862
0.000344372
0.000108763
0.000136105
1.69213e-05
0.00188397
9.86717e-08
3.40634e-05
0.00180144
5.07725e-05
0.00172042
6.66816e-05
0.00161974
8.14828e-05
0.00149554
9.49051e-05
0.00134792
0.000106705
0.00117874
0.000116675
0.00099032
0.000124637
0.000785661
0.000130451
0.000567988
0.000134012
0.000340818
0.000107539
0.000135247
1.68123e-05
0.00186706
9.93536e-08
3.38456e-05
0.00178441
5.04488e-05
0.00170381
6.62573e-05
0.00160394
8.09653e-05
0.00148083
9.43033e-05
0.00133458
0.00010603
0.00116702
0.000115937
0.000980412
0.00012385
0.000777746
0.000129628
0.000562203
0.000133167
0.000337265
0.000106279
0.000134395
1.6704e-05
0.00185026
9.99771e-08
3.36292e-05
0.00176749
5.01271e-05
0.00168732
6.58358e-05
0.00158823
8.04511e-05
0.00146622
9.37055e-05
0.00132133
0.000105359
0.00115537
0.000115205
0.000970573
0.000123068
0.000769889
0.00012881
0.000556467
0.000132327
0.000333755
0.000105071
0.000133548
1.65964e-05
0.00183356
1.00546e-07
3.34141e-05
0.00175067
4.98076e-05
0.00167092
6.5417e-05
0.00157262
7.99403e-05
0.0014517
9.31115e-05
0.00130816
0.000104692
0.00114379
0.000114476
0.000960787
0.000122291
0.000762072
0.000127998
0.000550752
0.000131493
0.000330244
0.000103825
0.000132707
1.64894e-05
0.00181697
1.01067e-07
3.32004e-05
0.00173396
4.949e-05
0.00165464
6.50008e-05
0.00155711
7.94327e-05
0.00143727
9.25214e-05
0.00129508
0.000104029
0.00113229
0.000113753
0.00095107
0.000121519
0.000754312
0.000127191
0.000545088
0.000130665
0.000326777
0.000102633
0.000131871
1.63831e-05
0.00180049
1.0155e-07
3.2988e-05
0.00171735
4.91745e-05
0.00163845
6.45874e-05
0.0015417
7.89285e-05
0.00142293
9.19351e-05
0.00128207
0.000103371
0.00112085
0.000113035
0.000941405
0.000120752
0.000746591
0.000126389
0.000539443
0.000129842
0.000323308
0.0001014
0.000131041
1.62774e-05
0.00178411
1.02009e-07
3.2777e-05
0.00170085
4.8861e-05
0.00162237
6.41766e-05
0.00152639
7.84275e-05
0.00140868
9.13526e-05
0.00126915
0.000102717
0.00110949
0.000112321
0.000931808
0.000119991
0.000738927
0.000125593
0.000533847
0.000129025
0.000319884
0.000100222
0.000130217
1.61725e-05
0.00176784
1.02459e-07
3.25673e-05
0.00168446
4.85495e-05
0.00160638
6.37684e-05
0.00151117
7.79298e-05
0.00139452
9.07739e-05
0.00125631
0.000102068
0.0010982
0.000111611
0.000922263
0.000119234
0.0007313
0.000124802
0.000528271
0.000128212
0.000316457
9.90033e-05
0.000129397
1.60681e-05
0.00175167
1.02922e-07
3.23589e-05
0.00166817
4.824e-05
0.0015905
6.33629e-05
0.00149605
7.74353e-05
0.00138045
9.0199e-05
0.00124355
0.000101422
0.00108698
0.000110907
0.000912785
0.000118482
0.00072373
0.000124016
0.000522745
0.000127406
0.000313074
9.78408e-05
0.000128584
1.59644e-05
0.0017356
1.03417e-07
3.21518e-05
0.00165198
4.79325e-05
0.00157472
6.296e-05
0.00148102
7.6944e-05
0.00136647
8.96279e-05
0.00123087
0.000100781
0.00107583
0.000110207
0.000903358
0.000117735
0.000716198
0.000123235
0.000517237
0.000126604
0.000309688
9.6635e-05
0.000127775
1.58614e-05
0.00171964
1.03969e-07
3.1946e-05
0.0016359
4.7627e-05
0.00155904
6.25597e-05
0.00146609
7.6456e-05
0.00135257
8.90605e-05
0.00121827
0.000100145
0.00106475
0.000109512
0.000893996
0.000116994
0.000708721
0.000122459
0.000511778
0.000125808
0.000306348
9.54869e-05
0.000126973
1.5759e-05
0.00170377
1.04595e-07
3.17416e-05
0.00161991
4.73234e-05
0.00154346
6.21621e-05
0.00145125
7.59711e-05
0.00133877
8.84968e-05
0.00120574
9.95119e-05
0.00105373
0.000108821
0.000884686
0.000116257
0.00070128
0.000121689
0.000506337
0.000125017
0.000303002
9.42944e-05
0.000126175
1.56573e-05
0.00168801
1.05312e-07
3.15385e-05
0.00160403
4.70218e-05
0.00152798
6.1767e-05
0.00143651
7.54894e-05
0.00132505
8.79368e-05
0.0011933
9.88834e-05
0.00104279
0.000108135
0.00087544
0.000115525
0.000693895
0.000120923
0.000500946
0.000124232
0.000299702
9.3161e-05
0.000125383
1.55562e-05
0.00167235
1.06131e-07
3.13367e-05
0.00158825
4.67221e-05
0.0015126
6.13745e-05
0.00142186
7.50109e-05
0.00131141
8.73805e-05
0.00118093
9.8259e-05
0.00103191