/*--------------------------------*- C++ -*----------------------------------*\
  =========                 |
  \\      /  F ield         | OpenFOAM: The Open Source CFD Toolbox
   \\    /   O peration     | Website:  https://openfoam.org
    \\  /    A nd           | Version:  6.0
     \\/     M anipulation  |
\*---------------------------------------------------------------------------*/
FoamFile
{
    version     2.0;
    format      ascii;
    class       surfaceScalarField;
    location    "3.8";
    object      phi;
}
// * * * * * * * * * * * * * * * * * * * * * * * * * * * * * * * * * * * * * //

dimensions      [0 3 -1 0 0 0 0];

internalField   nonuniform List<scalar> 
68636
(
3.02271e-05
0.00310561
3.64567e-09
6.08415e-05
0.00307075
9.10903e-05
0.00300253
0.00012048
0.00290147
0.000148623
0.00276861
0.000175172
0.00260541
0.000199815
0.00241368
0.000222267
0.00219552
0.00024227
0.00195335
0.000259597
0.00168983
0.000274052
0.00140785
0.000285471
0.00111048
0.000293732
0.000801025
0.000298723
0.000482672
0.000157439
0.000299789
2.99482e-05
0.00307565
8.22742e-09
6.0285e-05
0.00304041
9.02591e-05
0.00297255
0.000119381
0.00287235
0.000147268
0.00274072
0.000173575
0.00257911
0.000197992
0.00238926
0.000220239
0.00217328
0.000240059
0.00193353
0.000257228
0.00167266
0.000271552
0.00139353
0.000282867
0.00109916
0.000291066
0.000792828
0.000295947
0.000477793
0.000156295
0.000297096
2.9672e-05
0.00304597
1.24315e-08
5.97334e-05
0.00301035
8.94354e-05
0.00294285
0.000118293
0.00284349
0.000145926
0.00271309
0.000171993
0.00255304
0.000196189
0.00236507
0.000218232
0.00215124
0.000237872
0.00191389
0.000254885
0.00165564
0.000269078
0.00137933
0.000280289
0.00108795
0.000288414
0.000784703
0.000293288
0.000472919
0.000154993
0.00029459
2.93985e-05
0.00301655
1.64229e-08
5.91871e-05
0.00298056
8.86194e-05
0.00291342
0.000117215
0.00281489
0.000144596
0.00268571
0.000170427
0.00252721
0.000194402
0.00234109
0.000216245
0.00212939
0.000235705
0.00189443
0.000252563
0.00163879
0.000266627
0.00136527
0.000277733
0.00107685
0.000285779
0.00077666
0.000290631
0.00046807
0.000153623
0.000292007
2.91276e-05
0.0029874
2.01123e-08
5.86458e-05
0.00295104
8.78108e-05
0.00288425
0.000116146
0.00278656
0.000143279
0.00265858
0.000168874
0.00250162
0.00019263
0.00231734
0.000214274
0.00210775
0.000233557
0.00187515
0.000250261
0.00162209
0.000264196
0.00135133
0.000275201
0.00106585
0.000283167
0.000768694
0.000287978
0.000463258
0.0001522
0.000289402
2.88592e-05
0.00295852
2.3618e-08
5.81092e-05
0.00292179
8.70092e-05
0.00285535
0.000115087
0.00275848
0.000141973
0.00263169
0.000167334
0.00247625
0.000190875
0.0022938
0.000212321
0.0020863
0.000231429
0.00185604
0.00024798
0.00160554
0.000261788
0.00133753
0.000272692
0.00105494
0.000280579
0.000760809
0.000285348
0.000458493
0.000150745
0.000286809
2.85931e-05
0.0029299
2.70308e-08
5.75774e-05
0.00289281
8.62147e-05
0.00282672
0.000114037
0.00273066
0.000140678
0.00260505
0.000165809
0.00245112
0.000189135
0.00227047
0.000210386
0.00206505
0.000229319
0.00183711
0.00024572
0.00158914
0.000259402
0.00132384
0.000270207
0.00104414
0.000278018
0.000752997
0.000282744
0.000453767
0.000149259
0.000284229
2.83294e-05
0.00290154
3.03608e-08
5.70502e-05
0.00286409
8.54272e-05
0.00279834
0.000112997
0.00270309
0.000139395
0.00257865
0.000164298
0.00242622
0.000187411
0.00224736
0.000208469
0.002044
0.00022723
0.00181835
0.00024348
0.00157289
0.000257038
0.00131029
0.000267745
0.00103343
0.000275482
0.000745263
0.000280164
0.000449088
0.000147766
0.000281663
2.80681e-05
0.00287344
3.37219e-08
5.65277e-05
0.00283563
8.46468e-05
0.00277022
0.000111966
0.00267577
0.000138124
0.00255249
0.0001628
0.00240155
0.000185703
0.00222446
0.000206569
0.00202313
0.000225159
0.00179976
0.000241262
0.00155678
0.000254696
0.00129685
0.000265306
0.00102282
0.000272971
0.000737597
0.000277609
0.000444448
0.000146259
0.000279114
2.7809e-05
0.00284559
3.71802e-08
5.60099e-05
0.00280743
8.38733e-05
0.00274236
0.000110944
0.0026487
0.000136864
0.00252657
0.000161316
0.00237709
0.00018401
0.00220176
0.000204687
0.00200245
0.000223107
0.00178134
0.000239063
0.00154083
0.000252375
0.00128354
0.000262889
0.00101231
0.000270483
0.000730005
0.000275079
0.000439856
0.000144761
0.000276583
2.75523e-05
0.002818
4.07737e-08
5.54966e-05
0.00277948
8.31067e-05
0.00271475
0.000109931
0.00262188
0.000135616
0.00250089
0.000159845
0.00235287
0.000182333
0.00217927
0.000202821
0.00198197
0.000221074
0.00176309
0.000236885
0.00152502
0.000250075
0.00127035
0.000260494
0.00100189
0.000268019
0.000722479
0.000272573
0.000435301
0.00014326
0.000274071
2.72978e-05
0.00279066
4.45578e-08
5.4988e-05
0.00275179
8.23469e-05
0.00268739
0.000108927
0.0025953
0.000134378
0.00247544
0.000158387
0.00232886
0.000180671
0.00215699
0.000200973
0.00196167
0.00021906
0.001745
0.000234726
0.00150935
0.000247796
0.00125728
0.000258121
0.000991567
0.000265578
0.000715024
0.00027009
0.000430793
0.000141775
0.00027158
2.70455e-05
0.00276356
4.85315e-08
5.44839e-05
0.00272435
8.1594e-05
0.00266028
0.000107933
0.00256896
0.000133152
0.00245022
0.000156943
0.00230507
0.000179024
0.00213491
0.000199141
0.00194155
0.000217064
0.00172708
0.000232588
0.00149383
0.000245538
0.00124433
0.00025577
0.000981335
0.00026316
0.000707633
0.000267631
0.000426319
0.000140291
0.000269112
2.67954e-05
0.00273672
5.26786e-08
5.39842e-05
0.00269716
8.08478e-05
0.00263341
0.000106947
0.00254286
0.000131937
0.00242523
0.000155512
0.00228149
0.000177392
0.00211303
0.000197326
0.00192161
0.000215086
0.00170932
0.000230468
0.00147845
0.000243301
0.0012315
0.000253439
0.000971199
0.000260763
0.000700311
0.000265194
0.000421891
0.000138823
0.000266668
2.65475e-05
0.00271011
5.69683e-08
5.3489e-05
0.00267022
8.01083e-05
0.00260679
0.00010597
0.002517
0.000130733
0.00240046
0.000154093
0.00225813
0.000175775
0.00209135
0.000195528
0.00190186
0.000213126
0.00169172
0.000228368
0.0014632
0.000241084
0.00121878
0.00025113
0.000961152
0.000258388
0.000693052
0.00026278
0.000417497
0.000137354
0.000264246
2.63018e-05
0.00268375
6.13404e-08
5.29983e-05
0.00264353
7.93754e-05
0.00258042
0.000105002
0.00249137
0.00012954
0.00237593
0.000152688
0.00223499
0.000174172
0.00206986
0.000193745
0.00188229
0.000211183
0.00167428
0.000226287
0.0014481
0.000238887
0.00120618
0.000248842
0.000951199
0.000256034
0.000685862
0.000260388
0.000413146
0.0001359
0.000261847
2.60583e-05
0.00265762
6.57351e-08
5.25119e-05
0.00261707
7.86491e-05
0.00255428
0.000104043
0.00246598
0.000128358
0.00235161
0.000151295
0.00221205
0.000172584
0.00204857
0.000191979
0.00186289
0.000209259
0.001657
0.000224225
0.00143313
0.000236711
0.0011937
0.000246575
0.000941333
0.000253702
0.000678733
0.000258017
0.000408828
0.000134446
0.000259468
2.58169e-05
0.00263174
7.00911e-08
5.20298e-05
0.00259086
7.79293e-05
0.00252838
0.000103092
0.00244081
0.000127186
0.00232752
0.000149915
0.00218932
0.00017101
0.00202748
0.000190229
0.00184367
0.000207351
0.00163988
0.000222182
0.0014183
0.000234554
0.00118133
0.000244328
0.00093156
0.000251391
0.000671672
0.000255668
0.000404554
0.000133009
0.00025711
2.55776e-05
0.00260608
7.43464e-08
5.15521e-05
0.00256489
7.7216e-05
0.00250272
0.00010215
0.00241588
0.000126025
0.00230364
0.000148547
0.0021668
0.000169451
0.00200657
0.000188495
0.00182463
0.000205461
0.00162292
0.000220157
0.00140361
0.000232416
0.00116907
0.000242102
0.000921873
0.000249102
0.000664671
0.000253341
0.000400313
0.000131575
0.000254771
2.53405e-05
0.00258067
7.8455e-08
5.10787e-05
0.00253915
7.65091e-05
0.00247729
0.000101216
0.00239117
0.000124874
0.00227998
0.000147192
0.00214448
0.000167906
0.00198586
0.000186777
0.00180576
0.000203589
0.0016061
0.000218151
0.00138905
0.000230299
0.00115692
0.000239897
0.000912277
0.000246833
0.000657736
0.000251034
0.000396114
0.00013016
0.000252453
2.51054e-05
0.00255548
8.23776e-08
5.06095e-05
0.00251364
7.58086e-05
0.00245209
0.000100291
0.00236669
0.000123734
0.00225654
0.000145849
0.00212236
0.000166374
0.00196533
0.000185074
0.00178706
0.000201733
0.00158944
0.000216163
0.00137461
0.0002282
0.00114488
0.000237711
0.000902765
0.000244585
0.000650861
0.000248748
0.000391948
0.00012875
0.000250155
2.48726e-05
0.00253052
8.60899e-08
5.01446e-05
0.00248837
7.51145e-05
0.00242712
9.93742e-05
0.00234243
0.000122604
0.00223331
0.000144518
0.00210045
0.000164857
0.00194499
0.000183386
0.00176853
0.000199894
0.00157294
0.000214193
0.00136032
0.000226121
0.00113295
0.000235545
0.000893342
0.000242357
0.000644051
0.000246484
0.000387825
0.000127359
0.000247879
2.46418e-05
0.00250579
8.95805e-08
4.96838e-05
0.00246333
7.44266e-05
0.00240237
9.84656e-05
0.00231839
0.000121484
0.00221029
0.000143199
0.00207874
0.000163353
0.00192484
0.000181714
0.00175017
0.000198072
0.00155658
0.000212241
0.00134615
0.000224061
0.00112113
0.0002334
0.000884001
0.00024015
0.000637298
0.00024424
0.000383732
0.000125971
0.000245624
2.44131e-05
0.00248128
9.28529e-08
4.92273e-05
0.00243851
7.37449e-05
0.00237786
9.75653e-05
0.00229457
0.000120375
0.00218748
0.000141892
0.00205722
0.000161863
0.00190487
0.000180057
0.00173198
0.000196266
0.00154037
0.000210306
0.00133211
0.000222019
0.00110942
0.000231273
0.000874748
0.000237963
0.00063061
0.000242017
0.000379682
0.000124603
0.00024339
2.41865e-05
0.002457
9.59227e-08
4.87749e-05
0.00241393
7.30694e-05
0.00235356
9.66732e-05
0.00227097
0.000119275
0.00216488
0.000140597
0.0020359
0.000160386
0.00188508
0.000178415
0.00171395
0.000194477
0.00152431
0.000208389
0.00131819
0.000219996
0.00109781
0.000229166
0.000865576
0.000235796
0.000623978
0.000239814
0.000375662
0.000123237
0.000241176
2.3962e-05
0.00243294
9.88209e-08
4.83265e-05
0.00238956
7.24e-05
0.00232949
9.57891e-05
0.00224758
0.000118186
0.00214248
0.000139313
0.00201477
0.000158923
0.00186547
0.000176788
0.00169608
0.000192704
0.00150839
0.00020649
0.00130441
0.000217991
0.00108631
0.000227079
0.00085649
0.000233649
0.00061741
0.000237631
0.000371682
0.000121889
0.000238982
2.37396e-05
0.0024091
1.01586e-07
4.78823e-05
0.00236542
7.17367e-05
0.00230563
9.4913e-05
0.0022244
0.000117106
0.00212029
0.000138041
0.00199384
0.000157473
0.00184604
0.000175175
0.00167838
0.000190947
0.00149262
0.000204608
0.00129075
0.000216005
0.00107492
0.00022501
0.000847483
0.000231521
0.000610897
0.000235468
0.000367733
0.000120545
0.000236809
2.35193e-05
0.00238547
1.04266e-07
4.74421e-05
0.0023415
7.10794e-05
0.002282
9.40449e-05
0.00220144
0.000116036
0.0020983
0.000136781
0.00197309
0.000156036
0.00182678
0.000173578
0.00166084
0.000189206
0.00147699
0.000202743
0.00127721
0.000214037
0.00106362
0.00022296
0.000838561
0.000229413
0.000604446
0.000233325
0.000363824
0.000119219
0.000234654
2.3301e-05
0.00236207
1.06911e-07
4.7006e-05
0.00231779
7.04281e-05
0.00225857
9.31846e-05
0.00217868
0.000114976
0.00207651
0.000135532
0.00195253
0.000154612
0.0018077
0.000171994
0.00164345
0.000187481
0.00146151
0.000200895
0.0012638
0.000212086
0.00105243
0.00022093
0.000829716
0.000227324
0.00059805
0.000231201
0.000359945
0.000117897
0.000232519
2.30847e-05
0.00233887
1.09568e-07
4.65738e-05
0.0022943
6.97827e-05
0.00223537
9.23321e-05
0.00215613
0.000113925
0.00205491
0.000134295
0.00193216
0.000153201
0.0017888
0.000170425
0.00162623
0.000185771
0.00144616
0.000199064
0.0012505
0.000210154
0.00104134
0.000218917
0.000820954
0.000225254
0.000591714
0.000229097
0.000356105
0.000116594
0.000230404
2.28704e-05
0.00231589
1.12277e-07
4.61456e-05
0.00227103
6.91432e-05
0.00221237
9.14874e-05
0.00213379
0.000112884
0.00203352
0.000133068
0.00191198
0.000151803
0.00177006
0.000168871
0.00160916
0.000184077
0.00143095
0.000197249
0.00123733
0.000208239
0.00103035
0.000216923
0.000812269
0.000223203
0.000585432
0.000227012
0.000352294
0.000115294
0.000228307
2.26581e-05
0.00229312
1.1507e-07
4.57212e-05
0.00224796
6.85094e-05
0.00218958
9.06503e-05
0.00211165
0.000111852
0.00201232
0.000131853
0.00189198
0.000150417
0.0017515
0.00016733
0.00159225
0.000182399
0.00141589
0.000195452
0.00122428
0.000206342
0.00101946
0.000214947
0.000803664
0.000221171
0.00057921
0.000224946
0.000348523
0.000114014
0.00022623
2.24478e-05
0.00227055
1.17961e-07
4.53008e-05
0.00222511
6.78815e-05
0.002167
8.98208e-05
0.00208971
0.00011083
0.00199131
0.000130649
0.00187216
0.000149044
0.0017331
0.000165804
0.00157549
0.000180735
0.00140095
0.00019367
0.00121134
0.000204462
0.00100867
0.00021299
0.000795135
0.000219158
0.00057304
0.000222899
0.000344779
0.000112736
0.000224172
2.22394e-05
0.00224819
1.20954e-07
4.48842e-05
0.00220247
6.72592e-05
0.00214462
8.89988e-05
0.00206797
0.000109817
0.00197049
0.000129455
0.00185252
0.000147684
0.00171487
0.000164291
0.00155888
0.000179087
0.00138616
0.000191905
0.00119853
0.000202599
0.000997975
0.00021105
0.000786685
0.000217163
0.000566929
0.00022087
0.000341074
0.000111477
0.000222133
2.20329e-05
0.00222603
1.24037e-07
4.44714e-05
0.00218003
6.66426e-05
0.00212245
8.81844e-05
0.00204643
0.000108813
0.00194986
0.000128273
0.00183306
0.000146336
0.00169681
0.000162792
0.00154243
0.000177454
0.0013715
0.000190156
0.00118582
0.000200753
0.000987377
0.000209128
0.000778309
0.000215186
0.000560869
0.00021886
0.000337397
0.00011022
0.000220113
2.18283e-05
0.00220408
1.27184e-07
4.40623e-05
0.00215779
6.60316e-05
0.00210048
8.73773e-05
0.00202508
0.000107818
0.00192942
0.000127101
0.00181378
0.000145
0.00167891
0.000161307
0.00152612
0.000175836
0.00135697
0.000188423
0.00117324
0.000198924
0.000976876
0.000207223
0.000770011
0.000213227
0.000554867
0.000216869
0.000333758
0.000108983
0.00021811
2.16256e-05
0.00218232
1.30362e-07
4.3657e-05
0.00213576
6.54262e-05
0.00207871
8.65775e-05
0.00200393
0.000106832
0.00190917
0.00012594
0.00179467
0.000143676
0.00166117
0.000159836
0.00150996
0.000174233
0.00134257
0.000186705
0.00116076
0.000197112
0.000966468
0.000205336
0.000761785
0.000211286
0.000548916
0.000214896
0.000330145
0.000107748
0.000216126
2.14248e-05
0.00216076
1.33529e-07
4.32554e-05
0.00211393
6.48263e-05
0.00205714
8.5785e-05
0.00198297
0.000105855
0.0018891
0.00012479
0.00177574
0.000142365
0.0016436
0.000158377
0.00149395
0.000172644
0.0013283
0.000185004
0.00114841
0.000195316
0.000956157
0.000203467
0.000753636
0.000209363
0.000543021
0.00021294
0.000326571
0.000106532
0.00021416
2.12258e-05
0.0021394
1.36642e-07
4.28575e-05
0.0020923
6.42318e-05
0.00203577
8.49997e-05
0.0019622
0.000104888
0.00186921
0.00012365
0.00175697
0.000141065
0.00162618
0.000156932
0.00147808
0.00017107
0.00131417
0.000183318
0.00113616
0.000193537
0.000945936
0.000201614
0.000745557
0.000207457
0.000537176
0.000211003
0.000323022
0.000105318
0.000212212
2.10286e-05
0.00211823
1.39659e-07
4.24632e-05
0.00207086
6.36428e-05
0.00201459
8.42216e-05
0.00194162
0.000103928
0.0018495
0.00012252
0.00173838
0.000139777
0.00160893
0.000155501
0.00146236
0.00016951
0.00130016
0.000181647
0.00112402
0.000191774
0.00093581
0.000199778
0.000737555
0.000205569
0.000531387
0.000209083
0.000319511
0.000104124
0.000210282
2.08332e-05
0.00209726
1.42545e-07
4.20724e-05
0.00204963
6.30591e-05
0.0019936
8.34505e-05
0.00192123
0.000102978
0.00182997
0.000121401
0.00171996
0.000138501
0.00159182
0.000154082
0.00144677
0.000167965
0.00128627
0.000179992
0.00111199
0.000190027
0.000925773
0.000197959
0.000729621
0.000203698
0.000525646
0.000207181
0.000316025
0.000102931
0.000208369
2.06396e-05
0.00207647
1.45275e-07
4.16853e-05
0.00202858
6.24807e-05
0.00197281
8.26864e-05
0.00190103
0.000102036
0.00181062
0.000120292
0.0017017
0.000137237
0.00157488
0.000152676
0.00143134
0.000166433
0.00127252
0.000178352
0.00110008
0.000188297
0.000915828
0.000196157
0.000721762
0.000201845
0.00051996
0.000205297
0.000312576
0.000101758
0.000206474
2.04477e-05
0.00205588
1.47835e-07
4.13016e-05
0.00200773
6.19076e-05
0.0019522
8.19294e-05
0.001881
0.000101103
0.00179145
0.000119193
0.00168361
0.000135984
0.00155809
0.000151284
0.00141604
0.000164916
0.00125888
0.000176726
0.00108826
0.000186582
0.000905972
0.000194371
0.000713971
0.000200008
0.000514321
0.000203429
0.000309152
0.000100585
0.000204597
2.02576e-05
0.00203547
1.50226e-07
4.09215e-05
0.00198706
6.13397e-05
0.00193178
8.11792e-05
0.00186116
0.000100179
0.00177245
0.000118104
0.00166569
0.000134743
0.00154145
0.000149904
0.00140088
0.000163412
0.00124538
0.000175116
0.00107656
0.000184882
0.000896206
0.000192602
0.000706252
0.000198188
0.000508737
0.000201579
0.000305764
9.94319e-05
0.000202736
2.00693e-05
0.00201525
1.5246e-07
4.05448e-05
0.00196659
6.07769e-05
0.00191155
8.04358e-05
0.00184151
9.92625e-05
0.00175362
0.000117025
0.00164793
0.000133513
0.00152496
0.000148536
0.00138585
0.000161923
0.00123199
0.00017352
0.00106496
0.000183199
0.000886527
0.000190849
0.000698601
0.000196385
0.000503199
0.000199745
0.000302401
9.82793e-05
0.000200893
1.98826e-05
0.00199521
1.54566e-07
4.01715e-05
0.0019463
6.02193e-05
0.0018915
7.96992e-05
0.00182203
9.83547e-05
0.00173497
0.000115955
0.00163033
0.000132294
0.00150862
0.000147181
0.00137097
0.000160446
0.00121872
0.000171939
0.00105347
0.00018153
0.000876937
0.000189112
0.000691021
0.000194598
0.000497714
0.000197929
0.000299073
9.71461e-05
0.000199066
1.96977e-05
0.00197536
1.56577e-07
3.98016e-05
0.00192619
5.96668e-05
0.00187164
7.89694e-05
0.00180272
9.74552e-05
0.00171648
0.000114896
0.00161289
0.000131086
0.00149243
0.000145838
0.00135621
0.000158984
0.00120558
0.000170373
0.00104208
0.000179877
0.000867431
0.00018739
0.000683506
0.000192827
0.000492275
0.000196129
0.000295769
9.60132e-05
0.000197256
1.95144e-05
0.00195568
1.58534e-07
3.94351e-05
0.00190627
5.91193e-05
0.00185195
7.82462e-05
0.0017836
9.65639e-05
0.00169816
0.000113846
0.0015956
0.00012989
0.00147639
0.000144508
0.00134159
0.000157534
0.00119255
0.000168821
0.00103079
0.000178239
0.000858013
0.000185685
0.000676062
0.000191073
0.000486888
0.000194345
0.0002925
9.48999e-05
0.000195463
1.93328e-05
0.00193619
1.60476e-07
3.90719e-05
0.00188653
5.85768e-05
0.00183245
7.75296e-05
0.00176464
9.56807e-05
0.00168001
0.000112806
0.00157848
0.000128704
0.00146049
0.00014319
0.00132711
0.000156098
0.00117964
0.000167283
0.00101961
0.000176617
0.000848678
0.000183995
0.000668682
0.000189335
0.000481546
0.000192578
0.000289255
9.37866e-05
0.000193686
1.91529e-05
0.00191687
1.62442e-07
3.8712e-05
0.00186697
5.80393e-05
0.00181312
7.68195e-05
0.00174586
9.48056e-05
0.00166203
0.000111775
0.00156151
0.000127529
0.00144474
0.000141884
0.00131275
0.000154676
0.00116685
0.000165759
0.00100853
0.000175009
0.000839429
0.000182321
0.000661371
0.000187613
0.000476255
0.000190827
0.000286044
9.26927e-05
0.000191925
1.89746e-05
0.00189774
1.64462e-07
3.83555e-05
0.00184759
5.75066e-05
0.00179397
7.61159e-05
0.00172725
9.39385e-05
0.0016442
0.000110754
0.00154469
0.000126365
0.00142913
0.00014059
0.00129853
0.000153266
0.00115417
0.000164249
0.000997542
0.000173415
0.000830262
0.000180662
0.000654123
0.000185906
0.000471008
0.000189092
0.000282856
9.15986e-05
0.000190181
1.87979e-05
0.00187877
1.66558e-07
3.80021e-05
0.00182839
5.69789e-05
0.00177499
7.54188e-05
0.00170881
9.30793e-05
0.00162654
0.000109742
0.00152803
0.000125211
0.00141366
0.000139307
0.00128443
0.000151869
0.00114161
0.000162753
0.000986659
0.000171837
0.000821179
0.000179018
0.000646943
0.000184216
0.000465812
0.000187373
0.000279702
9.05238e-05
0.000188452
1.86229e-05
0.00185998
1.6874e-07
3.7652e-05
0.00180936
5.64559e-05
0.00175619
7.4728e-05
0.00169054
9.2228e-05
0.00160904
0.00010874
0.00151152
0.000124068
0.00139833
0.000138037
0.00127046
0.000150485
0.00112916
0.00016127
0.000975872
0.000170272
0.000812175
0.000177389
0.000639825
0.00018254
0.000460658
0.000185669
0.00027657
8.94482e-05
0.000186739
1.84494e-05
0.00184136
1.71009e-07
3.73052e-05
0.0017905
5.59378e-05
0.00173756
7.40436e-05
0.00167244
9.13845e-05
0.0015917
0.000107746
0.00149516
0.000122936
0.00138314
0.000136778
0.00125662
0.000149113
0.00111683
0.000159802
0.000965185
0.000168722
0.000803256
0.000175775
0.000632773
0.000180881
0.000455555
0.000183982
0.000273472
8.8392e-05
0.000185043
1.82776e-05
0.00182291
1.73354e-07
3.69615e-05
0.00177182
5.54243e-05
0.0017191
7.33654e-05
0.00165449
9.05486e-05
0.00157452
0.000106762
0.00147894
0.000121814
0.00136809
0.000135531
0.0012429
0.000147754
0.00110461
0.000158346
0.000954592
0.000167187
0.000794414
0.000174176
0.000625782
0.000179236
0.000450493
0.000182309
0.000270395
8.73347e-05
0.000183361
1.81073e-05
0.00180462
1.75757e-07
3.66209e-05
0.00175331
5.49156e-05
0.0017008
7.26934e-05
0.00163672
8.97205e-05
0.00155749
0.000105786
0.00146288
0.000120702
0.00135317
0.000134295
0.00122931
0.000146408
0.00109249
0.000156904
0.000944096
0.000165665
0.000785654
0.000172592
0.000618857
0.000177606
0.00044548
0.000180653
0.000267352
8.62968e-05
0.000181695
1.79385e-05
0.00178651
1.78193e-07
3.62835e-05
0.00173496
5.44116e-05
0.00168267
7.20276e-05
0.0016191
8.88999e-05
0.00154062
0.00010482
0.00144696
0.000119601
0.00133839
0.00013307
0.00121584
0.000145074
0.00108049
0.000155476
0.000933693
0.000164158
0.00077697
0.000171022
0.000611991
0.000175992
0.000440508
0.000179011
0.000264329
8.52574e-05
0.000180045
1.77714e-05
0.00176856
1.80634e-07
3.59491e-05
0.00171678
5.39121e-05
0.00166471
7.13679e-05
0.00160164
8.80868e-05
0.0015239
0.000103863
0.00143118
0.000118509
0.00132374
0.000131857
0.0012025
0.000143752
0.00106859
0.00015406
0.000923386
0.000162664
0.000768368
0.000169467
0.000605189
0.000174392
0.000435585
0.000177384
0.00026134
8.42373e-05
0.000178409
1.76057e-05
0.00175077
1.83052e-07
3.56178e-05
0.00169877
5.34172e-05
0.00164691
7.07142e-05
0.00158435
8.72812e-05
0.00150733
0.000102914
0.00141555
0.000117428
0.00130923
0.000130654
0.00118927
0.000142442
0.0010568
0.000152657
0.00091317
0.000161184
0.00075984
0.000167926
0.000598445
0.000172807
0.000430701
0.000175773
0.000258371
8.32155e-05
0.000176789
1.74416e-05
0.00173314
1.85419e-07
3.52896e-05
0.00168092
5.29269e-05
0.00162927
7.00665e-05
0.00156721
8.6483e-05
0.00149092
0.000101974
0.00140006
0.000116356
0.00129485
0.000129463
0.00117616
0.000141145
0.00104512
0.000151268
0.000903048
0.000159717
0.000751391
0.000166399
0.000591766
0.000171236
0.000425865
0.000174176
0.000255434
8.2213e-05
0.000175184
1.7279e-05
0.00171567
1.8771e-07
3.49644e-05
0.00166324
5.24411e-05
0.0016118
6.94248e-05
0.00155022
8.56921e-05
0.00147465
0.000101042
0.00138471
0.000115294
0.00128059
0.000128283
0.00116317
0.000139859
0.00103355
0.000149891
0.000893015
0.000158264
0.000743015
0.000164886
0.000585142
0.00016968
0.000421068
0.000172594
0.000252517
8.12084e-05
0.000173593
1.7118e-05
0.00169837
1.89907e-07
3.46422e-05
0.00164571
5.19597e-05
0.00159448
6.87889e-05
0.0015334
8.49085e-05
0.00145853
0.000100119
0.0013695
0.000114242
0.00126647
0.000127113
0.0011503
0.000138585
0.00102208
0.000148526
0.000883074
0.000156825
0.000734718
0.000163387
0.000578581
0.000168139
0.000416318
0.000171027
0.000249632
8.02231e-05
0.000172017
1.69584e-05
0.00168122
1.91996e-07
3.43229e-05
0.00162835
5.14828e-05
0.00157732
6.81589e-05
0.00151672
8.4132e-05
0.00144256
9.92049e-05
0.00135442
0.0001132
0.00125248
0.000125955
0.00113755
0.000137323
0.00101071
0.000147175
0.000873221
0.000155399
0.000726492
0.000161902
0.000572076
0.000166611
0.000411606
0.000169474
0.000246767
7.92353e-05
0.000170455
1.68002e-05
0.00166422
1.93972e-07
3.40066e-05
0.00161114
5.10102e-05
0.00156032
6.75346e-05
0.00150019
8.33627e-05
0.00142673
9.82989e-05
0.00133949
0.000112167
0.00123861
0.000124807
0.00112491
0.000136072
0.000999443
0.000145835
0.000863459
0.000153985
0.000718343
0.000160431
0.000565632
0.000165098
0.000406941
0.000167935
0.000243933
7.82669e-05
0.000168908
1.66436e-05
0.00164738
1.95834e-07
3.36932e-05
0.00159409
5.0542e-05
0.00154347
6.69161e-05
0.00148382
8.26004e-05
0.00141104
9.74012e-05
0.00132469
0.000111144
0.00122487
0.000123669
0.00111238
0.000134833
0.000988278
0.000144508
0.000853783
0.000152585
0.000710265
0.000158973
0.000559243
0.000163598
0.000402313
0.00016641
0.000241117
7.72956e-05
0.000167376
1.64884e-05
0.0016307
1.97593e-07
3.33827e-05
0.0015772
5.00781e-05
0.00152677
6.63033e-05
0.0014676
8.18452e-05
0.0013955
9.65118e-05
0.00131002
0.00011013
0.00121125
0.000122542
0.00109997
0.000133605
0.000977215
0.000143193
0.000844195
0.000151198
0.000702261
0.000157528
0.000552914
0.000162113
0.00039773
0.0001649
0.000238333
7.63436e-05
0.000165857
1.63346e-05
0.00161416
1.99262e-07
3.3075e-05
0.00156046
4.96184e-05
0.00151023
6.56961e-05
0.00145152
8.10969e-05
0.0013801
9.56305e-05
0.00129549
0.000109126
0.00119775
0.000121426
0.00108767
0.000132389
0.000966251
0.000141891
0.000834692
0.000149824
0.000694327
0.000156097
0.000546639
0.000160641
0.000393184
0.000163403
0.000235567
7.53886e-05
0.000164352
1.61822e-05
0.00159778
2.00861e-07
3.27701e-05
0.00154387
4.9163e-05
0.00149384
6.50945e-05
0.00143559
8.03554e-05
0.00136484
9.47573e-05
0.00128108
0.00010813
0.00118438
0.000120319
0.00107548
0.000131184
0.000955387
0.0001406
0.000825277
0.000148462
0.000686467
0.000154679
0.000540422
0.000159183
0.000388682
0.000161921
0.000232832
7.44528e-05
0.000162862
1.60313e-05
0.00158155
2.02413e-07
3.24681e-05
0.00152743
4.87117e-05
0.00147759
6.44984e-05
0.0014198
7.96208e-05
0.00134972
9.38922e-05
0.00126681
0.000107144
0.00117113
0.000119223
0.0010634
0.00012999
0.000944619
0.000139322
0.000815944
0.000147113
0.000678674
0.000153275
0.000534258
0.000157738
0.000384217
0.000160452
0.000230114
7.35135e-05
0.000161385
1.58817e-05
0.00156546
2.03944e-07
3.21688e-05
0.00151115
4.82646e-05
0.0014615
6.39078e-05
0.00140416
7.88929e-05
0.00133473
9.3035e-05
0.00125267
0.000106167
0.00115799
0.000118137
0.00105143
0.000128807
0.00093395
0.000138055
0.000806697
0.000145776
0.000670954
0.000151883
0.000528153
0.000156306
0.000379795
0.000158996
0.000227427
7.25935e-05
0.000159922
1.57335e-05
0.00154952
2.05479e-07
3.18723e-05
0.00149501
4.78216e-05
0.00144555
6.33226e-05
0.00138865
7.81718e-05
0.00131988
9.21858e-05
0.00123866
0.000105199
0.00114498
0.000117061
0.00103957
0.000127635
0.000923376
0.000136799
0.00079753
0.000144451
0.0006633
0.000150504
0.000522099
0.000154888
0.000375408
0.000157555
0.000224757
7.16698e-05
0.000158472
1.55867e-05
0.00153373
2.07041e-07
3.15785e-05
0.00147902
4.73827e-05
0.00142974
6.27428e-05
0.00137329
7.74573e-05
0.00130517
9.13443e-05
0.00122477
0.00010424
0.00113209
0.000115995
0.00102782
0.000126473
0.000912898
0.000135556
0.000788449
0.000143139
0.000655718
0.000149138
0.000516102
0.000153483
0.000371065
0.000156126
0.000222117
7.07653e-05
0.000157036
1.54412e-05
0.00151808
2.08647e-07
3.12874e-05
0.00146317
4.69478e-05
0.00141408
6.21684e-05
0.00135807
7.67493e-05
0.00129059
9.05106e-05
0.00121101
0.00010329
0.00111931
0.000114939
0.00101617
0.000125323
0.000902513
0.000134324
0.000779447
0.000141839
0.000648201
0.000147784
0.000510155
0.000152091
0.000366755
0.000154711
0.000219493
6.98567e-05
0.000155613
1.52971e-05
0.00150257
2.1031e-07
3.0999e-05
0.00144747
4.65169e-05
0.00139856
6.15992e-05
0.00134299
7.60479e-05
0.00127614
8.96846e-05
0.00119737
0.000102348
0.00110664
0.000113892
0.00100462
0.000124183
0.000892223
0.000133103
0.000770527
0.000140551
0.000640754
0.000146443
0.000504265
0.000150711
0.000362489
0.000153308
0.000216899
6.89673e-05
0.000154203
1.51543e-05
0.0014872
2.12035e-07
3.07132e-05
0.00143191
4.609e-05
0.00138319
6.10353e-05
0.00132805
7.53529e-05
0.00126182
8.88662e-05
0.00118386
0.000101416
0.00109409
0.000112855
0.000993182
0.000123053
0.000882024
0.000131894
0.000761686
0.000139275
0.000633371
0.000145114
0.000498423
0.000149345
0.000358255
0.000151919
0.000214322
6.80737e-05
0.000152806
1.50128e-05
0.00147198
2.13821e-07
3.04301e-05
0.00141649
4.5667e-05
0.00136795
6.04766e-05
0.00131324
7.46644e-05
0.00124763
8.80554e-05
0.00117047
0.000100491
0.00108166
0.000111828
0.000981847
0.000121934
0.000871918
0.000130695
0.000752926
0.000138011
0.000626056
0.000143798
0.000492638
0.000147991
0.000354064
0.000150543
0.000211773
6.71991e-05
0.000151422
1.48726e-05
0.00145689
2.15659e-07
3.01496e-05
0.00140121
4.52479e-05
0.00135285
5.9923e-05
0.00129856
7.39822e-05
0.00123357
8.7252e-05
0.0011572
9.95758e-05
0.00106933
0.00011081
0.000970611
0.000120826
0.000861901
0.000129508
0.000744242
0.000136758
0.000618804
0.000142494
0.0004869
0.00014665
0.000349906
0.000149179
0.00020924
6.632e-05
0.000150052
1.47337e-05
0.00144194
2.17536e-07
2.98716e-05
0.00138608
4.48327e-05
0.00133789
5.93745e-05
0.00128402
7.33063e-05
0.00121964
8.64561e-05
0.00114405
9.86687e-05
0.00105712
0.000109802
0.000959479
0.000119728
0.000851976
0.000128332
0.000735639
0.000135517
0.00061162
0.000141202
0.000481217
0.000145321
0.000345788
0.000147828
0.000206736
6.54599e-05
0.000148693
1.45961e-05
0.00142712
2.19432e-07
2.95963e-05
0.00137108
4.44213e-05
0.00132307
5.88311e-05
0.00126961
7.26366e-05
0.00120584
8.56675e-05
0.00113102
9.77699e-05
0.00104502
0.000108803
0.000948445
0.000118639
0.000842139
0.000127167
0.00072711
0.000134288
0.000604497
0.000139922
0.000475581
0.000144005
0.000341703
0.00014649
0.000204247
6.45951e-05
0.000147348
1.44597e-05
0.00141244
2.21327e-07
2.93234e-05
0.00135621
4.40137e-05
0.00130838
5.82927e-05
0.00125533
7.19732e-05
0.00119216
8.48863e-05
0.0011181
9.68795e-05
0.00103302
0.000107813
0.000937512
0.000117561
0.000832391
0.000126012
0.00071866
0.00013307
0.000597441
0.000138654
0.000469999
0.0001427
0.000337658
0.000145164
0.000201787
6.37492e-05
0.000146015
1.43246e-05
0.00139789
2.23196e-07
2.90531e-05
0.00134148
4.36098e-05
0.00129382
5.77592e-05
0.00124118
7.13158e-05
0.0011786
8.41122e-05
0.00110531
9.59973e-05
0.00102114
0.000106833
0.000926676
0.000116493
0.00082273
0.000124869
0.000710283
0.000131863
0.000590445
0.000137397
0.000464462
0.000141408
0.000333644
0.00014385
0.000199341
6.28983e-05
0.000144694
1.41908e-05
0.00138348
2.25018e-07
2.87853e-05
0.00132689
4.32097e-05
0.0012794
5.72307e-05
0.00122716
7.06645e-05
0.00116517
8.33453e-05
0.00109263
9.51232e-05
0.00100936
0.000105861
0.000915938
0.000115435
0.000813156