/*--------------------------------*- C++ -*----------------------------------*\
  =========                 |
  \\      /  F ield         | OpenFOAM: The Open Source CFD Toolbox
   \\    /   O peration     | Website:  https://openfoam.org
    \\  /    A nd           | Version:  6.0
     \\/     M anipulation  |
\*---------------------------------------------------------------------------*/
FoamFile
{
    version     2.0;
    format      ascii;
    class       volVectorField;
    location    "3.8";
    object      U;
}
// * * * * * * * * * * * * * * * * * * * * * * * * * * * * * * * * * * * * * //

dimensions      [0 1 -1 0 0 0 0];

internalField   nonuniform List<vector> 
34500
(
(0.999996 5.8202e-06 -4.63294e-17)
(0.999971 -7.23026e-06 -8.13461e-18)
(0.999922 -3.23276e-05 1.42196e-16)
(0.999858 -7.48018e-05 -1.07634e-16)
(0.999789 -0.000136722 3.35394e-17)
(0.999724 -0.000216234 -1.0143e-16)
(0.999673 -0.000309118 -1.00946e-16)
(0.999643 -0.000409753 8.64839e-17)
(0.999638 -0.000510065 1.07201e-16)
(0.999658 -0.000602313 -6.82636e-16)
(0.999702 -0.000677254 -1.03941e-15)
(0.999764 -0.000736805 1.26645e-16)
(0.999838 -0.000764448 4.33329e-16)
(0.999973 -0.000830931 -2.06743e-16)
(0.998858 -0.00138705 7.58483e-17)
(0.999992 1.61742e-05 3.24456e-17)
(0.999945 -1.50398e-05 9.76248e-17)
(0.999859 -6.81423e-05 7.17412e-17)
(0.999747 -0.000150884 -3.02116e-16)
(0.999627 -0.000266892 -5.05697e-16)
(0.999518 -0.000412521 -5.50165e-17)
(0.999434 -0.000580207 2.55391e-16)
(0.999388 -0.000759807 -6.76889e-16)
(0.999386 -0.000936468 -1.78514e-16)
(0.999432 -0.00109545 6.80895e-16)
(0.999521 -0.0012185 1.26086e-15)
(0.999642 -0.00130859 -6.28282e-16)
(0.999773 -0.00133359 -9.82427e-16)
(1.00007 -0.00138511 -3.93726e-16)
(0.998927 -0.00189807 5.17876e-16)
(0.99999 2.54279e-05 1.04673e-17)
(0.999949 -1.93978e-05 -1.22901e-16)
(0.999876 -8.36076e-05 -1.2514e-16)
(0.999782 -0.000171317 4.55528e-16)
(0.999685 -0.000285304 -2.86065e-17)
(0.9996 -0.000421325 -1.63942e-16)
(0.999539 -0.000572482 9.77689e-17)
(0.999512 -0.00073072 3.84342e-16)
(0.999524 -0.00088314 2.38087e-19)
(0.999577 -0.00101743 -3.92579e-16)
(0.999666 -0.00111603 -7.27174e-16)
(0.999787 -0.00118291 4.13054e-16)
(0.999892 -0.00119199 2.24347e-16)
(1.00021 -0.00120253 1.63999e-16)
(0.999491 -0.00140746 -2.43323e-16)
(0.999986 3.36592e-05 -1.73541e-17)
(0.999952 -2.5096e-05 -9.02265e-18)
(0.999894 -0.000100133 4.83108e-17)
(0.999822 -0.000192124 -3.05292e-16)
(0.999749 -0.000303243 3.7207e-16)
(0.999687 -0.000429146 3.29758e-16)
(0.999649 -0.000563831 -3.99224e-16)
(0.999638 -0.000701605 -4.19614e-16)
(0.999661 -0.000832178 4.34612e-16)
(0.999717 -0.000946769 -4.70038e-16)
(0.999802 -0.0010302 -2.44124e-16)
(0.999916 -0.00108808 -3.84728e-16)
(0.999994 -0.00110481 5.41176e-16)
(1.00028 -0.00111224 -4.7894e-17)
(0.999808 -0.00128879 2.1401e-17)
(0.99998 4.14787e-05 -1.70429e-17)
(0.999947 -3.20905e-05 1.53297e-16)
(0.999893 -0.000121755 6.95405e-17)
(0.999825 -0.000226462 1.69703e-16)
(0.999757 -0.000348554 4.67269e-17)
(0.999703 -0.000483578 -1.58167e-16)
(0.999672 -0.000625337 1.02463e-16)
(0.999669 -0.000768222 2.66117e-16)
(0.9997 -0.000902286 -4.17342e-16)
(0.999763 -0.00101975 -2.30761e-16)
(0.999855 -0.00110604 1.00534e-15)
(0.999977 -0.0011668 6.33257e-16)
(1.00005 -0.00119149 -2.89095e-16)
(1.00031 -0.001193 5.90861e-16)
(1 -0.00135019 -5.86147e-16)
(0.999973 4.92797e-05 1.83514e-17)
(0.999939 -3.88625e-05 -9.47992e-17)
(0.999884 -0.000143711 -1.86303e-16)
(0.999817 -0.000262984 -5.29218e-17)
(0.999751 -0.000399266 1.09391e-16)
(0.9997 -0.000548008 -1.08793e-16)
(0.999673 -0.000702407 1.48093e-16)
(0.999678 -0.000855962 1.31105e-16)
(0.999718 -0.000997889 2.90794e-16)
(0.999793 -0.00112014 -1.00166e-16)
(0.999895 -0.0012078 2.87628e-18)
(1.00003 -0.00126517 -3.88703e-16)
(1.00012 -0.00128363 1.82792e-17)
(1.00035 -0.00126127 -4.67838e-16)
(1.00018 -0.0013341 7.40141e-17)
(0.999965 5.71386e-05 3.25535e-18)
(0.99993 -4.49774e-05 -3.55835e-17)
(0.999879 -0.000163758 -2.90138e-17)
(0.999816 -0.000295455 1.75695e-16)
(0.999757 -0.000442619 -2.2038e-16)
(0.999712 -0.000600775 2.75338e-16)
(0.999694 -0.00076281 -6.18928e-16)
(0.999708 -0.000921583 -3.6963e-16)
(0.999758 -0.00106551 -1.51492e-16)
(0.999844 -0.00118627 6.70798e-16)
(0.999957 -0.0012689 -7.67528e-16)
(1.00011 -0.00131621 2.97688e-16)
(1.0002 -0.00132226 4.55438e-16)
(1.00041 -0.0012738 -9.5676e-17)
(1.00034 -0.001278 -1.20528e-16)
(0.999956 6.5076e-05 1.51158e-17)
(0.999922 -5.07095e-05 3.22825e-17)
(0.999875 -0.000182645 2.50239e-17)
(0.99982 -0.000325377 -1.50827e-16)
(0.99977 -0.000481212 3.28757e-16)
(0.999735 -0.000645862 -1.39533e-16)
(0.999727 -0.000812235 2.01446e-16)
(0.999752 -0.000972965 -1.46188e-16)
(0.999813 -0.00111587 3.97319e-16)
(0.999909 -0.00123249 1.77622e-16)
(1.00003 -0.00130811 2.44542e-16)
(1.00019 -0.00134446 -5.64528e-17)
(1.0003 -0.00133927 -5.03875e-16)
(1.00048 -0.00127142 1.13642e-15)
(1.00047 -0.00123965 1.86226e-16)
(0.999945 7.3157e-05 -1.12154e-17)
(0.999912 -5.62649e-05 9.89405e-17)
(0.999871 -0.000201283 1.50766e-16)
(0.999823 -0.000355012 1.11888e-16)
(0.999782 -0.00051938 -4.88506e-16)
(0.999758 -0.000690219 1.40911e-16)
(0.999761 -0.000860562 3.20565e-16)
(0.999797 -0.00102304 7.72091e-16)
(0.999868 -0.00116496 -3.85184e-16)
(0.999975 -0.00127772 8.99842e-17)
(1.0001 -0.00134695 4.48718e-16)
(1.00027 -0.00137349 -3.23424e-16)
(1.00039 -0.00135889 -1.53841e-16)
(1.00056 -0.00127702 -3.80285e-16)
(1.00059 -0.00122269 8.39105e-17)
(0.999934 8.14709e-05 4.06831e-17)
(0.999901 -6.16414e-05 -8.97229e-17)
(0.999864 -0.000219852 8.8505e-18)
(0.999824 -0.000384893 -1.1015e-16)
(0.999792 -0.000558202 4.10501e-16)
(0.999779 -0.000735548 7.95798e-17)
(0.999793 -0.000910031 2.70121e-16)
(0.99984 -0.0010744 -5.72805e-16)
(0.999923 -0.00121562 4.15666e-17)
(1.00004 -0.00132504 -7.86391e-17)
(1.00018 -0.00138872 -1.39574e-16)
(1.00035 -0.00140672 4.40946e-17)
(1.00049 -0.00138413 5.9162e-16)
(1.00064 -0.00129192 -8.03293e-16)
(1.0007 -0.00122063 -2.6902e-16)
(0.999921 9.00883e-05 -2.62202e-17)
(0.999889 -6.6799e-05 3.52442e-17)
(0.999856 -0.000238305 -1.47495e-16)
(0.999822 -0.000414942 2.49887e-16)
(0.9998 -0.000597607 -3.61461e-16)
(0.999798 -0.000781795 -3.02972e-16)
(0.999824 -0.00096057 -3.38722e-16)
(0.999883 -0.00112687 3.90989e-17)
(0.999976 -0.00126753 -8.13738e-17)
(1.0001 -0.00137406 -4.24279e-16)
(1.00025 -0.0014332 -7.20683e-16)
(1.00043 -0.00144426 2.85612e-16)
(1.00058 -0.00141525 -3.28062e-16)
(1.00073 -0.0013158 9.06021e-16)
(1.00081 -0.00123128 5.36629e-17)
(0.999907 9.90681e-05 -2.45519e-17)
(0.999875 -7.17155e-05 -1.04216e-16)
(0.999846 -0.000256648 1.50706e-16)
(0.999819 -0.000445231 -2.34105e-16)
(0.999806 -0.000637842 7.68494e-17)
(0.999814 -0.000829536 4.5405e-16)
(0.999852 -0.00101319 5.53758e-17)
(0.999923 -0.0011819 -6.73254e-17)
(1.00003 -0.00132254 1.81475e-16)
(1.00016 -0.00142696 -1.56843e-16)
(1.00032 -0.00148271 -9.50284e-17)
(1.00051 -0.00148836 -6.67379e-17)
(1.00067 -0.00145388 -2.86904e-16)
(1.00082 -0.00134848 -6.20765e-16)
(1.00091 -0.00125045 1.24023e-17)
(0.999891 0.000108452 -2.17638e-18)
(0.99986 -7.6377e-05 1.40473e-16)
(0.999834 -0.000274908 -2.21475e-16)
(0.999813 -0.000475854 8.33901e-17)
(0.999808 -0.000679155 -9.35419e-17)
(0.999827 -0.000879321 -1.54717e-16)
(0.999876 -0.00106888 -3.88829e-17)
(0.999958 -0.00124089 3.64939e-16)
(1.00007 -0.00138237 -6.30053e-16)
(1.00022 -0.00148547 4.20123e-16)
(1.00039 -0.00153861 2.20418e-16)
(1.00058 -0.00153951 1.83981e-16)
(1.00075 -0.00149901 7.48982e-16)
(1.00092 -0.0013865 7.29406e-16)
(1.00102 -0.00127166 5.48114e-16)
(0.999874 0.000118273 8.30224e-18)
(0.999843 -8.07519e-05 5.28678e-17)
(0.99982 -0.000293029 1.7603e-16)
(0.999805 -0.000506686 5.57595e-17)
(0.999808 -0.000721315 1.70604e-16)
(0.999836 -0.000930842 1.68019e-16)
(0.999896 -0.00112729 -1.18441e-17)
(0.99999 -0.00130347 4.92847e-17)
(1.00012 -0.00144644 9.37465e-16)
(1.00028 -0.00154858 -1.13877e-16)
(1.00045 -0.00159909 5.4199e-16)
(1.00066 -0.00159475 -7.38723e-16)
(1.00084 -0.00154648 1.36899e-16)
(1.00101 -0.00142442 -1.34369e-15)
(1.00114 -0.00128988 -6.15936e-16)
(0.999856 0.000128538 9.93851e-18)
(0.999825 -8.4819e-05 -1.17662e-16)
(0.999805 -0.000310928 1.54763e-16)
(0.999795 -0.000537473 -2.24061e-16)
(0.999806 -0.000763764 1.56807e-16)
(0.999843 -0.00098315 2.07164e-17)
(0.999914 -0.00118704 1.94975e-16)
(1.00002 -0.00136783 -2.59946e-16)
(1.00016 -0.00151249 -8.38834e-16)
(1.00033 -0.00161348 2.49203e-16)
(1.00052 -0.00166065 -5.60026e-16)
(1.00073 -0.00164995 1.12777e-16)
(1.00092 -0.00159195 -4.89995e-16)
(1.0011 -0.00145821 2.65493e-16)
(1.00125 -0.00130374 -1.08423e-16)
(0.999836 0.000139242 3.32342e-17)
(0.999806 -8.85702e-05 7.18745e-17)
(0.999789 -0.000328539 -3.5889e-16)
(0.999784 -0.00056798 2.88328e-16)
(0.999803 -0.000805944 -2.79901e-16)
(0.999849 -0.00103524 -3.72891e-16)
(0.999931 -0.00124663 -3.82848e-16)
(1.00005 -0.00143198 3.37521e-16)
(1.0002 -0.00157808 7.18696e-16)
(1.00038 -0.00167736 1.6298e-16)
(1.00058 -0.00172025 9.46784e-17)
(1.0008 -0.00170205 7.00607e-17)
(1.00101 -0.00163306 -7.32579e-16)
(1.0012 -0.00148687 6.43506e-17)
(1.00137 -0.00131488 6.32173e-16)
(0.999815 0.000150354 -8.96481e-17)
(0.999785 -9.20291e-05 -9.23806e-17)
(0.999772 -0.000345865 3.42787e-17)
(0.999773 -0.000598114 -2.64289e-16)
(0.9998 -0.000847555 -1.79632e-17)
(0.999856 -0.00108648 4.81546e-16)
(0.999949 -0.00130504 5.50582e-17)
(1.00008 -0.00149457 3.04011e-16)
(1.00024 -0.00164164 -6.0271e-16)
(1.00044 -0.0017386 -3.09581e-16)
(1.00065 -0.00177648 4.44457e-16)
(1.00088 -0.0017502 -1.49009e-16)
(1.00109 -0.00167002 4.8346e-16)
(1.00129 -0.00151208 7.49004e-16)
(1.00148 -0.00132646 -5.979e-17)
(0.999791 0.000161833 2.80847e-17)
(0.999763 -9.52322e-05 1.14734e-17)
(0.999753 -0.000362956 1.15598e-16)
(0.999761 -0.000627923 2.25837e-18)
(0.999797 -0.000888593 9.8841e-17)
(0.999864 -0.00113677 -2.89566e-16)
(0.999968 -0.00136202 5.98091e-16)
(1.00011 -0.00155523 -1.53444e-16)
(1.00029 -0.00170282 6.52299e-16)
(1.0005 -0.00179711 -3.41229e-16)
(1.00072 -0.00182971 -5.43286e-16)
(1.00096 -0.00179549 5.24298e-16)
(1.00118 -0.00170488 -8.83833e-16)
(1.00139 -0.00153682 -1.30146e-15)
(1.00159 -0.00134135 -3.29258e-16)
(0.999767 0.000173622 3.12694e-18)
(0.99974 -9.82345e-05 1.9495e-17)
(0.999734 -0.000379912 -3.12091e-17)
(0.999749 -0.000657577 1.58634e-16)
(0.999793 -0.000929318 1.08798e-16)
(0.999871 -0.00118643 -4.26614e-17)
(0.999988 -0.00141798 -3.60507e-16)
(1.00014 -0.00161452 -3.47512e-16)
(1.00033 -0.00176242 -2.34885e-16)
(1.00055 -0.00185401 4.32813e-16)
(1.00079 -0.0018816 3.35335e-16)
(1.00104 -0.00184018 -4.92979e-16)
(1.00127 -0.00174036 1.09489e-15)
(1.00148 -0.00156392 1.37136e-15)
(1.00169 -0.00136107 4.63212e-17)
(0.999741 0.000185667 3.57559e-17)
(0.999715 -0.000101086 -4.75892e-17)
(0.999713 -0.000396833 2.29391e-16)
(0.999735 -0.000687288 -4.56851e-17)
(0.999789 -0.000970108 -1.74358e-16)
(0.999878 -0.00123606 7.39159e-17)
(1.00001 -0.00147377 -1.29672e-16)
(1.00018 -0.00167355 2.93408e-16)
(1.00038 -0.00182183 7.71248e-17)
(1.00061 -0.00191106 5.39119e-17)
(1.00086 -0.00193422 -2.57177e-16)
(1.00111 -0.00188656 3.41339e-16)
(1.00136 -0.00177866 1.73948e-16)
(1.00158 -0.00159493 1.55361e-16)
(1.00179 -0.0013853 3.93444e-16)
(0.999713 0.000197901 -1.83816e-17)
(0.999689 -0.000103839 2.72422e-17)
(0.999691 -0.000413816 -3.71841e-16)
(0.99972 -0.000717255 -2.37892e-16)
(0.999783 -0.00101134 3.29237e-16)
(0.999884 -0.00128629 -8.9128e-17)
(1.00003 -0.00153029 5.20619e-16)
(1.00021 -0.00173349 -1.41341e-16)
(1.00042 -0.00188247 -7.50657e-18)
(1.00067 -0.00196985 -1.49911e-16)
(1.00092 -0.00198923 3.84895e-16)
(1.00119 -0.00193608 -2.42569e-16)
(1.00144 -0.0018207 -7.97213e-16)
(1.00167 -0.00162984 -1.89664e-16)
(1.00189 -0.00141248 -4.49439e-16)
(0.999684 0.00021027 2.47444e-17)
(0.999662 -0.00010653 1.12551e-16)
(0.999667 -0.000430916 3.35146e-16)
(0.999703 -0.000747598 2.601e-16)
(0.999775 -0.00105326 -3.20599e-17)
(0.999887 -0.00133752 -1.30234e-16)
(1.00004 -0.00158815 -5.76345e-16)
(1.00023 -0.00179512 -6.70047e-17)
(1.00046 -0.00194524 -3.42297e-16)
(1.00072 -0.00203123 1.10856e-16)
(1.00099 -0.00204725 -7.05488e-16)
(1.00127 -0.00198893 3.40265e-16)
(1.00153 -0.00186601 1.14849e-15)
(1.00176 -0.00166732 -8.85026e-16)
(1.00199 -0.00144058 5.23928e-16)
(0.999654 0.000222712 -1.99525e-17)
(0.999633 -0.000109195 -1.58363e-16)
(0.999642 -0.000448162 -1.91812e-16)
(0.999683 -0.000778351 -9.56647e-17)
(0.999765 -0.00109592 -6.12644e-17)
(0.999888 -0.00138987 8.41043e-17)
(1.00005 -0.00164751 -3.22063e-17)
(1.00026 -0.00185866 -4.42335e-16)
(1.0005 -0.00201026 -1.30187e-16)
(1.00077 -0.00209515 -3.27749e-17)
(1.00105 -0.00210789 6.42138e-16)
(1.00134 -0.00204424 1.07383e-16)
(1.00161 -0.0019132 -9.54876e-16)
(1.00186 -0.00170564 5.06449e-16)
(1.0021 -0.00146799 -1.01414e-16)
(0.999623 0.000235181 1.80237e-17)
(0.999602 -0.000111854 9.31128e-17)
(0.999615 -0.000465544 9.23198e-17)
(0.999662 -0.000809456 1.79537e-16)
(0.999753 -0.0011392 -9.78148e-17)
(0.999886 -0.00144314 -2.75125e-17)
(1.00006 -0.00170812 1.9877e-16)
(1.00028 -0.00192372 2.97e-16)
(1.00054 -0.002077 -2.14046e-17)
(1.00082 -0.00216081 -3.58512e-16)
(1.00111 -0.00217006 -2.75545e-16)
(1.00141 -0.0021006 -4.84271e-16)
(1.0017 -0.00196072 2.03088e-17)
(1.00195 -0.0017433 2.62237e-16)
(1.0022 -0.00149409 -1.58539e-16)
(0.99959 0.000247627 -9.63719e-18)
(0.99957 -0.000114533 -5.51019e-17)
(0.999586 -0.000483047 1.40206e-16)
(0.99964 -0.000840819 1.47048e-17)
(0.999739 -0.00118289 -1.24517e-16)
(0.999883 -0.001497 1.00406e-16)
(1.00007 -0.00176948 -4.79601e-17)
(1.00031 -0.00198963 2.73847e-16)
(1.00057 -0.00214459 5.0594e-16)
(1.00087 -0.00222718 7.85615e-17)
(1.00118 -0.00223254 2.37788e-16)
(1.00149 -0.00215674 2.41978e-16)
(1.00178 -0.00200749 5.97103e-17)
(1.00205 -0.00177972 -5.39664e-16)
(1.00231 -0.00151912 1.30709e-16)
(0.999556 0.000260018 1.29092e-17)
(0.999537 -0.000117253 1.16054e-17)
(0.999556 -0.000500648 -2.86436e-16)
(0.999616 -0.000872338 -1.25131e-16)
(0.999723 -0.00122677 1.75918e-16)
(0.999879 -0.00155106 -2.74592e-17)
(1.00008 -0.00183103 1.83642e-16)
(1.00033 -0.0020557 -2.43896e-16)
(1.00061 -0.00221222 1.39024e-16)
(1.00092 -0.00229335 1.15612e-16)
(1.00124 -0.0022945 1.22018e-16)
(1.00156 -0.00221201 1.55225e-16)
(1.00187 -0.00205322 2.15692e-16)
(1.00215 -0.00181516 3.03377e-17)
(1.00242 -0.00154409 7.68869e-17)
(0.999521 0.000272321 -3.97182e-17)
(0.999502 -0.000120045 1.05094e-16)
(0.999525 -0.000518349 1.64466e-16)
(0.999591 -0.000903958 -1.05274e-16)
(0.999707 -0.0012707 -6.84376e-17)
(0.999873 -0.00160508 3.89507e-17)
(1.00009 -0.00189244 -2.00062e-16)
(1.00035 -0.0021215 -1.30898e-16)
(1.00065 -0.00227943 -1.71919e-16)
(1.00097 -0.00235896 2.73212e-16)
(1.0013 -0.00235574 -3.78959e-16)
(1.00164 -0.00226651 2.95918e-16)
(1.00196 -0.0020984 1.44871e-16)
(1.00224 -0.0018505 5.41814e-16)
(1.00252 -0.00157008 -4.95268e-16)
(0.999485 0.000284521 1.67595e-17)
(0.999466 -0.000122931 -7.91017e-17)
(0.999492 -0.000536161 5.79144e-17)
(0.999564 -0.000935662 1.28087e-16)
(0.99969 -0.00131464 -8.87979e-17)
(0.999868 -0.00165898 -1.50063e-16)
(1.0001 -0.00195362 -7.10452e-17)
(1.00037 -0.00218696 9.78997e-17)
(1.00068 -0.00234624 -4.47776e-16)
(1.00102 -0.00242415 6.60615e-17)
(1.00137 -0.00241663 2.51795e-16)
(1.00171 -0.00232088 -7.03539e-16)
(1.00204 -0.00214389 1.41992e-16)
(1.00234 -0.00188674 2.17356e-17)
(1.00263 -0.00159765 3.65207e-16)
(0.999448 0.000296603 -6.37141e-18)
(0.999428 -0.000125943 9.69473e-17)
(0.999458 -0.00055412 -9.36606e-17)
(0.999537 -0.000967498 -5.81307e-17)
(0.999672 -0.00135866 -9.27086e-17)
(0.999861 -0.0017129 -4.90242e-17)
(1.0001 -0.00201475 -1.05699e-16)
(1.00039 -0.00225237 7.54586e-17)
(1.00072 -0.00241305 2.90167e-17)
(1.00107 -0.00248949 -3.10027e-16)
(1.00143 -0.0024779 -3.69775e-16)
(1.00179 -0.002376 4.10081e-16)
(1.00213 -0.0021906 -3.57789e-16)
(1.00244 -0.00192461 -1.13837e-16)
(1.00273 -0.00162714 -1.11846e-17)
(0.99941 0.000308573 -1.92795e-17)
(0.99939 -0.000129102 -4.4785e-17)
(0.999423 -0.000572259 3.16299e-17)
(0.999509 -0.000999529 2.25381e-16)
(0.999653 -0.00140287 3.76368e-16)
(0.999853 -0.00176703 3.0724e-16)
(1.00011 -0.00207614 3.3566e-16)
(1.00041 -0.00231815 -2.14122e-16)
(1.00075 -0.00248041 6.75293e-20)
(1.00112 -0.00255564 2.32179e-16)
(1.00149 -0.0025403 4.57094e-17)
(1.00187 -0.00243256 2.5198e-16)
(1.00222 -0.00223905 2.02389e-16)
(1.00253 -0.0019643 -5.29881e-16)
(1.00283 -0.00165811 -3.47357e-16)
(0.99937 0.000320433 9.91951e-18)
(0.999349 -0.000132429 -8.09449e-17)
(0.999386 -0.000590617 -1.61907e-16)
(0.999479 -0.00103183 -1.5892e-16)
(0.999632 -0.00144744 1.46057e-17)
(0.999845 -0.00182161 -1.73456e-16)
(1.00011 -0.00213814 -3.77643e-16)
(1.00043 -0.00238475 2.88217e-16)
(1.00078 -0.00254884 2.34383e-16)
(1.00116 -0.00262314 -5.16739e-16)
(1.00155 -0.00260429 4.23795e-16)
(1.00194 -0.0024909 -3.08849e-16)
(1.0023 -0.00228933 -1.42298e-16)
(1.00263 -0.00200559 -1.24334e-16)
(1.00294 -0.00169007 1.47997e-16)
(0.999329 0.000332202 3.77598e-17)
(0.999308 -0.000135928 1.73685e-17)
(0.999348 -0.000609216 8.75689e-17)
(0.999447 -0.00106446 4.06764e-17)
(0.99961 -0.00149246 4.78543e-17)
(0.999834 -0.00187682 2.99992e-16)
(1.00012 -0.00220098 -1.35539e-16)
(1.00045 -0.00245243 1.48094e-16)
(1.00082 -0.0026186 8.50198e-17)
(1.00121 -0.0026922 5.92404e-17)
(1.00162 -0.00266997 1.97325e-16)
(1.00202 -0.00255091 -4.20568e-17)
(1.00239 -0.00234109 9.34273e-18)
(1.00273 -0.00204794 8.67225e-16)
(1.00304 -0.00172243 2.75313e-18)
(0.999287 0.000343895 -3.66512e-17)
(0.999265 -0.000139605 -1.26578e-17)
(0.999309 -0.00062807 5.7252e-17)
(0.999414 -0.00109745 -1.74552e-16)
(0.999586 -0.00153797 -2.7957e-16)
(0.999822 -0.00193271 -2.67852e-16)
(1.00012 -0.00226473 2.26932e-16)
(1.00046 -0.00252127 -8.29898e-17)
(1.00085 -0.00268974 9.67664e-18)
(1.00126 -0.00276275 -5.01384e-18)
(1.00168 -0.00273714 -2.72557e-16)
(1.00209 -0.00261225 -2.46256e-16)
(1.00248 -0.0023939 -1.58724e-16)
(1.00283 -0.0020909 2.4074e-17)
(1.00315 -0.00175495 -5.42183e-17)
(0.999244 0.000355539 -1.82975e-17)
(0.999221 -0.00014345 4.84249e-17)
(0.999268 -0.000647174 4.76421e-17)
(0.99938 -0.00113078 7.75267e-17)
(0.999561 -0.00158398 1.06034e-16)
(0.999809 -0.00198928 1.67553e-18)
(1.00012 -0.00232937 2.26833e-16)
(1.00048 -0.00259117 -5.05748e-16)
(1.00088 -0.00276205 2.57871e-16)
(1.0013 -0.00283452 2.62953e-16)
(1.00174 -0.00280543 -3.76106e-16)
(1.00216 -0.0026745 7.02193e-16)
(1.00256 -0.00244735 3.69465e-16)
(1.00292 -0.00213418 -6.87952e-16)
(1.00325 -0.00178759 -2.04443e-16)
(0.999198 0.000367152 3.78379e-17)
(0.999175 -0.000147455 2.93799e-17)
(0.999225 -0.000666523 4.58782e-18)
(0.999344 -0.00116446 -3.47539e-17)
(0.999535 -0.00163046 2.01595e-17)
(0.999794 -0.00204647 2.84418e-16)
(1.00012 -0.00239476 -4.58406e-17)
(1.00049 -0.00266196 3.24553e-16)
(1.00091 -0.00283533 -4.80179e-17)
(1.00135 -0.00290724 -2.90857e-16)
(1.0018 -0.00287456 6.01704e-16)
(1.00224 -0.0027374 -3.60985e-16)
(1.00265 -0.0025013 -4.88471e-16)
(1.00302 -0.00217784 2.06332e-16)
(1.00336 -0.00182068 3.44579e-16)
(0.999152 0.000378761 -3.14655e-17)
(0.999127 -0.000151602 -1.32643e-17)
(0.999181 -0.0006861 -1.72964e-16)
(0.999306 -0.00119845 -8.45269e-17)
(0.999506 -0.00167737 5.20537e-17)
(0.999777 -0.0021042 -2.87127e-16)
(1.00011 -0.00246082 -8.43991e-17)
(1.0005 -0.0027335 2.82867e-16)
(1.00093 -0.00290938 -2.39197e-16)
(1.00139 -0.00298071 7.01337e-17)
(1.00186 -0.00294437 -3.35051e-16)
(1.00231 -0.00280091 1.05374e-17)
(1.00274 -0.00255584 2.64391e-16)
(1.00312 -0.00222209 1.39017e-16)
(1.00347 -0.00185447 -5.41126e-17)
(0.999103 0.00039038 3.00171e-17)
(0.999078 -0.000155881 -9.73883e-17)
(0.999136 -0.000705901 8.17487e-17)
(0.999267 -0.00123277 5.35031e-17)
(0.999477 -0.0017247 -4.03387e-17)
(0.99976 -0.00216246 -1.72473e-16)
(1.00011 -0.00252751 5.22909e-17)
(1.00051 -0.00280576 -1.29684e-16)
(1.00096 -0.0029842 -2.18632e-16)
(1.00144 -0.00305497 -2.73215e-17)
(1.00192 -0.00301498 -4.84203e-16)
(1.00239 -0.00286522 4.9538e-16)
(1.00283 -0.00261125 3.84855e-17)
(1.00322 -0.00226729 -7.93639e-17)
(1.00357 -0.00188924 -7.71348e-18)
(0.999053 0.000402031 -3.68171e-17)
(0.999028 -0.000160271 1.00255e-16)
(0.999089 -0.000725916 -2.30296e-17)
(0.999227 -0.0012674 -2.09784e-16)
(0.999446 -0.00177247 -9.99507e-17)
(0.999741 -0.00222129 1.16104e-16)
(1.0001 -0.00259488 -1.70351e-16)
(1.00053 -0.0028788 -1.908e-16)
(1.00099 -0.00305989 3.24669e-16)
(1.00148 -0.00313017 1.12954e-16)
(1.00198 -0.0030866 5.08066e-16)
(1.00246 -0.00293061 -3.82018e-16)
(1.00291 -0.00266783 1.37214e-16)
(1.00332 -0.00231367 -1.54386e-16)
(1.00368 -0.00192499 5.14192e-18)
(0.999001 0.000413723 2.27877e-17)
(0.998976 -0.000164762 -5.80157e-17)
(0.99904 -0.000746151 7.20636e-17)
(0.999185 -0.00130237 3.12575e-16)
(0.999414 -0.00182074 1.3264e-16)
(0.999721 -0.00228077 8.22849e-17)
(1.0001 -0.00266306 3.38357e-16)
(1.00054 -0.00295279 1.60781e-16)
(1.00102 -0.00313666 -2.64785e-16)
(1.00152 -0.00320657 4.51092e-16)
(1.00204 -0.00315953 2.50805e-16)
(1.00254 -0.00299737 -2.12203e-16)
(1.003 -0.00272579 -4.05719e-16)
(1.00342 -0.00236131 -1.57557e-16)
(1.00378 -0.00196164 6.07676e-17)
(0.998948 0.000425474 4.67895e-18)
(0.998923 -0.000169333 -1.23603e-16)
(0.99899 -0.000766602 -9.1726e-17)
(0.999142 -0.00133772 -2.15225e-16)
(0.99938 -0.00186954 3.4571e-17)
(0.9997 -0.00234098 -3.34162e-16)
(1.00009 -0.00273217 -3.59218e-16)
(1.00054 -0.00302791 -1.4448e-16)
(1.00104 -0.00321472 3.07762e-16)
(1.00157 -0.00328438 -3.26855e-16)
(1.0021 -0.00323392 1.15554e-16)
(1.00261 -0.00306559 2.14746e-16)
(1.00309 -0.00278512 3.25868e-16)
(1.00352 -0.00241005 1.98729e-16)
(1.00389 -0.00199886 1.68584e-17)
(0.998893 0.000437288 3.28888e-17)
(0.998868 -0.000173976 2.02018e-16)
(0.998939 -0.000787276 9.40208e-17)
(0.999097 -0.00137346 1.80681e-16)
(0.999345 -0.00191895 1.08254e-16)
(0.999677 -0.00240202 4.5632e-17)
(1.00008 -0.00280233 5.26358e-17)
(1.00055 -0.00310428 -1.20923e-16)
(1.00107 -0.00329417 -1.22606e-16)
(1.00161 -0.00336368 1.43655e-17)
(1.00215 -0.00330983 -7.8958e-16)
(1.00269 -0.00313524 -3.08284e-16)
(1.00318 -0.00284568 3.24033e-16)
(1.00362 -0.00245971 -7.22203e-17)
(1.004 -0.00203649 -1.99826e-16)
(0.998836 0.000449177 -4.42042e-17)
(0.998812 -0.000178672 -1.29458e-16)
(0.998886 -0.000808168 -1.85919e-16)
(0.99905 -0.0014096 6.10761e-17)
(0.999308 -0.00196898 -2.05376e-16)
(0.999652 -0.00246391 3.82539e-17)
(1.00007 -0.00287358 -4.73483e-17)
(1.00056 -0.00318192 -8.64279e-18)
(1.00109 -0.00337504 -1.46508e-16)
(1.00165 -0.00344445 -7.68074e-17)
(1.00221 -0.00338715 2.7192e-17)
(1.00276 -0.00320615 2.67731e-16)
(1.00327 -0.00290726 -1.34883e-16)
(1.00372 -0.00251002 2.66118e-16)
(1.00411 -0.00207433 9.39653e-17)
(0.998777 0.000461143 2.36256e-17)
(0.998754 -0.000183415 1.2402e-16)
(0.998831 -0.000829284 2.36205e-16)
(0.999002 -0.00144616 -6.82487e-17)
(0.999269 -0.00201964 -1.65571e-17)
(0.999626 -0.00252666 2.50683e-16)
(1.00006 -0.00294589 2.13145e-16)
(1.00056 -0.0032608 -1.46032e-16)
(1.00111 -0.00345723 3.91179e-16)
(1.00169 -0.00352655 3.54828e-16)
(1.00227 -0.00346572 3.77222e-16)
(1.00283 -0.00327812 -1.74125e-17)
(1.00335 -0.00296967 -2.99029e-16)
(1.00382 -0.00256089 -3.13871e-16)
(1.00422 -0.00211248 -3.02204e-17)
(0.998717 0.000473197 -2.02445e-17)
(0.998694 -0.000188192 -6.54918e-17)
(0.998775 -0.000850618 -1.95777e-16)
(0.998952 -0.00148313 1.25992e-16)
(0.999229 -0.00207092 1.20889e-16)
(0.999599 -0.00259024 -1.6785e-16)
(1.00005 -0.0030192 -8.47316e-17)
(1.00057 -0.00334081 8.37458e-18)
(1.00114 -0.00354062 -1.73848e-16)
(1.00173 -0.00360983 -3.0402e-16)
(1.00233 -0.00354536 -5.60831e-16)
(1.00291 -0.00335099 6.05527e-17)
(1.00344 -0.0030328 3.65097e-16)
(1.00392 -0.00261228 3.30377e-16)
(1.00433 -0.00215102 -6.94344e-17)
(0.998656 0.000485339 -1.611e-17)
(0.998633 -0.000193005 -1.31736e-17)
(0.998717 -0.000872178 1.71324e-16)
(0.998901 -0.00152053 -1.61647e-16)
(0.999188 -0.00212281 -3.19416e-16)
(0.99957 -0.00265461 1.55005e-16)
(1.00004 -0.00309347 8.79533e-17)
(1.00057 -0.00342188 4.07234e-16)
(1.00116 -0.00362511 5.82193e-17)
(1.00177 -0.00369418 2.83079e-16)
(1.00239 -0.00362602 8.40404e-16)
(1.00298 -0.00342476 -2.30491e-16)
(1.00353 -0.00309674 -9.77845e-17)
(1.00402 -0.00266438 -1.15334e-17)
(1.00444 -0.00219023 -2.76565e-17)
(0.998592 0.000497581 4.50546e-17)
(0.99857 -0.000197848 4.92181e-17)
(0.998657 -0.000893965 -1.47348e-16)
(0.998848 -0.00155834 1.36876e-16)
(0.999145 -0.00217531 -9.21248e-17)
(0.99954 -0.00271976 -2.96579e-16)
(1.00002 -0.00316865 1.30331e-17)
(1.00058 -0.00350397 -3.50275e-17)
(1.00118 -0.00371066 -2.15916e-16)
(1.00181 -0.0037796 1.81977e-16)
(1.00245 -0.0037077 -7.84461e-16)
(1.00306 -0.00349951 -1.42734e-17)
(1.00362 -0.00316161 -1.7467e-16)
(1.00412 -0.00271735 3.26068e-17)
(1.00455 -0.00223023 -8.19241e-17)
(0.998528 0.000509921 -1.1497e-17)
(0.998505 -0.000202733 -1.17272e-17)
(0.998596 -0.000915999 2.0389e-17)
(0.998793 -0.00159661 -1.52213e-16)
(0.999101 -0.00222845 -2.73274e-17)
(0.999509 -0.00278571 3.62135e-16)
(1.00001 -0.00324477 -2.63906e-16)
(1.00058 -0.0035871 -3.26843e-16)
(1.0012 -0.00379733 3.49926e-16)
(1.00185 -0.00386619 -3.16547e-16)
(1.0025 -0.00379057 4.00541e-16)
(1.00313 -0.00357544 3.78829e-16)
(1.00371 -0.00322766 2.72735e-16)
(1.00422 -0.00277144 -1.81357e-16)
(1.00466 -0.00227121 -6.17537e-17)
(0.998462 0.00052237 -1.23991e-17)
(0.998439 -0.000207665 -7.19584e-17)
(0.998533 -0.000938291 -9.68937e-17)
(0.998737 -0.00163534 7.11124e-17)
(0.999055 -0.00228226 1.80223e-16)
(0.999477 -0.00285252 6.32107e-17)
(0.99999 -0.00332191 2.45263e-16)
(1.00058 -0.00367138 5.36015e-17)
(1.00122 -0.00388524 -4.60075e-16)
(1.00189 -0.00395409 1.6097e-16)
(1.00256 -0.0038748 -2.27489e-16)
(1.00321 -0.00365274 -1.88892e-16)
(1.0038 -0.00329503 -2.54321e-16)
(1.00433 -0.00282671 4.01649e-17)
(1.00477 -0.00231307 1.49133e-16)
(0.998394 0.000534925 -1.90316e-17)
(0.998371 -0.000212662 3.42742e-17)
(0.998469 -0.00096087 4.13785e-17)
(0.99868 -0.00167458 -1.42534e-16)
(0.999008 -0.0023368 6.95556e-17)
(0.999443 -0.00292026 -2.11029e-16)
(0.999973 -0.00340015 -2.5849e-17)
(1.00058 -0.00375693 3.17344e-16)
(1.00124 -0.00397456 -2.02394e-16)
(1.00193 -0.00404347 -2.675e-16)
(1.00262 -0.00396056 2.29715e-16)
(1.00328 -0.00373156 -6.81691e-17)
(1.00389 -0.00336383 -7.20658e-16)
(1.00443 -0.00288322 7.34874e-17)
(1.00488 -0.00235581 1.07286e-16)
(0.998325 0.000547594 -9.79594e-18)
(0.998301 -0.000217735 3.34314e-17)
(0.998403 -0.000983754 1.25946e-17)
(0.99862 -0.00171436 1.9e-17)
(0.998959 -0.00239211 1.20031e-16)
(0.999408 -0.002989 6.66946e-17)
(0.999953 -0.00347962 -2.19654e-16)
(1.00058 -0.00384387 -2.00554e-17)
(1.00126 -0.0040654 6.06208e-16)
(1.00197 -0.00413448 -1.94409e-16)
(1.00268 -0.00404796 -5.71491e-18)
(1.00336 -0.00381195 2.8741e-17)
(1.00398 -0.00343405 2.77348e-17)
(1.00453 -0.00294086 -5.08803e-17)
(1.00499 -0.00239923 1.69346e-17)
(0.998255 0.000560371 2.58143e-17)
(0.99823 -0.000222908 -6.8194e-17)
(0.998335 -0.00100698 -7.78928e-17)
(0.998559 -0.00175472 1.4922e-19)
(0.998908 -0.00244826 -1.81243e-16)
(0.999371 -0.00305882 -2.89423e-17)
(0.999933 -0.00356038 4.26499e-17)
(1.00058 -0.0039323 -4.82921e-17)
(1.00127 -0.00415786 -4.10424e-16)
(1.002 -0.00422717 5.46405e-16)
(1.00273 -0.00413704 -3.1178e-17)
(1.00343 -0.00389391 -5.70768e-17)
(1.00407 -0.00350563 3.36317e-16)
(1.00464 -0.00299957 -3.76977e-16)
(1.0051 -0.00244331 7.95238e-18)
(0.998183 0.00057326 2.73899e-18)
(0.998157 -0.000228195 8.18094e-17)
(0.998265 -0.00103055 2.19858e-16)
(0.998497 -0.00179568 -5.54439e-17)
(0.998856 -0.00250528 1.17788e-16)
(0.999332 -0.00312976 -1.83027e-16)
(0.999911 -0.00364248 -2.19182e-16)
(1.00057 -0.00402225 5.26403e-18)
(1.00129 -0.00425195 2.38967e-16)
(1.00204 -0.00432154 -4.76905e-16)
(1.00279 -0.00422774 1.18776e-16)
(1.00351 -0.00397735 -2.06392e-17)
(1.00416 -0.00357845 2.59818e-16)
(1.00474 -0.00305919 8.02429e-17)
(1.00522 -0.0024879 -1.2487e-16)
(0.998109 0.00058625 1.05254e-18)
(0.998082 -0.000233619 -8.87907e-17)
(0.998193 -0.0010545 -1.2548e-16)
(0.998432 -0.00183727 2.07669e-17)
(0.998802 -0.00256318 -2.18832e-17)
(0.999292 -0.00320184 1.66136e-16)
(0.999888 -0.00372594 3.59863e-16)
(1.00057 -0.00411372 -3.19196e-16)
(1.00131 -0.00434767 3.63065e-16)
(1.00208 -0.00441754 3.20901e-17)
(1.00284 -0.00432001 7.12098e-17)
(1.00358 -0.0040622 -1.375e-16)
(1.00426 -0.00365247 2.65385e-16)
(1.00485 -0.00311973 1.50323e-16)
(1.00533 -0.00253312 1.96168e-16)
(0.998033 0.000599339 -8.60831e-18)
(0.998005 -0.000239196 8.46974e-17)
(0.99812 -0.00107885 1.54556e-16)
(0.998366 -0.0018795 5.33984e-17)
(0.998746 -0.00262198 1.56183e-16)
(0.999251 -0.00327505 1.19946e-16)
(0.999863 -0.00381074 -3.23169e-16)
(1.00056 -0.00420669 6.47445e-16)
(1.00132 -0.00444497 -2.03646e-16)
(1.00211 -0.00451512 -6.77428e-17)
(1.0029 -0.00441379 -2.45159e-16)
(1.00366 -0.00414839 -1.07647e-16)
(1.00435 -0.00372763 -2.95343e-16)
(1.00496 -0.00318116 -1.08765e-16)
(1.00545 -0.00257894 4.71819e-17)
(0.997956 0.000612512 -3.05705e-17)
(0.997927 -0.000244948 -9.05772e-17)
(0.998045 -0.00110361 -1.08389e-17)
(0.998297 -0.0019224 1.06229e-16)
(0.998689 -0.00268169 -1.42137e-16)
(0.999208 -0.00334941 -1.04371e-16)
(0.999837 -0.00389688 4.04405e-16)
(1.00056 -0.00430113 -1.20779e-16)
(1.00134 -0.00454381 -5.15992e-16)
(1.00215 -0.00461426 7.10088e-17)
(1.00296 -0.00450905 -1.24479e-16)
(1.00373 -0.00423595 2.30258e-16)
(1.00444 -0.00380399 3.68714e-16)
(1.00506 -0.0032436 3.2829e-16)
(1.00556 -0.00262556 -2.74967e-16)
(0.997877 0.000625763 1.83337e-18)
(0.997847 -0.00025089 -1.74718e-17)
(0.997968 -0.0011288 -7.2322e-17)
(0.998227 -0.00196595 4.50806e-17)
(0.99863 -0.00274232 -7.88134e-17)
(0.999163 -0.0034249 1.34418e-16)
(0.99981 -0.00398434 -1.16207e-16)
(1.00055 -0.00439703 3.98806e-17)
(1.00135 -0.0046442 -1.08155e-16)
(1.00218 -0.00471496 2.75142e-16)
(1.00301 -0.00460583 3.36611e-16)
(1.00381 -0.00432492 1.94523e-18)
(1.00453 -0.00388161 -5.86821e-16)
(1.00517 -0.00330709 -3.9917e-16)