1.45 	0 	0 	-0.00816195 	-0.00256824 	3.78106e-21
2.35 	0 	0 	0.0613267 	-0.00662801 	2.28208e-21
