1.275 	2.15223e-18 	-2.76991e-20 	-0.0327125 	-0.000499845 	-2.02556e-22
1.825 	2.15223e-18 	-1.39322e-20 	-0.00722813 	-0.00290141 	1.81464e-21
2.375 	2.15223e-18 	-2.66896e-23 	0.123928 	-0.00349007 	-7.55126e-22
