/*--------------------------------*- C++ -*----------------------------------*\
  =========                 |
  \\      /  F ield         | OpenFOAM: The Open Source CFD Toolbox
   \\    /   O peration     | Website:  https://openfoam.org
    \\  /    A nd           | Version:  6.0
     \\/     M anipulation  |
\*---------------------------------------------------------------------------*/
FoamFile
{
    version     2.0;
    format      ascii;
    class       volScalarField;
    location    "41";
    object      p;
}
// * * * * * * * * * * * * * * * * * * * * * * * * * * * * * * * * * * * * * //

dimensions      [0 2 -2 0 0 0 0];

internalField   nonuniform List<scalar> 
2000
(
-0.348067
-0.353973
-0.355662
-0.354993
-0.353133
-0.350456
-0.34724
-0.343779
-0.340358
-0.336662
-0.350785
-0.356272
-0.35762
-0.35665
-0.354502
-0.35155
-0.348072
-0.344349
-0.340674
-0.336858
-0.356241
-0.360869
-0.361526
-0.359946
-0.357217
-0.35371
-0.349696
-0.345437
-0.341234
-0.337173
-0.364475
-0.367763
-0.367359
-0.364852
-0.361242
-0.356889
-0.352051
-0.346949
-0.341898
-0.337448
-0.375548
-0.376953
-0.375088
-0.371329
-0.366534
-0.361039
-0.35507
-0.348768
-0.342469
-0.337426
-0.389524
-0.388425
-0.384673
-0.379336
-0.373062
-0.366136
-0.358718
-0.350813
-0.342737
-0.336777
-0.406435
-0.402134
-0.396056
-0.388832
-0.38082
-0.372221
-0.363091
-0.3532
-0.342701
-0.335244
-0.426226
-0.417984
-0.409143
-0.399756
-0.389793
-0.379337
-0.368302
-0.35606
-0.342117
-0.331674
-0.448686
-0.435801
-0.42382
-0.412066
-0.400021
-0.387577
-0.374337
-0.358776
-0.338691
-0.32138
-0.473379
-0.455319
-0.439987
-0.425912
-0.412127
-0.39843
-0.384067
-0.366401
-0.341362
-0.317385
-0.49962
-0.476115
-0.457376
-0.441205
-0.426477
-0.413565
-0.40281
-0.394853
-0.394991
-0.414524
-0.526583
-0.497609
-0.475368
-0.456837
-0.4405
-0.426818
-0.416265
-0.4099
-0.412856
-0.430127
-0.553547
-0.519344
-0.493691
-0.472689
-0.454324
-0.438963
-0.426969
-0.419064
-0.418355
-0.426173
-0.579861
-0.540849
-0.512032
-0.488588
-0.467952
-0.450308
-0.435816
-0.424731
-0.418528
-0.41719
-0.604779
-0.561455
-0.529768
-0.50389
-0.480678
-0.460112
-0.442154
-0.426679
-0.414108
-0.404481
-0.627309
-0.58023
-0.545953
-0.51759
-0.491447
-0.467373
-0.445247
-0.424757
-0.405735
-0.388947
-0.646169
-0.595963
-0.559357
-0.528403
-0.498971
-0.47092
-0.444212
-0.418541
-0.393489
-0.370835
-0.659798
-0.607199
-0.568519
-0.534846
-0.501822
-0.469495
-0.438082
-0.407427
-0.377081
-0.349906
-0.666435
-0.612299
-0.571816
-0.535326
-0.498524
-0.461844
-0.425893
-0.390751
-0.35605
-0.325662
-0.664212
-0.609525
-0.567554
-0.528232
-0.487645
-0.446793
-0.40676
-0.367875
-0.329882
-0.297516
-0.651276
-0.597133
-0.554063
-0.512036
-0.467893
-0.42334
-0.379953
-0.338273
-0.298128
-0.264931
-0.625889
-0.573484
-0.529807
-0.485399
-0.438211
-0.390725
-0.344967
-0.301607
-0.2605
-0.227539
-0.58658
-0.53717
-0.493507
-0.447283
-0.39786
-0.348498
-0.301575
-0.257785
-0.216934
-0.185202
-0.532251
-0.48713
-0.444253
-0.397036
-0.346486
-0.296561
-0.249857
-0.206987
-0.167636
-0.138063
-0.462299
-0.422768
-0.381596
-0.334462
-0.284145
-0.235165
-0.190189
-0.149662
-0.11308
-0.0865482
-0.376722
-0.344049
-0.305629
-0.259852
-0.211297
-0.16487
-0.123173
-0.0864287
-0.0539021
-0.0312816
-0.276208
-0.251578
-0.217034
-0.174005
-0.128799
-0.0865202
-0.0495787
-0.0179867
0.00917692
0.0269099
-0.162197
-0.146642
-0.117095
-0.0782099
-0.0378885
-0.00125494
0.0295354
0.054546
0.0746155
0.0859965
-0.0368989
-0.0312131
-0.00766422
0.0258604
0.0600512
0.0898728
0.113311
0.129956
0.13989
0.142261
0.0967313
0.0920654
0.108847
0.136176
0.163697
0.186687
0.203174
0.211542
0.210507
0.203778
0.235118
0.219929
0.229334
0.249842
0.270592
0.287705
0.29991
0.305392
0.304345
0.318263
0.374365
0.348731
0.350186
0.363005
0.376026
0.385999
0.392052
0.393295
0.392217
0.405141
0.51053
0.474801
0.467993
0.472545
0.477198
0.479277
0.478214
0.473593
0.4679
0.473003
0.639766
0.594529
0.579464
0.575562
0.571663
0.565675
0.557339
0.546505
0.535247
0.532405
0.75841
0.704477
0.681504
0.669395
0.65723
0.643482
0.62817
0.611334
0.594664
0.584717
0.863078
0.801477
0.771295
0.751651
0.731943
0.711166
0.689579
0.667367
0.645852
0.629696
0.950754
0.882722
0.84635
0.820215
0.794052
0.767302
0.740423
0.713712
0.688137
0.666779
1.01888
0.945845
0.904575
0.8733
0.842054
0.810627
0.779631
0.749444
0.720723
0.695308
1.06546
0.988992
0.944333
0.909501
0.874752
0.840117
0.806308
0.773758
0.742893
0.714692
1.0891
1.01089
0.964499
0.92785
0.891315
0.855048
0.819814
0.786069
0.754117
0.724498
1.0891
1.01089
0.964499
0.92785
0.891315
0.855048
0.819814
0.786069
0.754117
0.724498
1.06546
0.988992
0.944333
0.909501
0.874753
0.840117
0.806309
0.773758
0.742893
0.714692
1.01888
0.945845
0.904575
0.8733
0.842054
0.810628
0.779632
0.749445
0.720724
0.695309
0.950754
0.882723
0.846351
0.820215
0.794053
0.767303
0.740424
0.713713
0.688138
0.66678
0.863079
0.801478
0.771296
0.751652
0.731944
0.711167
0.68958
0.667368
0.645853
0.629697
0.758411
0.704478
0.681505
0.669397
0.657231
0.643483
0.628171
0.611335
0.594665
0.584718
0.639767
0.59453
0.579465
0.575564
0.571665
0.565677
0.55734
0.546507
0.535249
0.532407
0.510532
0.474802
0.467995
0.472547
0.4772
0.479279
0.478216
0.473594
0.467902
0.473005
0.374367
0.348733
0.350188
0.363007
0.376027
0.386001
0.392054
0.393296
0.392219
0.405142
0.23512
0.219931
0.229336
0.249844
0.270594
0.287707
0.299912
0.305394
0.304347
0.318265
0.0967333
0.0920674
0.108849
0.136178
0.163699
0.186689
0.203176
0.211544
0.210509
0.20378
-0.0368968
-0.0312109
-0.00766205
0.0258626
0.0600533
0.0898749
0.113314
0.129958
0.139892
0.142263
-0.162195
-0.146639
-0.117093
-0.0782076
-0.0378862
-0.0012527
0.0295376
0.0545482
0.0746175
0.0859985
-0.276206
-0.251576
-0.217031
-0.174003
-0.128797
-0.0865179
-0.0495765
-0.0179845
0.00917905
0.026912
-0.37672
-0.344047
-0.305626
-0.25985
-0.211294
-0.164868
-0.12317
-0.0864264
-0.0538999
-0.0312795
-0.462296
-0.422766
-0.381593
-0.33446
-0.284142
-0.235163
-0.190187
-0.14966
-0.113078
-0.0865461
-0.532248
-0.487128
-0.44425
-0.397034
-0.346484
-0.296559
-0.249855
-0.206985
-0.167634
-0.138061
-0.586577
-0.537167
-0.493505
-0.44728
-0.397858
-0.348496
-0.301573
-0.257783
-0.216932
-0.1852
-0.625886
-0.573481
-0.529804
-0.485397
-0.438208
-0.390722
-0.344965
-0.301605
-0.260497
-0.227536
-0.651273
-0.59713
-0.554061
-0.512034
-0.467891
-0.423338
-0.379951
-0.33827
-0.298126
-0.264929
-0.66421
-0.609522
-0.567552
-0.52823
-0.487642
-0.446791
-0.406757
-0.367873
-0.32988
-0.297513
-0.666432
-0.612296
-0.571814
-0.535324
-0.498521
-0.461841
-0.42589
-0.390749
-0.356048
-0.32566
-0.659795
-0.607196
-0.568516
-0.534843
-0.50182
-0.469493
-0.438079
-0.407425
-0.377079
-0.349904
-0.646166
-0.59596
-0.559355
-0.5284
-0.498969
-0.470918
-0.44421
-0.418538
-0.393486
-0.370833
-0.627306
-0.580228
-0.54595
-0.517588
-0.491445
-0.467371
-0.445245
-0.424755
-0.405733
-0.388945
-0.604776
-0.561453
-0.529765
-0.503888
-0.480675
-0.46011
-0.442152
-0.426676
-0.414106
-0.404479
-0.579859
-0.540847
-0.51203
-0.488586
-0.46795
-0.450306
-0.435814
-0.424729
-0.418526
-0.417188
-0.553544
-0.519342
-0.493689
-0.472687
-0.454322
-0.438961
-0.426967
-0.419062
-0.418353
-0.426171
-0.526581
-0.497607
-0.475366
-0.456835
-0.440498
-0.426816
-0.416263
-0.409899
-0.412854
-0.430125
-0.499618
-0.476113
-0.457374
-0.441204
-0.426475
-0.413563
-0.402808
-0.394851
-0.394989
-0.414522
-0.473377
-0.455318
-0.439985
-0.425911
-0.412125
-0.398428
-0.384065
-0.3664
-0.34136
-0.317383
-0.448684
-0.435799
-0.423818
-0.412065
-0.400019
-0.387576
-0.374335
-0.358775
-0.33869
-0.321378
-0.426225
-0.417983
-0.409141
-0.399754
-0.389791
-0.379336
-0.368301
-0.356059
-0.342116
-0.331673
-0.406433
-0.402133
-0.396054
-0.388831
-0.380819
-0.372219
-0.363089
-0.353198
-0.342699
-0.335242
-0.389522
-0.388423
-0.384672
-0.379335
-0.373061
-0.366135
-0.358717
-0.350812
-0.342736
-0.336776
-0.375547
-0.376952
-0.375087
-0.371328
-0.366533
-0.361038
-0.355069
-0.348767
-0.342468
-0.337425
-0.364474
-0.367763
-0.367358
-0.364851
-0.361241
-0.356888
-0.352051
-0.346948
-0.341897
-0.337447
-0.35624
-0.360868
-0.361525
-0.359946
-0.357217
-0.353709
-0.349696
-0.345437
-0.341233
-0.337173
-0.350785
-0.356271
-0.35762
-0.356649
-0.354501
-0.35155
-0.348071
-0.344349
-0.340674
-0.336858
-0.348067
-0.353973
-0.355661
-0.354993
-0.353133
-0.350456
-0.34724
-0.343779
-0.340358
-0.336662
-0.290451
-0.126302
-0.0812468
-0.0303381
-0.0192337
-0.00779977
-0.00435631
-0.000884098
-0.00046293
0.00217027
-0.291682
-0.12685
-0.0815169
-0.0305363
-0.0193017
-0.00785968
-0.00438636
-0.000905287
-0.000471987
0.0021546
-0.294073
-0.127932
-0.0820521
-0.0309344
-0.0194373
-0.00797907
-0.00444595
-0.000947186
-0.000490111
0.00212322
-0.297485
-0.129522
-0.0828409
-0.0315343
-0.0196403
-0.0081575
-0.00453491
-0.0010097
-0.000517154
0.00207646
-0.30167
-0.131579
-0.0838572
-0.0323344
-0.0199087
-0.00839357
-0.00465276
-0.00109263
-0.00055284
0.00201476
-0.306275
-0.134025
-0.0850516
-0.0333209
-0.0202365
-0.00868369
-0.00479823
-0.00119543
-0.000596812
0.00193877
-0.311167
-0.136929
-0.0864295
-0.034489
-0.0206246
-0.0090251
-0.00497082
-0.00131715
-0.000649271
0.00185006
-0.316871
-0.140945
-0.0882536
-0.0359394
-0.0211162
-0.00943127
-0.00517657
-0.00145816
-0.000711757
0.00175141
-0.321649
-0.14645
-0.0907021
-0.0378375
-0.0217618
-0.00992923
-0.00542462
-0.00162379
-0.000782688
0.00164027
-0.313845
-0.148826
-0.0918124
-0.0395391
-0.0222641
-0.0104213
-0.00566968
-0.00181507
-0.000842483
0.00149366
-0.247312
-0.14073
-0.0881891
-0.042795
-0.0227629
-0.0117532
-0.00638684
-0.00255495
-0.00100846
0.000840327
-0.189216
-0.131723
-0.0821849
-0.0442543
-0.0244965
-0.0141451
-0.00823497
-0.00403742
-0.00177008
-2.27385e-06
-0.147799
-0.113866
-0.0727557
-0.0428237
-0.025922
-0.01635
-0.0101687
-0.00562751
-0.00270442
-0.000682729
-0.108205
-0.0929658
-0.0633362
-0.0408543
-0.026971
-0.0181442
-0.0118422
-0.00706122
-0.00359492
-0.00115406
-0.0789663
-0.0756938
-0.0565362
-0.039599
-0.0277946
-0.0194887
-0.0131535
-0.00821416
-0.00434193
-0.00145278
-0.0588741
-0.0628469
-0.0515764
-0.0385992
-0.0282053
-0.0203351
-0.0140796
-0.00906773
-0.00491989
-0.00164648
-0.0458483
-0.0535859
-0.0477149
-0.037629
-0.028293
-0.020816
-0.0147029
-0.00967541
-0.0053482
-0.00178317
-0.0376037
-0.0471266
-0.044753
-0.036776
-0.0282479
-0.0210854
-0.0151107
-0.0100921
-0.00565072
-0.00188197
-0.0327817
-0.0430257
-0.0427456
-0.036173
-0.0281915
-0.0212316
-0.0153554
-0.0103512
-0.00584355
-0.00194655
-0.0305512
-0.0410242
-0.0417345
-0.035876
-0.0281677
-0.0212964
-0.0154684
-0.0104731
-0.00593785
-0.0019768
-0.21861
-0.246507
-0.272286
-0.29623
-0.318724
-0.340274
-0.361499
-0.383043
-0.405409
-0.429251
-0.0679637
-0.0781063
-0.0872709
-0.0957008
-0.103703
-0.111658
-0.120025
-0.129341
-0.140187
-0.154354
-0.0451922
-0.054374
-0.0631701
-0.071554
-0.0794879
-0.0869272
-0.0938284
-0.100165
-0.105933
-0.111254
-0.0187688
-0.0244888
-0.0300024
-0.0353286
-0.0404893
-0.0455079
-0.0504074
-0.0552098
-0.0599154
-0.0644033
-0.0130594
-0.0174153
-0.0216466
-0.0257498
-0.0297211
-0.0335566
-0.0372527
-0.0408064
-0.0441981
-0.0473965
-0.0080049
-0.0112222
-0.0143801
-0.0174776
-0.0205142
-0.0234893
-0.0264025
-0.0292523
-0.0320271
-0.0347303
-0.00688122
-0.00941808
-0.0119186
-0.0143788
-0.0167951
-0.0191645
-0.0214843
-0.023752
-0.0259616
-0.0281266
-0.00608012
-0.00813798
-0.0101793
-0.0122001
-0.0141965
-0.0161651
-0.0181029
-0.0200069
-0.0218736
-0.0237104
-0.00599247
-0.0077671
-0.00953379
-0.0112881
-0.0130257
-0.0147428
-0.0164358
-0.0181016
-0.019738
-0.0213463
-0.00593644
-0.00756236
-0.00918567
-0.0108026
-0.0124097
-0.0140035
-0.015581
-0.0171393
-0.018677
-0.0201921
0.16799
0.127003
0.0816544
0.0385853
-0.00315312
-0.0440322
-0.0834354
-0.12078
-0.155799
-0.188406
0.117521
0.0916058
0.064814
0.0419753
0.0218552
0.00318145
-0.0141289
-0.0298648
-0.0439999
-0.0566493
0.073401
0.057703
0.04275
0.0298379
0.0179867
0.00652009
-0.0046328
-0.015384
-0.0257105
-0.0356387
0.0531455
0.0440726
0.0354436
0.0277332
0.0204669
0.0133744
0.00645785
-0.000224019
-0.00664993
-0.012827
0.037609
0.0316577
0.0259176
0.020627
0.0155367
0.0105157
0.00557073
0.000733137
-0.00398456
-0.00858194
0.0273477
0.0234588
0.0196136
0.0159759
0.0124334
0.0089181
0.00543139
0.00199004
-0.00139762
-0.0047296
0.0196454
0.0169169
0.0141618
0.0114852
0.00883918
0.00619086
0.003542
0.000903771
-0.00171596
-0.00431237
0.0144651
0.01247
0.0104248
0.00839173
0.00635428
0.00429884
0.00222776
0.000148578
-0.00193235
-0.00401009
0.0111346
0.0095397
0.00789578
0.00623209
0.00454383
0.00282789
0.00108813
-0.000669285
-0.00243861
-0.00421467
0.00953855
0.00811795
0.00665402
0.005161
0.00363827
0.00208689
0.000511185
-0.00108368
-0.00269286
-0.00431189
0.335405
0.334705
0.333156
0.330281
0.325298
0.316966
0.303517
0.282556
0.251448
0.206831
0.245508
0.244391
0.241756
0.237171
0.230301
0.220715
0.207844
0.191029
0.169521
0.142766
0.174677
0.173548
0.170881
0.166357
0.159867
0.151303
0.140476
0.127173
0.110985
0.0919979
0.123068
0.122182
0.120079
0.116517
0.111478
0.104986
0.0970366
0.0876383
0.0767135
0.0645972
0.0867341
0.0860896
0.0845507
0.0819376
0.0782577
0.0735632
0.0678885
0.0612717
0.053693
0.0453613
0.0615552
0.0610918
0.0599833
0.0581011
0.0554586
0.052107
0.0480879
0.0434452
0.0381967
0.0324885
0.0444041
0.0440656
0.0432554
0.0418802
0.0399514
0.0375095
0.034588
0.0312198
0.0274243
0.0232855
0.0331187
0.0328619
0.0322474
0.0312043
0.0297421
0.0278921
0.0256811
0.0231342
0.0202719
0.017146
0.0262831
0.0260746
0.0255759
0.0247295
0.0235428
0.0220409
0.0202449
0.0181739
0.0158456
0.0132913
0.0230627
0.0228762
0.022431
0.0216759
0.0206172
0.0192767
0.0176734
0.0158233
0.0137433
0.0114562
0.48538
0.487133
0.493466
0.504612
0.520463
0.541323
0.567657
0.59999
0.638857
0.684505
0.483139
0.484866
0.491119
0.502109
0.517712
0.538194
0.563964
0.595458
0.633078
0.676912
0.478708
0.48039
0.48649
0.497177
0.512294
0.532036
0.556694
0.586536
0.621686
0.661936
0.472188
0.473815
0.479705
0.48996
0.504377
0.523043
0.54608
0.573497
0.605004
0.639982
0.463718
0.465294
0.470935
0.480655
0.494186
0.511482
0.532442
0.556731
0.583498
0.611637
0.453465
0.455014
0.460388
0.469489
0.48198
0.497653
0.51614
0.536685
0.557737
0.577638
0.441626
0.443215
0.448342
0.45678
0.46812
0.481966
0.497644
0.513901
0.528399
0.53885
0.428407
0.430222
0.435237
0.443087
0.453302
0.46527
0.47794
0.48942
0.496484
0.496068
0.413878
0.416169
0.421263
0.428649
0.437844
0.448017
0.457668
0.464078
0.462867
0.448788
0.397675
0.400111
0.404778
0.411035
0.418414
0.425965
0.431913
0.433036
0.424571
0.396867
0.397676
0.400112
0.404779
0.411036
0.418415
0.425966
0.431914
0.433038
0.424572
0.396869
0.413879
0.41617
0.421264
0.42865
0.437845
0.448018
0.457669
0.46408
0.462869
0.448789
0.428408
0.430223
0.435238
0.443088
0.453303
0.465271
0.477941
0.489421
0.496485
0.496069
0.441627
0.443215
0.448343
0.456781
0.468121
0.481967
0.497645
0.513902
0.5284
0.538851
0.453466
0.455015
0.460388
0.469489
0.481981
0.497653
0.516141
0.536686
0.557738
0.577639
0.463718
0.465295
0.470936
0.480655
0.494187
0.511483
0.532443
0.556732
0.583499
0.611638
0.472189
0.473816
0.479705
0.489961
0.504377
0.523043
0.546081
0.573498
0.605005
0.639982
0.478708
0.48039
0.48649
0.497178
0.512294
0.532036
0.556695
0.586536
0.621686
0.661936
0.483139
0.484866
0.491119
0.502109
0.517712
0.538194
0.563964
0.595458
0.633078
0.676912
0.48538
0.487133
0.493466
0.504612
0.520464
0.541323
0.567657
0.59999
0.638857
0.684505
0.0230641
0.0228775
0.0224323
0.0216773
0.0206185
0.0192781
0.0176747
0.0158246
0.0137446
0.0114575
0.0262844
0.0260759
0.0255772
0.0247308
0.0235441
0.0220422
0.0202463
0.0181752
0.0158469
0.0132926
0.0331201
0.0328633
0.0322488
0.0312057
0.0297434
0.0278934
0.0256824
0.0231355
0.0202732
0.0171473
0.0444055
0.0440669
0.0432568
0.0418816
0.0399528
0.0375108
0.0345894
0.0312212
0.0274256
0.0232868
0.0615566
0.0610932
0.0599847
0.0581026
0.0554601
0.0521084
0.0480893
0.0434466
0.038198
0.0324899
0.0867355
0.0860911
0.0845521
0.081939
0.0782591
0.0735647
0.06789
0.0612731
0.0536944
0.0453627
0.123069
0.122183
0.120081
0.116519
0.111479
0.104988
0.097038
0.0876398
0.076715
0.0645987
0.174679
0.173549
0.170883
0.166358
0.159868
0.151304
0.140478
0.127174
0.110986
0.0919994
0.245509
0.244393
0.241757
0.237173
0.230302
0.220717
0.207845
0.19103
0.169522
0.142768
0.335407
0.334707
0.333157
0.330283
0.325299
0.316967
0.303518
0.282557
0.25145
0.206833
0.00953981
0.00811919
0.00665524
0.0051622
0.00363944
0.00208803
0.000512296
-0.0010826
-0.00269181
-0.00431086
0.0111359
0.00954095
0.00789701
0.0062333
0.00454502
0.00282905
0.00108927
-0.00066817
-0.00243752
-0.0042136
0.0144664
0.0124713
0.010426
0.00839294
0.00635547
0.00429999
0.00222889
0.000149684
-0.00193127
-0.00400904
0.0196467
0.0169182
0.014163
0.0114864
0.0088404
0.00619205
0.00354316
0.000904909
-0.00171485
-0.00431128
0.0273491
0.0234602
0.0196149
0.0159772
0.0124347
0.00891933
0.0054326
0.00199123
-0.00139646
-0.00472846
0.0376104
0.0316591
0.0259189
0.0206283
0.015538
0.010517
0.00557199
0.00073437
-0.00398335
-0.00858075
0.0531469
0.044074
0.035445
0.0277346
0.0204683
0.0133758
0.0064592
-0.000222688
-0.00664862
-0.0128257
0.0734025
0.0577045
0.0427515
0.0298394
0.0179882
0.00652156
-0.00463135
-0.0153826
-0.025709
-0.0356373
0.117522
0.0916074
0.0648156
0.0419769
0.0218568
0.00318306
-0.0141273
-0.0298632
-0.0439983
-0.0566477
0.167991
0.127004
0.0816562
0.0385871
-0.00315128
-0.0440303
-0.0834336
-0.120779
-0.155797
-0.188404
-0.00593544
-0.0075614
-0.00918476
-0.0108018
-0.0124089
-0.0140027
-0.0155803
-0.0171386
-0.0186763
-0.0201914
-0.00599143
-0.00776609
-0.00953283
-0.0112871
-0.0130248
-0.0147419
-0.016435
-0.0181008
-0.0197373
-0.0213456
-0.00607911
-0.00813701
-0.0101784
-0.0121992
-0.0141956
-0.0161643
-0.0181021
-0.0200061
-0.0218729
-0.0237097
-0.00688014
-0.00941703
-0.0119176
-0.0143778
-0.0167942
-0.0191635
-0.0214834
-0.0237511
-0.0259609
-0.0281258
-0.00800379
-0.0112211
-0.014379
-0.0174766
-0.0205132
-0.0234884
-0.0264016
-0.0292514
-0.0320263
-0.0347295
-0.0130583
-0.0174142
-0.0216455
-0.0257487
-0.0297201
-0.0335556
-0.0372517
-0.0408054
-0.0441972
-0.0473956
-0.0187675
-0.0244875
-0.0300012
-0.0353274
-0.0404882
-0.0455067
-0.0504063
-0.0552088
-0.0599143
-0.0644023
-0.0451909
-0.0543727
-0.0631688
-0.0715527
-0.0794867
-0.086926
-0.0938272
-0.100164
-0.105931
-0.111253
-0.0679622
-0.0781047
-0.0872693
-0.0956993
-0.103702
-0.111657
-0.120023
-0.129339
-0.140185
-0.154352
-0.218608
-0.246505
-0.272284
-0.296228
-0.318722
-0.340272
-0.361497
-0.383041
-0.405407
-0.42925
-0.0305506
-0.0410237
-0.0417341
-0.0358756
-0.0281669
-0.0212951
-0.015467
-0.0104718
-0.005937
-0.00197656
-0.0327812
-0.0430252
-0.0427451
-0.0361726
-0.0281908
-0.0212303
-0.0153539
-0.0103499
-0.00584267
-0.00194633
-0.0376031
-0.0471261
-0.0447526
-0.0367757
-0.0282472
-0.021084
-0.0151091
-0.0100906
-0.0056498
-0.0018818
-0.0458477
-0.0535854
-0.0477146
-0.0376289
-0.0282923
-0.0208145
-0.014701
-0.00967372
-0.00534723
-0.00178311
-0.0588736
-0.0628465
-0.0515763
-0.0385995
-0.0282046
-0.0203333
-0.0140774
-0.00906566
-0.00491891
-0.00164664
-0.0789658
-0.0756934
-0.0565363
-0.0395997
-0.0277939
-0.0194865
-0.0131508
-0.0082115
-0.00434101
-0.00145335
-0.108204
-0.0929654
-0.0633367
-0.0408558
-0.0269703
-0.0181415
-0.0118388
-0.00705768
-0.00359423
-0.00115528
-0.147798
-0.113866
-0.0727571
-0.0428263
-0.0259212
-0.0163468
-0.0101642
-0.00562276
-0.00270416
-0.000684893
-0.189215
-0.131722
-0.0821874
-0.0442585
-0.024496
-0.0141412
-0.00822907
-0.00403117
-0.00177038
-5.55083e-06
-0.24731
-0.140729
-0.0881924
-0.0428005
-0.022763
-0.0117496
-0.00637991
-0.0025475
-0.00100928
0.000836164
-0.313843
-0.148824
-0.0918156
-0.0395442
-0.0222642
-0.0104185
-0.00566329
-0.00180801
-0.000843719
0.00148961
-0.321647
-0.146449
-0.0907052
-0.0378423
-0.0217618
-0.00992654
-0.00541858
-0.00161718
-0.000783949
0.00163646
-0.316869
-0.140944
-0.0882566
-0.0359438
-0.0211161
-0.00942876
-0.0051711
-0.00145231
-0.00071293
0.00174803
-0.311166
-0.136928
-0.0864324
-0.0344929
-0.0206245
-0.00902284
-0.00496597
-0.00131207
-0.000650322
0.00184712
-0.306273
-0.134024
-0.0850542
-0.0333243
-0.0202364
-0.00868169
-0.00479403
-0.00119109
-0.000597734
0.00193626
-0.301669
-0.131578
-0.0838594
-0.0323373
-0.0199085
-0.00839189
-0.00464924
-0.00108904
-0.000553617
0.0020127
-0.297484
-0.129522
-0.0828427
-0.0315367
-0.0196401
-0.00815616
-0.00453212
-0.00100688
-0.00051777
0.00207485
-0.294073
-0.127931
-0.0820534
-0.0309361
-0.0194372
-0.0079781
-0.00444392
-0.000945153
-0.000490553
0.00212207
-0.291681
-0.12685
-0.0815177
-0.0305374
-0.0193016
-0.00785908
-0.00438513
-0.000904053
-0.00047225
0.00215392
-0.290451
-0.126302
-0.081247
-0.0303384
-0.0192337
-0.00779958
-0.0043559
-0.000883682
-0.000463018
0.00217005
)
;

boundaryField
{
    inlet
    {
        type            zeroGradient;
    }
    outlet
    {
        type            fixedValue;
        value           uniform 0;
    }
    cylinder
    {
        type            zeroGradient;
    }
    top
    {
        type            symmetryPlane;
    }
    bottom
    {
        type            symmetryPlane;
    }
    defaultFaces
    {
        type            empty;
    }
}


// ************************************************************************* //
