/*--------------------------------*- C++ -*----------------------------------*\
  =========                 |
  \\      /  F ield         | OpenFOAM: The Open Source CFD Toolbox
   \\    /   O peration     | Website:  https://openfoam.org
    \\  /    A nd           | Version:  6.0
     \\/     M anipulation  |
\*---------------------------------------------------------------------------*/
FoamFile
{
    version     2.0;
    format      ascii;
    class       volVectorField;
    location    "41";
    object      U;
}
// * * * * * * * * * * * * * * * * * * * * * * * * * * * * * * * * * * * * * //

dimensions      [0 1 -1 0 0 0 0];

internalField   nonuniform List<vector> 
2000
(
(-0.00199128 0.00173852 5.72938e-20)
(-0.00762176 0.00330287 6.80474e-20)
(-0.0153304 0.00366218 -6.48723e-20)
(-0.0223329 0.00333784 -1.32373e-19)
(-0.027681 0.00264014 -9.24699e-20)
(-0.031222 0.00177222 1.23189e-19)
(-0.0330533 0.000879484 7.17542e-20)
(-0.033444 6.86448e-05 -2.90268e-20)
(-0.0328264 -0.000581169 -7.24618e-20)
(-0.0314951 -0.00100607 5.28342e-20)
(-0.00248977 0.00512155 -1.42016e-19)
(-0.00837087 0.00968589 1.96049e-19)
(-0.0157255 0.0106979 1.95497e-20)
(-0.0220255 0.00969769 -1.13559e-19)
(-0.0264598 0.00759834 5.43393e-19)
(-0.0289521 0.0049967 -2.39154e-19)
(-0.0296479 0.0023211 -2.58734e-19)
(-0.0288425 -0.000110134 3.12065e-19)
(-0.0269845 -0.00205528 -3.07769e-19)
(-0.0244462 -0.00332189 1.55265e-19)
(-0.00343584 0.00822517 2.35863e-20)
(-0.00972829 0.01541 8.38877e-21)
(-0.0163018 0.0168866 5.87555e-19)
(-0.0211439 0.0151406 2.06109e-19)
(-0.0237178 0.0116334 4.08781e-20)
(-0.0240983 0.00731682 3.38044e-19)
(-0.0225237 0.00287657 -6.42069e-19)
(-0.0193381 -0.00116449 1.39253e-20)
(-0.0150194 -0.00438957 -3.79674e-19)
(-0.0101018 -0.00647508 4.18257e-19)
(-0.00472414 0.0108683 -4.43681e-20)
(-0.0114036 0.0200608 2.55257e-19)
(-0.0166179 0.0217194 -7.43703e-19)
(-0.0191363 0.0191495 -9.61305e-20)
(-0.018832 0.0142677 -5.4739e-19)
(-0.0160032 0.00831149 5.66912e-19)
(-0.0110221 0.00217579 -6.01317e-19)
(-0.00429548 -0.00343036 4.22296e-19)
(0.00366431 -0.00789721 1.77534e-19)
(0.0120652 -0.0107656 -2.0061e-19)
(-0.00618718 0.0128751 -4.93819e-19)
(-0.0129401 0.0232578 4.45613e-21)
(-0.0159823 0.0247669 9.16133e-19)
(-0.0151342 0.0213431 2.74654e-19)
(-0.0108142 0.0152253 -8.733e-19)
(-0.00361507 0.00783524 5.43037e-19)
(0.0059194 0.000195847 6.15523e-19)
(0.0173155 -0.00683947 -5.48786e-19)
(0.0300378 -0.0124534 3.91281e-19)
(0.0429264 -0.0160482 9.60836e-20)
(-0.00758387 0.0140746 6.75018e-20)
(-0.0136958 0.0246653 1.25195e-20)
(-0.013429 0.025701 -1.17127e-18)
(-0.00792029 0.0215118 -6.55263e-19)
(0.00173643 0.0144922 7.81674e-19)
(0.01458 0.00611526 -9.15374e-19)
(0.0298513 -0.00259026 1.04892e-18)
(0.0470112 -0.0107152 -9.06039e-20)
(0.0655426 -0.0172501 -2.95096e-19)
(0.0838031 -0.0214721 -8.5768e-19)
(-0.0085879 0.0143043 -1.4688e-19)
(-0.0128318 0.0240059 -2.68264e-19)
(-0.00771303 0.024309 -3.29577e-19)
(0.00408007 0.019627 7.03078e-19)
(0.0206609 0.0123268 1.30421e-18)
(0.0406196 0.00378432 -2.69561e-19)
(0.0629167 -0.00513288 -6.56067e-19)
(0.0869324 -0.0136333 2.00101e-19)
(0.112253 -0.0206161 -1.26016e-18)
(0.136678 -0.0252849 1.38417e-18)
(-0.00878379 0.0134243 8.98327e-19)
(-0.00932791 0.0210861 -4.90349e-19)
(0.00264665 0.0205024 9.57312e-19)
(0.0227367 0.0158174 -1.56405e-18)
(0.0481752 0.00920531 -7.47331e-19)
(0.0770166 0.00182562 -1.03515e-18)
(0.107833 -0.00579504 3.0074e-19)
(0.139847 -0.0132499 -8.37324e-19)
(0.172881 -0.0195749 1.82341e-18)
(0.204279 -0.0240822 5.1043e-19)
(-0.00768222 0.0113476 6.61321e-20)
(-0.00204436 0.015839 7.98739e-19)
(0.0192562 0.0143224 1.58728e-18)
(0.0500661 0.0102998 4.8504e-19)
(0.0867042 0.00565871 1.43564e-18)
(0.126597 0.00135913 7.86903e-20)
(0.167737 -0.00240848 -7.10775e-22)
(0.208925 -0.00569412 5.78794e-19)
(0.250238 -0.00784093 4.68144e-19)
(0.289121 -0.00926529 -1.51939e-18)
(-0.00477037 0.00808576 -5.3213e-19)
(0.0101474 0.00838435 -8.91241e-19)
(0.0436447 0.00593751 -1.29546e-18)
(0.0879979 0.0032085 3.06118e-20)
(0.138752 0.00175598 -6.60413e-19)
(0.192808 0.00254163 1.04089e-18)
(0.247591 0.00588775 -2.86569e-18)
(0.301166 0.0120132 1.28656e-18)
(0.352888 0.0215126 4.83588e-19)
(0.400036 0.0302447 1.51725e-18)
(0.000388855 0.00380843 2.66189e-19)
(0.0281187 -0.000874752 -1.019e-18)
(0.0768108 -0.00427342 9.0987e-19)
(0.137565 -0.00546228 -3.52999e-19)
(0.205556 -0.00344361 3.83967e-19)
(0.277824 0.00270627 8.35923e-19)
(0.352533 0.0137238 -1.12232e-18)
(0.429279 0.0305507 1.4582e-19)
(0.509042 0.0524504 -5.37803e-19)
(0.594176 0.0694504 1.09117e-18)
(0.00806046 -0.00110809 3.81384e-19)
(0.052261 -0.0110935 -9.23856e-19)
(0.118758 -0.0153302 1.25875e-18)
(0.197751 -0.0150198 -7.83913e-19)
(0.284051 -0.0102807 -2.87574e-19)
(0.374607 -0.000973609 1.70258e-19)
(0.46761 0.0128131 8.80266e-20)
(0.562493 0.0307676 1.19402e-18)
(0.658908 0.0501741 3.43733e-19)
(0.754564 0.0623369 1.4695e-18)
(0.0183523 -0.00610212 -3.40417e-19)
(0.0826137 -0.0209191 1.19449e-18)
(0.169009 -0.0252645 -9.96694e-19)
(0.267057 -0.0228321 -1.16892e-18)
(0.371091 -0.0151021 1.63545e-18)
(0.477619 -0.00286746 -1.2435e-18)
(0.584243 0.0129411 3.28466e-19)
(0.68941 0.0312114 -1.94721e-18)
(0.791338 0.0492613 1.45859e-18)
(0.886046 0.0617463 7.28769e-20)
(0.0312706 -0.010546 -4.43643e-19)
(0.118978 -0.0287943 -4.28453e-19)
(0.226871 -0.0317851 -9.1236e-19)
(0.344066 -0.0258924 1.10589e-18)
(0.46445 -0.0140407 -5.58577e-20)
(0.584064 0.00207457 7.14962e-19)
(0.699972 0.0208522 1.30429e-18)
(0.809934 0.0407943 -4.00814e-19)
(0.911581 0.0598065 -1.41769e-18)
(1.00091 0.0748754 2.81467e-18)
(0.0467457 -0.0138318 -2.29315e-19)
(0.160912 -0.0332173 -2.73528e-19)
(0.291341 -0.0327808 4.92238e-19)
(0.427117 -0.0216656 -9.14941e-19)
(0.561887 -0.00426286 1.56312e-19)
(0.691444 0.0168789 1.39103e-19)
(0.812667 0.0396111 6.10038e-20)
(0.923204 0.0622281 -9.85857e-21)
(1.02086 0.083227 -1.49436e-19)
(1.10226 0.100989 -2.37954e-18)
(0.064619 -0.0153978 9.30858e-19)
(0.207684 -0.0328636 -6.49636e-19)
(0.360984 -0.0265378 8.30799e-21)
(0.514056 -0.00833927 -9.89395e-19)
(0.660657 0.0159057 -3.53979e-19)
(0.796705 0.0428743 3.30974e-19)
(0.919364 0.0699926 2.57032e-19)
(1.02674 0.0954698 -9.15921e-19)
(1.11735 0.118341 7.48637e-19)
(1.18885 0.137791 -9.8157e-19)
(0.0846116 -0.0147327 4.01762e-19)
(0.25823 -0.0266435 -3.5706e-19)
(0.433902 -0.011836 1.48308e-18)
(0.602227 0.0151002 1.51212e-19)
(0.757553 0.0470183 3.47512e-19)
(0.896415 0.0799683 1.54888e-18)
(1.01678 0.11113 -2.36825e-19)
(1.11772 0.138796 2.15785e-19)
(1.19888 0.162562 8.93541e-20)
(1.25919 0.182095 -1.09976e-19)
(0.106294 -0.0113862 2.80688e-19)
(0.311142 -0.0137431 6.74842e-19)
(0.507782 0.0120117 -7.2292e-19)
(0.688611 0.048889 -2.44736e-19)
(0.849162 0.0886653 -3.02325e-19)
(0.987146 0.127017 4.68438e-19)
(1.10186 0.161147 -2.43659e-19)
(1.19375 0.189673 6.55539e-19)
(1.26384 0.212845 2.20597e-19)
(1.3125 0.230664 -3.59642e-19)
(0.129071 -0.00499462 -3.02476e-19)
(0.364703 0.00632833 2.68854e-19)
(0.580017 0.0451368 -5.73684e-19)
(0.770041 0.0925425 2.47459e-19)
(0.932162 0.139655 -2.56772e-19)
(1.06584 0.182157 -3.20463e-19)
(1.17214 0.217627 -2.57344e-19)
(1.25319 0.245299 2.876e-19)
(1.3115 0.266202 -5.4224e-19)
(1.34885 0.280635 3.27694e-19)
(0.152192 0.00468202 -1.07819e-19)
(0.416947 0.0336823 -2.10906e-19)
(0.647855 0.0871016 1.00433e-19)
(0.843434 0.144924 6.19192e-21)
(1.0036 0.198185 8.33334e-20)
(1.13007 0.243067 1.14327e-19)
(1.22601 0.277937 1.05956e-19)
(1.29535 0.302933 -1.40503e-19)
(1.34202 0.319979 1.19615e-19)
(1.36911 0.329674 -1.87193e-19)
(0.174776 0.0177191 -6.24117e-20)
(0.465774 0.0680016 -2.34126e-20)
(0.70858 0.1369 9.31662e-20)
(0.906009 0.204326 -4.28902e-20)
(1.0611 0.262006 1.14316e-19)
(1.17821 0.307192 -1.47602e-19)
(1.26274 0.33945 3.42099e-20)
(1.32037 0.360076 3.67068e-20)
(1.35627 0.37195 -1.53858e-20)
(1.37465 0.375985 5.82114e-20)
(0.195857 0.0339918 -6.73307e-20)
(0.509071 0.10851 -3.04691e-19)
(0.759691 0.192986 -2.11037e-20)
(0.95547 0.268575 6.272e-21)
(1.10299 0.328579 -3.96295e-19)
(1.20944 0.371907 5.23901e-20)
(1.2824 0.399692 -4.46029e-20)
(1.3291 0.414556 -1.07584e-19)
(1.35567 0.420328 2.24298e-19)
(1.36715 0.41823 -4.08965e-19)
(0.214445 0.0531506 -3.25187e-20)
(0.544852 0.15397 6.17088e-19)
(0.799065 0.253335 9.94294e-20)
(0.990136 0.335148 -5.43268e-19)
(1.12837 0.395217 -4.40542e-20)
(1.22372 0.434653 -5.20609e-19)
(1.28575 0.456424 3.81619e-19)
(1.32289 0.464538 -1.3846e-19)
(1.34192 0.463702 2.45622e-19)
(1.34842 0.455419 -1.79468e-19)
(0.229587 0.0746123 -2.05061e-19)
(0.571394 0.202718 1.95851e-19)
(0.825094 0.315541 -1.41362e-19)
(1.00902 0.401307 1.06551e-18)
(1.13708 0.459223 5.25866e-19)
(1.22173 0.493027 -1.21924e-19)
(1.27409 0.507671 4.10757e-19)
(1.30345 0.508498 -2.70282e-19)
(1.31688 0.500955 -7.52993e-20)
(1.32028 0.486798 4.9405e-19)
(0.240436 0.0975686 -3.54935e-19)
(0.587357 0.252731 4.51679e-19)
(0.836774 0.376931 -8.88673e-19)
(1.01185 0.464234 1.24803e-19)
(1.12967 0.51799 2.78893e-19)
(1.20469 0.544843 -4.27687e-19)
(1.24914 0.551725 -4.97981e-19)
(1.27272 0.545171 2.18594e-19)
(1.28252 0.531183 -2.63219e-19)
(1.28453 0.511754 3.16036e-19)
(0.246312 0.121013 -8.96793e-20)
(0.591873 0.301725 -4.59598e-19)
(0.833756 0.434708 2.54267e-19)
(0.999031 0.521159 4.26406e-19)
(1.10725 0.569097 -2.56425e-19)
(1.17428 0.588156 -1.91049e-19)
(1.21287 0.587119 -1.04344e-19)
(1.23273 0.573484 -5.15837e-20)
(1.24078 0.553597 1.07797e-20)
(1.24291 0.529719 1.07604e-19)
(0.246759 0.143785 6.58272e-20)
(0.584618 0.347278 -3.85663e-19)
(0.816341 0.486098 6.43247e-19)
(0.971583 0.569494 -3.81113e-19)
(1.07145 0.610386 1.06508e-19)
(1.13248 0.621291 -1.51093e-19)
(1.16741 0.612602 1.6266e-19)
(1.18559 0.592495 3.11875e-20)
(1.19356 0.567431 -7.79254e-20)
(1.19711 0.540021 1.5136e-19)
(0.241593 0.164636 -1.73053e-19)
(0.565833 0.386975 3.38092e-19)
(0.785449 0.528509 -1.52018e-20)
(0.931027 0.60695 -7.32445e-20)
(1.02419 0.640034 -2.01319e-19)
(1.08145 0.642882 2.48156e-20)
(1.11501 0.627183 6.14596e-20)
(1.1335 0.601457 -1.51465e-19)
(1.14303 0.571983 1.76895e-19)
(1.1492 0.541878 1.5029e-19)
(0.230936 0.182311 3.84764e-20)
(0.536326 0.418562 -8.0943e-20)
(0.742532 0.559669 2.42151e-20)
(0.87924 0.631621 1.2531e-20)
(0.967554 0.656554 7.78877e-20)
(1.02334 0.651785 -1.44017e-19)
(1.05788 0.629967 -3.01297e-19)
(1.07891 0.599657 -1.22915e-19)
(1.09214 0.566623 -1.57109e-19)
(1.10255 0.534701 1.33105e-19)
(0.215231 0.195654 1.10739e-19)
(0.49743 0.440131 -1.71674e-19)
(0.689468 0.577805 1.65704e-19)
(0.818264 0.64211 -3.14777e-19)
(0.903422 0.658818 7.63683e-20)
(0.959696 0.646834 5.1614e-19)
(0.997279 0.619363 -1.58277e-19)
(1.02317 0.584702 1.88142e-19)
(1.04271 0.548005 2.75444e-19)
(1.05903 0.515027 1.00187e-18)
(0.195249 0.203726 6.80399e-19)
(0.450967 0.450296 -4.62967e-19)
(0.628514 0.581864 1.12672e-18)
(0.750269 0.637906 -1.92963e-19)
(0.83339 0.646759 9.66696e-19)
(0.891058 0.628052 6.06497e-19)
(0.932311 0.594737 -1.42486e-18)
(0.963571 0.55388 2.16335e-18)
(0.989457 0.507899 -4.57181e-19)
(1.00632 0.461006 8.99621e-19)
(0.17205 0.205874 -3.75328e-19)
(0.399205 0.448255 -2.67592e-19)
(0.562391 0.57153 2.58799e-19)
(0.677929 0.619482 -6.40971e-19)
(0.759662 0.622009 -2.00204e-18)
(0.8187 0.598991 -8.05153e-19)
(0.862693 0.563188 -7.257e-19)
(0.897114 0.521741 3.51205e-19)
(0.925117 0.478159 2.92709e-18)
(0.942606 0.437392 -6.08869e-19)
(0.146894 0.201721 1.97528e-19)
(0.344728 0.433649 -7.99398e-19)
(0.494241 0.546775 1.75825e-19)
(0.604666 0.587134 -1.28041e-18)
(0.686058 0.585016 2.80334e-18)
(0.747293 0.559929 -3.24912e-19)
(0.794584 0.52408 1.52758e-18)
(0.832423 0.484257 -2.18824e-18)
(0.863342 0.443962 6.86507e-19)
(0.884648 0.407477 1.06203e-19)
(0.121118 0.191156 1.45613e-19)
(0.290163 0.40655 8.8169e-19)
(0.427119 0.507894 -2.58985e-18)
(0.533587 0.541229 1.26024e-18)
(0.615632 0.535983 -4.15761e-21)
(0.679888 0.510616 -4.2527e-19)
(0.731204 0.47643 5.35209e-19)
(0.773236 0.439624 -5.31912e-19)
(0.808165 0.403351 -1.82843e-18)
(0.834248 0.370865 -5.00987e-19)
(0.0960487 0.174334 4.76464e-19)
(0.238033 0.367474 5.34604e-19)
(0.363854 0.455616 2.20814e-18)
(0.467419 0.482513 -1.2284e-18)
(0.550831 0.4755 2.53205e-18)
(0.618566 0.451352 -5.45405e-19)
(0.674213 0.420139 -5.76511e-19)
(0.720699 0.387299 6.8128e-19)
(0.759932 0.355515 4.44191e-19)
(0.79087 0.327125 1.61053e-18)
(0.0729449 0.15167 -4.83547e-19)
(0.190664 0.317377 1.57839e-19)
(0.306988 0.391112 4.26867e-20)
(0.408535 0.412151 1.25231e-18)
(0.493703 0.404589 -3.12597e-18)
(0.56499 0.382954 5.31037e-19)
(0.624864 0.355821 1.17259e-18)
(0.675617 0.327751 -1.4176e-18)
(0.718933 0.300911 4.99412e-19)
(0.754394 0.276898 -2.3178e-18)
(0.0529469 0.123826 1.03047e-19)
(0.150114 0.257626 5.55906e-19)
(0.258722 0.315974 2.1621e-19)
(0.358945 0.331692 2.93015e-19)
(0.445941 0.324635 5.61458e-19)
(0.520504 0.306609 1.67164e-18)
(0.584155 0.284488 -2.04671e-18)
(0.638655 0.261882 -1.15276e-18)
(0.685522 0.240441 1.91033e-19)
(0.724903 0.221195 1.50293e-18)
(0.0370318 0.0916909 -6.23137e-19)
(0.118111 0.189953 -7.41289e-20)
(0.220875 0.23216 -6.20964e-19)
(0.320288 0.243022 8.84348e-20)
(0.408909 0.237333 -5.31578e-19)
(0.486184 0.2238 -6.06892e-19)
(0.552891 0.207442 -9.04423e-19)
(0.610384 0.190868 2.43717e-18)
(0.660066 0.175233 4.20471e-19)
(0.702562 0.161149 -6.40935e-19)
(0.0259729 0.0563424 3.35839e-19)
(0.0960029 0.116392 4.43902e-19)
(0.194847 0.141927 1.74889e-19)
(0.293812 0.148292 -9.43879e-19)
(0.38364 0.144614 -4.39417e-19)
(0.462844 0.136227 -9.46215e-20)
(0.531693 0.126185 1.84892e-19)
(0.591265 0.116066 1.4846e-19)
(0.642892 0.106552 -1.148e-18)
(0.687548 0.0979588 6.58746e-19)
(0.0203063 0.0190052 -1.74891e-19)
(0.0847141 0.0392056 -1.98967e-19)
(0.181592 0.0477521 1.5858e-19)
(0.280362 0.0498477 1.40791e-19)
(0.370831 0.0485768 1.44291e-19)
(0.451036 0.0457361 2.20669e-19)
(0.520987 0.0423509 -1.16022e-20)
(0.581621 0.0389484 -2.89458e-19)
(0.634242 0.0357543 2.74953e-19)
(0.680003 0.0328654 -4.13679e-19)
(0.0203063 -0.0190052 -1.76041e-19)
(0.0847141 -0.0392056 -1.89611e-19)
(0.181592 -0.047752 1.74741e-19)
(0.280362 -0.0498477 3.42126e-19)
(0.370831 -0.0485767 2.27962e-19)
(0.451036 -0.045736 -3.0037e-19)
(0.520987 -0.0423507 -1.63218e-19)
(0.581621 -0.0389482 7.11787e-20)
(0.634242 -0.0357541 1.60028e-19)
(0.680003 -0.0328651 -9.52941e-20)
(0.0259729 -0.0563424 4.20112e-19)
(0.0960029 -0.116392 -5.33917e-19)
(0.194847 -0.141927 -4.44082e-20)
(0.293812 -0.148292 2.95826e-19)
(0.38364 -0.144613 -1.33749e-18)
(0.462844 -0.136226 5.71492e-19)
(0.531693 -0.126185 5.89942e-19)
(0.591265 -0.116066 -6.96453e-19)
(0.642892 -0.106552 6.65278e-19)
(0.687548 -0.0979585 -2.91997e-19)
(0.0370318 -0.0916908 -7.26343e-20)
(0.118111 -0.189953 -9.26663e-21)
(0.220875 -0.23216 -1.44215e-18)
(0.320288 -0.243022 -4.58774e-19)
(0.408909 -0.237333 -4.83696e-20)
(0.486184 -0.2238 -7.54725e-19)
(0.552891 -0.207442 1.40625e-18)
(0.610384 -0.190868 -4.942e-20)
(0.660066 -0.175233 8.02997e-19)
(0.702562 -0.161149 -7.0606e-19)
(0.0529469 -0.123826 1.2267e-19)
(0.150114 -0.257626 -5.67931e-19)
(0.258722 -0.315974 1.74753e-18)
(0.358945 -0.331692 2.47293e-19)
(0.445941 -0.324635 1.21574e-18)
(0.520504 -0.306609 -1.18855e-18)
(0.584155 -0.284488 1.24774e-18)
(0.638655 -0.261882 -8.99586e-19)
(0.685522 -0.240441 -3.95054e-19)
(0.724903 -0.221195 3.35603e-19)
(0.0729448 -0.15167 1.09538e-18)
(0.190664 -0.317377 2.80499e-21)
(0.306988 -0.391112 -1.84173e-18)
(0.408535 -0.412151 -5.34342e-19)
(0.493703 -0.404589 1.77424e-18)
(0.56499 -0.382954 -1.03981e-18)
(0.624864 -0.35582 -1.20376e-18)
(0.675617 -0.327751 1.08308e-18)
(0.718933 -0.30091 -7.37356e-19)
(0.754394 -0.276897 -1.58969e-19)
(0.0960487 -0.174334 -1.63513e-19)
(0.238033 -0.367474 -7.75518e-21)
(0.363854 -0.455616 1.99871e-18)
(0.467419 -0.482513 1.14604e-18)
(0.550831 -0.4755 -1.35146e-18)
(0.618566 -0.451352 1.63633e-18)
(0.674213 -0.420139 -1.77559e-18)
(0.720699 -0.387299 1.76696e-19)
(0.759931 -0.355514 5.28861e-19)
(0.790869 -0.327124 1.22372e-18)
(0.121118 -0.191156 1.87431e-19)
(0.290163 -0.40655 3.01832e-19)
(0.427119 -0.507894 3.28321e-19)
(0.533587 -0.541229 -1.05554e-18)
(0.615632 -0.535983 -1.88022e-18)
(0.679887 -0.510616 3.9595e-19)
(0.731204 -0.476429 1.14581e-18)
(0.773236 -0.439624 -3.27983e-19)
(0.808165 -0.403351 1.97462e-18)
(0.834247 -0.370865 -1.92471e-18)
(0.146894 -0.201721 -1.06102e-18)
(0.344728 -0.433649 4.07703e-19)
(0.494241 -0.546774 -1.10088e-18)
(0.604666 -0.587133 1.77973e-18)
(0.686058 -0.585016 8.89939e-19)
(0.747293 -0.559929 1.2565e-18)
(0.794584 -0.52408 -2.90777e-19)
(0.832423 -0.484256 1.14568e-18)
(0.863342 -0.443962 -2.42563e-18)
(0.884648 -0.407477 -6.3238e-19)
(0.17205 -0.205874 6.24648e-20)
(0.399205 -0.448255 -7.128e-19)
(0.562391 -0.57153 -1.14132e-18)
(0.677929 -0.619482 -4.83579e-19)
(0.759662 -0.622009 -1.36651e-18)
(0.8187 -0.598991 -1.38987e-19)
(0.862693 -0.563188 1.18831e-19)
(0.897114 -0.521741 -5.33984e-19)
(0.925117 -0.478159 -5.96766e-19)
(0.942606 -0.437392 1.57382e-18)
(0.195249 -0.203726 3.35393e-19)
(0.450967 -0.450296 4.68372e-19)
(0.628514 -0.581864 8.39086e-19)
(0.750269 -0.637905 3.72168e-20)
(0.83339 -0.646759 5.59856e-19)
(0.891058 -0.628052 -7.66632e-19)
(0.932311 -0.594737 2.34062e-18)
(0.963571 -0.55388 -1.03343e-18)
(0.989457 -0.507899 -5.07539e-19)
(1.00632 -0.461006 -1.53044e-18)
(0.215231 -0.195654 -1.32102e-19)
(0.49743 -0.440131 2.33355e-19)
(0.689468 -0.577805 -2.39135e-19)
(0.818264 -0.64211 1.28929e-19)
(0.903422 -0.658818 -1.52359e-19)
(0.959696 -0.646834 -3.90758e-19)
(0.997278 -0.619363 5.14021e-19)
(1.02317 -0.584702 -1.68145e-19)
(1.04271 -0.548005 2.60842e-19)
(1.05903 -0.515027 -5.69194e-19)
(0.230935 -0.18231 -7.37562e-21)
(0.536326 -0.418562 -1.06503e-19)
(0.742532 -0.559669 2.12314e-20)
(0.87924 -0.631621 1.44535e-19)
(0.967554 -0.656554 -6.53455e-20)
(1.02334 -0.651785 1.75481e-20)
(1.05788 -0.629967 -1.71852e-20)
(1.07891 -0.599657 -3.83303e-19)
(1.09214 -0.566623 -1.77941e-19)
(1.10255 -0.534701 -5.59905e-19)
(0.241593 -0.164636 -9.61426e-20)
(0.565833 -0.386974 3.39286e-19)
(0.785449 -0.528509 -2.108e-19)
(0.931026 -0.60695 -7.60109e-20)
(1.02419 -0.640034 3.39923e-20)
(1.08145 -0.642882 7.14587e-20)
(1.11501 -0.627183 -7.00652e-21)
(1.1335 -0.601457 2.92361e-19)
(1.14303 -0.571983 -2.52648e-19)
(1.1492 -0.541878 -3.57616e-21)
(0.246759 -0.143785 -2.36722e-19)
(0.584618 -0.347278 -1.48256e-19)
(0.816341 -0.486098 -3.68137e-19)
(0.971583 -0.569494 4.18772e-19)
(1.07145 -0.610386 -3.0705e-20)
(1.13248 -0.621291 1.36136e-19)
(1.16741 -0.612602 1.53657e-19)
(1.18559 -0.592495 -5.58925e-20)
(1.19356 -0.567431 5.04256e-20)
(1.19711 -0.540021 -1.59727e-19)
(0.246312 -0.121013 -1.61025e-19)
(0.591873 -0.301725 -2.06843e-19)
(0.833756 -0.434708 3.11677e-19)
(0.999031 -0.521159 -4.68296e-19)
(1.10725 -0.569097 8.22641e-20)
(1.17428 -0.588156 4.15802e-20)
(1.21287 -0.587119 9.199e-20)
(1.23273 -0.573484 -6.04725e-20)
(1.24078 -0.553598 -7.2428e-20)
(1.24291 -0.529719 -2.36014e-19)
(0.240436 -0.0975686 6.71332e-19)
(0.587356 -0.252731 -5.25395e-19)
(0.836774 -0.376931 2.45465e-20)
(1.01185 -0.464234 -6.7324e-19)
(1.12967 -0.51799 -1.95443e-19)
(1.20469 -0.544843 1.56359e-19)
(1.24914 -0.551725 1.14557e-19)
(1.27272 -0.545171 -3.8211e-19)
(1.28252 -0.531183 1.67725e-19)
(1.28453 -0.511754 -3.02488e-19)
(0.229587 -0.0746122 3.33162e-19)
(0.571394 -0.202718 -3.29732e-19)
(0.825094 -0.315541 1.18323e-18)
(1.00902 -0.401307 9.43534e-20)
(1.13708 -0.459223 2.68338e-19)
(1.22173 -0.493027 9.57227e-19)
(1.27409 -0.507671 -1.98972e-19)
(1.30345 -0.508498 4.8327e-20)
(1.31688 -0.500956 -2.84327e-20)
(1.32028 -0.486798 -4.9534e-20)
(0.214445 -0.0531506 2.56815e-19)
(0.544852 -0.15397 5.83554e-19)
(0.799065 -0.253335 -5.94807e-19)
(0.990135 -0.335148 -1.80673e-19)
(1.12837 -0.395217 -1.91282e-19)
(1.22372 -0.434653 3.76567e-19)
(1.28575 -0.456424 -1.77695e-19)
(1.32289 -0.464538 4.18969e-19)
(1.34192 -0.463702 1.00818e-19)
(1.34842 -0.455419 -1.77307e-19)
(0.195857 -0.0339918 -2.77413e-19)
(0.509071 -0.10851 2.57434e-19)
(0.759691 -0.192986 -5.28515e-19)
(0.95547 -0.268575 2.21276e-19)
(1.10299 -0.328579 -2.21774e-19)
(1.20944 -0.371907 -2.63712e-19)
(1.2824 -0.399693 -2.04616e-19)
(1.3291 -0.414556 2.25755e-19)
(1.35567 -0.420329 -3.92393e-19)
(1.36715 -0.41823 2.48409e-19)
(0.174775 -0.017719 -1.03929e-19)
(0.465774 -0.0680016 -2.03944e-19)
(0.70858 -0.1369 9.59395e-20)
(0.906009 -0.204326 7.08319e-21)
(1.0611 -0.262007 7.63568e-20)
(1.17821 -0.307192 1.09402e-19)
(1.26274 -0.33945 9.31555e-20)
(1.32037 -0.360076 -1.26038e-19)
(1.35627 -0.37195 1.02744e-19)
(1.37465 -0.375985 -1.62299e-19)
(0.152192 -0.00468203 -6.54883e-20)
(0.416947 -0.0336823 -2.63962e-20)
(0.647855 -0.0871017 9.83538e-20)
(0.843434 -0.144924 -4.43714e-20)
(1.0036 -0.198185 1.24177e-19)
(1.13007 -0.243068 -1.56959e-19)
(1.22601 -0.277937 4.03235e-20)
(1.29535 -0.302933 3.46052e-20)
(1.34201 -0.319979 -1.23628e-20)
(1.36911 -0.329674 5.6739e-20)
(0.129071 0.00499461 -7.85637e-20)
(0.364702 -0.00632837 -3.33075e-19)
(0.580017 -0.0451369 -2.68256e-20)
(0.770041 -0.0925427 1.07073e-20)
(0.932161 -0.139655 -4.62012e-19)
(1.06584 -0.182157 4.8788e-20)
(1.17214 -0.217627 -5.169e-20)
(1.25319 -0.2453 -1.40594e-19)
(1.3115 -0.266203 3.11091e-19)
(1.34885 -0.280636 -5.65971e-19)
(0.106294 0.0113862 -4.45401e-20)
(0.311142 0.013743 7.14393e-19)
(0.507782 -0.0120118 9.52837e-20)
(0.68861 -0.0488891 -6.45339e-19)
(0.849161 -0.0886655 -7.72748e-20)
(0.987146 -0.127018 -7.2774e-19)
(1.10186 -0.161147 5.65867e-19)
(1.19375 -0.189673 -2.29671e-19)
(1.26384 -0.212845 4.35325e-19)
(1.3125 -0.230665 -3.84045e-19)
(0.0846115 0.0147326 -2.51906e-19)
(0.258229 0.0266435 2.9331e-19)
(0.433901 0.0118358 -2.04878e-19)
(0.602226 -0.0151003 1.41618e-18)
(0.757552 -0.0470185 7.49632e-19)
(0.896415 -0.0799686 -1.96297e-19)
(1.01678 -0.11113 7.63283e-19)
(1.11772 -0.138797 -4.99063e-19)
(1.19888 -0.162563 -1.60494e-19)
(1.25919 -0.182095 1.15958e-18)
(0.0646189 0.0153977 -4.65686e-19)
(0.207684 0.0328635 6.95297e-19)
(0.360984 0.0265377 -1.31858e-18)
(0.514055 0.00833909 2.28243e-19)
(0.660656 -0.0159059 5.69078e-19)
(0.796704 -0.0428746 -7.15135e-19)
(0.919364 -0.0699929 -1.26659e-18)
(1.02674 -0.0954701 6.79e-19)
(1.11735 -0.118341 -8.83055e-19)
(1.18885 -0.137791 1.41317e-18)
(0.0467456 0.0138318 -1.1512e-19)
(0.160912 0.0332172 -6.99837e-19)
(0.291341 0.0327807 3.45468e-19)
(0.427116 0.0216654 8.64196e-19)
(0.561886 0.00426262 -4.64204e-19)
(0.691444 -0.0168792 -4.58102e-19)
(0.812666 -0.0396114 -7.76692e-19)
(0.923204 -0.0622285 -3.55899e-19)
(1.02086 -0.0832274 -8.5472e-20)
(1.10226 -0.10099 1.41229e-18)
(0.0312706 0.0105459 1.93292e-19)
(0.118977 0.0287942 -9.50698e-19)
(0.226871 0.0317849 1.62612e-18)
(0.344065 0.0258922 -9.05485e-19)
(0.464449 0.0140405 5.86665e-19)
(0.584064 -0.00207487 -7.29988e-19)
(0.699971 -0.0208526 8.13031e-19)
(0.809933 -0.0407947 7.10069e-19)
(0.911581 -0.059807 1.55141e-18)
(1.00091 -0.074876 -2.56484e-18)
(0.0183523 0.00610209 -6.00607e-19)
(0.0826135 0.020919 1.20603e-18)
(0.169008 0.0252643 1.60951e-20)
(0.267057 0.0228319 -4.344e-19)
(0.371091 0.0151018 -2.30685e-19)
(0.477618 0.00286715 1.84378e-19)
(0.584243 -0.0129415 -1.30898e-18)
(0.689409 -0.0312119 1.01133e-18)
(0.791337 -0.0492618 -1.3034e-18)
(0.886045 -0.0617468 -5.94948e-19)
(0.00806041 0.00110806 1.03353e-18)
(0.0522608 0.0110934 -3.22412e-19)
(0.118757 0.01533 -6.04801e-19)
(0.197751 0.0150196 1.64262e-18)
(0.284051 0.0102805 -1.61357e-18)
(0.374606 0.000973309 9.0152e-19)
(0.467609 -0.0128135 9.6016e-19)
(0.562492 -0.030768 2.62742e-19)
(0.658907 -0.0501746 2.73267e-19)
(0.754563 -0.0623375 -3.87646e-19)
(0.000388828 -0.00380844 -9.88437e-19)
(0.0281185 0.000874699 9.39497e-19)
(0.0768106 0.00427333 -8.3142e-19)
(0.137565 0.00546214 1.04314e-18)
(0.205556 0.00344341 -3.11651e-19)
(0.277823 -0.00270653 -1.08237e-18)
(0.352532 -0.0137242 3.10393e-19)
(0.429278 -0.0305511 -5.12121e-19)
(0.509041 -0.0524509 -6.06563e-19)
(0.594175 -0.069451 -1.89231e-18)
(-0.00477038 -0.00808575 -1.23475e-18)
(0.0101473 -0.00838436 9.81646e-19)
(0.0436445 -0.00593754 -1.92334e-18)
(0.0879976 -0.00320858 3.43928e-19)
(0.138752 -0.0017561 -1.33247e-18)
(0.192807 -0.00254182 -7.99151e-19)
(0.24759 -0.00588802 1.91246e-18)
(0.301165 -0.0120135 -2.61461e-18)
(0.352887 -0.021513 5.03259e-19)
(0.400034 -0.0302451 -8.2873e-19)
(-0.00768222 -0.0113475 6.08218e-19)
(-0.0020444 -0.015839 2.57346e-19)
(0.019256 -0.0143223 -7.6545e-20)
(0.0500658 -0.0102998 7.30891e-19)
(0.0867037 -0.00565876 2.14621e-18)
(0.126596 -0.00135924 7.4075e-19)
(0.167736 0.00240831 7.654e-19)
(0.208924 0.00569389 -2.64657e-19)
(0.250237 0.00784064 -2.4687e-18)
(0.28912 0.00926495 6.26086e-19)
(-0.00878376 -0.0134243 -1.71707e-19)
(-0.00932792 -0.021086 5.46508e-19)
(0.00264653 -0.0205023 -1.43166e-19)
(0.0227365 -0.0158173 1.01086e-18)
(0.0481747 -0.00920526 -2.33721e-18)
(0.077016 -0.00182563 1.98383e-19)
(0.107832 0.00579497 -1.11234e-18)
(0.139846 0.0132498 1.63677e-18)
(0.17288 0.0195747 -4.78417e-19)
(0.204278 0.024082 -6.83634e-20)
(-0.00858787 -0.0143042 -1.16892e-19)
(-0.0128317 -0.0240058 -6.5724e-19)
(-0.0077131 -0.0243088 1.65291e-18)
(0.00407987 -0.0196268 -8.71504e-19)
(0.0206606 -0.0123267 6.12518e-20)
(0.0406191 -0.00378423 2.79681e-19)
(0.0629161 0.0051329 -2.55596e-19)
(0.0869316 0.0136332 3.32182e-19)
(0.112252 0.020616 1.15106e-18)
(0.136677 0.0252848 3.01209e-19)
(-0.00758383 -0.0140745 -2.62181e-19)
(-0.0136958 -0.0246651 -2.91619e-19)
(-0.0134291 -0.0257007 -1.2944e-18)
(-0.00792044 -0.0215115 6.89224e-19)
(0.00173616 -0.0144919 -1.42159e-18)
(0.0145796 -0.00611508 3.22956e-19)
(0.0298508 0.00259036 3.63142e-19)
(0.0470105 0.0107152 -3.83768e-19)
(0.0655418 0.0172501 -2.4829e-19)
(0.0838021 0.021472 -1.11588e-18)
(-0.00618713 -0.0128749 2.04812e-19)
(-0.0129401 -0.0232575 -4.81761e-20)
(-0.0159823 -0.0247665 9.78506e-22)
(-0.0151343 -0.0213427 -6.2204e-19)
(-0.0108144 -0.0152249 1.57467e-18)
(-0.0036154 -0.00783497 -2.4561e-19)
(0.00591895 -0.000195657 -6.12929e-19)
(0.0173149 0.00683957 7.50197e-19)
(0.0300371 0.0124534 -2.63633e-19)
(0.0429256 0.0160482 1.45719e-18)
(-0.0047241 -0.0108681 -3.84421e-20)
(-0.0114035 -0.0200604 -2.25384e-19)
(-0.0166179 -0.021719 -8.89527e-20)
(-0.0191363 -0.0191491 -1.13641e-19)
(-0.0188321 -0.0142672 -2.44325e-19)
(-0.0160035 -0.00831115 -7.67269e-19)
(-0.0110225 -0.00217553 9.59759e-19)
(-0.00429593 0.00343055 5.60646e-19)
(0.00366376 0.00789731 -1.00434e-19)
(0.0120646 0.0107656 -8.93807e-19)
(-0.00343581 -0.00822495 2.183e-19)
(-0.00972824 -0.0154096 3.8148e-20)
(-0.0163017 -0.0168861 2.58218e-19)
(-0.0211439 -0.0151401 -2.95542e-20)
(-0.0237179 -0.011633 2.35126e-19)
(-0.0240985 -0.00731641 2.65277e-19)
(-0.0225239 -0.00287624 3.97703e-19)
(-0.0193384 0.00116473 -1.12663e-18)
(-0.0150198 0.00438974 -2.0794e-19)
(-0.0101022 0.00647519 3.72671e-19)
(-0.00248974 -0.00512131 -1.1023e-19)
(-0.00837084 -0.00968542 -1.5667e-19)
(-0.0157255 -0.0106973 -7.53684e-20)
(-0.0220255 -0.00969713 3.68636e-19)
(-0.0264599 -0.00759782 1.78937e-19)
(-0.0289522 -0.00499625 3.6696e-20)
(-0.029648 -0.00232074 -7.95598e-20)
(-0.0288427 0.000110417 -6.17165e-20)
(-0.0269847 0.00205549 5.29749e-19)
(-0.0244465 0.00332204 -3.60799e-19)
(-0.00199127 -0.00173827 5.61939e-20)
(-0.00762175 -0.00330238 6.99211e-20)
(-0.0153304 -0.00366159 -5.96211e-20)
(-0.0223329 -0.00333725 -5.45327e-20)
(-0.027681 -0.00263959 -5.65422e-20)
(-0.031222 -0.00177174 -9.02219e-20)
(-0.0330533 -0.000879094 2.89787e-21)
(-0.0334441 -6.83392e-05 1.25182e-19)
(-0.0328264 0.0005814 -1.25692e-19)
(-0.0314952 0.00100624 2.28686e-19)
(-0.0081319 -0.00258691 1.65354e-20)
(0.062169 -0.00663078 9.88822e-21)
(0.277517 -0.00671418 1.3384e-21)
(0.377018 -0.00438333 -9.02709e-22)
(0.479658 -0.0036734 -6.35705e-23)
(0.553617 -0.00263283 1.48219e-22)
(0.606071 -0.0021829 1.66848e-22)
(0.660434 -0.00159546 -3.42239e-23)
(0.683647 -0.00147839 -2.4663e-24)
(0.733943 -0.0010117 2.43705e-22)
(0.00866871 -0.00806382 2.62223e-20)
(0.0774223 -0.0197216 1.253e-21)
(0.289007 -0.0199808 -1.74862e-20)
(0.385773 -0.0130597 1.40508e-20)
(0.486367 -0.0109603 8.87837e-22)
(0.558853 -0.00785873 -5.95554e-22)
(0.610343 -0.00651229 6.90775e-22)
(0.663794 -0.00473012 7.04845e-23)
(0.686578 -0.0043836 1.42131e-22)
(0.736165 -0.00302038 -2.23344e-22)
(0.041975 -0.014421 2.68588e-20)
(0.107455 -0.0323314 -3.61048e-20)
(0.311562 -0.0327885 1.78744e-20)
(0.402972 -0.0214353 -1.16402e-20)
(0.499551 -0.0180201 8.29088e-22)
(0.569156 -0.0129331 -6.46223e-22)
(0.618761 -0.0107266 -2.57575e-22)
(0.670425 -0.00778498 1.25674e-24)
(0.692374 -0.00722292 -1.08757e-22)
(0.740568 -0.00498948 -3.2615e-22)
(0.091185 -0.0221365 -4.16299e-20)
(0.151344 -0.0441609 -5.01145e-20)
(0.344349 -0.0448521 -2.31261e-20)
(0.428009 -0.0293266 1.21327e-20)
(0.518758 -0.0247128 -1.45488e-20)
(0.584202 -0.0177625 3.85119e-21)
(0.631081 -0.0147543 -2.0955e-22)
(0.680158 -0.0107102 1.2238e-22)
(0.700902 -0.00995475 -1.30577e-22)
(0.747071 -0.00689364 1.21017e-22)
(0.155367 -0.0314833 1.15136e-19)
(0.207764 -0.0549226 7.22412e-20)
(0.386183 -0.0559081 2.59851e-20)
(0.460016 -0.0365715 -2.35775e-20)
(0.543342 -0.0309146 1.19422e-20)
(0.603527 -0.0222642 3.16563e-21)
(0.646953 -0.0185312 2.21624e-21)
(0.692746 -0.0134609 2.41869e-22)
(0.71197 -0.0125408 2.90449e-22)
(0.755554 -0.00870908 -6.42438e-22)
(0.233241 -0.0423886 -5.08294e-20)
(0.27504 -0.0643015 3.90028e-20)
(0.435582 -0.065703 4.81988e-21)
(0.497912 -0.0430265 2.62962e-20)
(0.572502 -0.0365185 -5.95038e-21)
(0.626549 -0.0263677 -3.69076e-21)
(0.665937 -0.0220019 -2.2894e-21)
(0.707878 -0.0159982 -1.50626e-22)
(0.725335 -0.0149473 -1.57197e-22)
(0.765864 -0.0104141 6.89022e-22)
(0.323176 -0.0545722 -3.86809e-20)
(0.351199 -0.072033 -1.00786e-19)
(0.490848 -0.074034 -1.70529e-20)
(0.540462 -0.0485759 -1.46441e-20)
(0.605322 -0.041442 6.97817e-21)
(0.652603 -0.0300174 -1.94434e-21)
(0.687526 -0.0251224 2.4613e-21)
(0.725192 -0.0182903 4.53035e-22)
(0.74071 -0.0171459 -4.71797e-23)
(0.777818 -0.0119892 2.65364e-22)