1.275 	2.15223e-18 	-2.76991e-20 	-0.0344441 	-0.000434735 	-1.91596e-22
1.825 	2.15223e-18 	-1.39322e-20 	-0.00942956 	-0.00275904 	1.69511e-21
2.375 	2.15223e-18 	-2.66896e-23 	0.115407 	-0.00324926 	-7.07151e-22
