1.45 	0 	0 	0.424284 	-0.0203281 	1.62198e-21
2.35 	0 	0 	0.718936 	-0.0103928 	-1.01274e-21
