1.275 	2.15223e-18 	-2.76991e-20 	0.235796 	-0.0104924 	-1.15569e-22
1.825 	2.15223e-18 	-1.39322e-20 	0.533042 	-0.00964252 	-1.52478e-22
2.375 	2.15223e-18 	-2.66896e-23 	0.769521 	-0.0057644 	-1.44942e-24
