1.275 	2.15223e-18 	-2.76991e-20 	-0.02729 	-0.0016509 	-2.04441e-22
1.825 	2.15223e-18 	-1.39322e-20 	0.0551742 	-0.00587178 	1.38391e-21
2.375 	2.15223e-18 	-2.66896e-23 	0.293699 	-0.00723528 	-4.90664e-22
