1.45 	0 	0 	-0.291453
2.35 	0 	0 	-0.126726
