1.275 	2.15223e-18 	-2.76991e-20 	0.767301 	-0.00904803 	-4.96515e-23
1.825 	2.15223e-18 	-1.39322e-20 	0.858652 	-0.00326567 	-2.33197e-22
2.375 	2.15223e-18 	-2.66896e-23 	0.935584 	-0.00159988 	-1.46133e-22
