1.45 	0 	0 	0.251385 	-0.0163838 	2.38879e-21
2.35 	0 	0 	0.581367 	-0.0128553 	-9.61364e-22
