1.45 	0 	0 	0.0935024 	-0.0102451 	3.28606e-21
2.35 	0 	0 	0.364501 	-0.01319 	-2.16248e-22
