/*--------------------------------*- C++ -*----------------------------------*\
  =========                 |
  \\      /  F ield         | OpenFOAM: The Open Source CFD Toolbox
   \\    /   O peration     | Website:  https://openfoam.org
    \\  /    A nd           | Version:  6.0
     \\/     M anipulation  |
\*---------------------------------------------------------------------------*/
FoamFile
{
    version     2.0;
    format      ascii;
    class       volScalarField;
    location    "0.4";
    object      p;
}
// * * * * * * * * * * * * * * * * * * * * * * * * * * * * * * * * * * * * * //

dimensions      [0 2 -2 0 0 0 0];

internalField   nonuniform List<scalar> 
800
(
3.76345e-09
-0.000170022
-0.000528163
-0.000988813
-0.00148327
-0.00198054
-0.00247315
-0.0029655
-0.003466
-0.00398217
-0.00451811
-0.00507337
-0.00564229
-0.00621335
-0.00676813
-0.00727962
-0.00770974
-0.00800611
-0.00809833
-0.00789421
-0.00727677
-0.00610306
-0.00420663
-0.00140552
0.00248203
0.00761232
0.0140811
0.0218806
0.0308542
0.0406598
0.050757
0.0604358
0.068902
0.07542
0.0794917
0.0810175
0.0803749
0.0783704
0.0760844
0.0746007
0.000166103
-1.56037e-05
-0.000321793
-0.000700967
-0.00111455
-0.00154196
-0.00197615
-0.00241737
-0.00286818
-0.00333029
-0.00380295
-0.00428195
-0.00475905
-0.0052213
-0.0056502
-0.00602024
-0.00629701
-0.0064346
-0.00637261
-0.00603306
-0.00531763
-0.00410616
-0.00225771
0.000384154
0.00397964
0.00867265
0.014561
0.0216576
0.0298471
0.0388476
0.0481911
0.0572437
0.0652798
0.0716156
0.0757797
0.0776673
0.07761
0.0763007
0.0745642
0.0731436
0.000545865
0.000270578
-5.25577e-05
-0.000402415
-0.000771821
-0.00115189
-0.00154017
-0.00193784
-0.00234585
-0.00276331
-0.00318682
-0.0036102
-0.00402435
-0.00441697
-0.004772
-0.0050686
-0.00527967
-0.00536959
-0.00529136
-0.0049831
-0.00436419
-0.00333168
-0.00175828
0.000506077
0.00362645
0.00776593
0.0130571
0.0195621
0.0272245
0.0358223
0.0449377
0.0539633
0.0621651
0.0688122
0.0733552
0.075603
0.0758198
0.0746484
0.0727914
0.0708562
0.00106044
0.000633302
0.000246896
-0.000108564
-0.000460379
-0.000812105
-0.00116804
-0.00153303
-0.00190901
-0.00229459
-0.00268556
-0.00307562
-0.00345693
-0.00382037
-0.00415557
-0.00445029
-0.00468918
-0.00485157
-0.00490791
-0.0048148
-0.00450867
-0.00389877
-0.0028611
-0.00123603
0.00116682
0.00455277
0.0091125
0.0149784
0.02217
0.0305377
0.0397178
0.0491214
0.0579782
0.0654546
0.0708395
0.0737579
0.0743315
0.0731447
0.0708676
0.0681532
0.0016098
0.000998147
0.000525557
0.000148016
-0.000200357
-0.000536358
-0.000871564
-0.00121518
-0.00157085
-0.00193757
-0.00231157
-0.00268803
-0.00306248
-0.00343183
-0.00379487
-0.0041521
-0.00450452
-0.00485086
-0.00518267
-0.00547699
-0.0056866
-0.005729
-0.00547636
-0.00474994
-0.00332319
-0.000937366
0.00266759
0.00770706
0.0142933
0.0223712
0.03166
0.0416184
0.0514585
0.0602333
0.0670143
0.0711412
0.0724755
0.0714644
0.0687585
0.0651715
0.00209672
0.00128144
0.000710213
0.000300982
-5.42221e-05
-0.000385818
-0.000712315
-0.00104692
-0.0013949
-0.00175606
-0.00212806
-0.00250916
-0.00290051
-0.00330791
-0.00374275
-0.00422209
-0.00476703
-0.0053989
-0.00613232
-0.00696486
-0.0078636
-0.0087504
-0.00948871
-0.00987606
-0.00964652
-0.00848638
-0.00606492
-0.0020798
0.00368474
0.0112905
0.0205757
0.0310952
0.0420932
0.0525398
0.0612697
0.067249
0.0699344
0.0694924
0.0664858
0.0619584
0.00242058
0.00138957
0.000713632
0.000268162
-0.000100312
-0.000435902
-0.000763074
-0.00109801
-0.00144698
-0.0018107
-0.00218906
-0.00258493
-0.00300722
-0.00347324
-0.00400992
-0.00465373
-0.00544831
-0.00643899
-0.00766346
-0.00913824
-0.010842
-0.012698
-0.0145589
-0.0161989
-0.0173161
-0.0175482
-0.0165009
-0.01379
-0.00909506
-0.00222404
0.00681116
0.0177145
0.0298346
0.0421332
0.0532482
0.0617306
0.066488
0.0671965
0.0641547
0.0586388
0.00247345
0.00121739
0.000435396
-4.51983e-05
-0.000427335
-0.000768773
-0.00109856
-0.00143442
-0.00178273
-0.00214505
-0.00252425
-0.00292922
-0.00337856
-0.00390324
-0.00454781
-0.00536978
-0.00643604
-0.00781548
-0.00956704
-0.0117235
-0.0142721
-0.0171356
-0.0201564
-0.0230889
-0.0256028
-0.0272976
-0.0277284
-0.0264423
-0.0230248
-0.0171572
-0.00868915
0.00227015
0.0152473
0.0293023
0.042986
0.0544806
0.0620553
0.0646536
0.0620076
0.0555164
0.00213745
0.000646201
-0.000238823
-0.000745594
-0.00113198
-0.00146961
-0.00179065
-0.00211288
-0.00244202
-0.00278052
-0.00313508
-0.00352206
-0.00397142
-0.00452938
-0.00525924
-0.00623977
-0.00756019
-0.00931067
-0.0115681
-0.0143778
-0.0177326
-0.0215529
-0.0256722
-0.0298296
-0.0336742
-0.0367785
-0.0386618
-0.0388208
-0.0367678
-0.0320782
-0.0244545
-0.0138127
-0.000402059
0.0150403
0.031136
0.0458506
0.0568448
0.0621323
0.0604851
0.0531461
0.00128061
-0.000460166
-0.00143885
-0.00194973
-0.00231463
-0.00262029
-0.00290095
-0.00317338
-0.00344226
-0.00371138
-0.00399246
-0.00431081
-0.00470923
-0.00525015
-0.00601574
-0.00710493
-0.00862676
-0.010689
-0.013382
-0.016759
-0.0208146
-0.0254657
-0.030537
-0.0357559
-0.0407567
-0.0450942
-0.0482646
-0.0497321
-0.0489604
-0.0454512
-0.0387948
-0.0287434
-0.0153233
0.000992144
0.0190467
0.0368138
0.0515257
0.0602107
0.0602953
0.052404
-0.000251604
-0.00226341
-0.00331378
-0.00378321
-0.00407411
-0.00429191
-0.00447271
-0.00463188
-0.00477324
-0.0049029
-0.00503898
-0.00521723
-0.00549433
-0.00594921
-0.00668191
-0.00780921
-0.00945619
-0.0117433
-0.0147691
-0.0185896
-0.0231976
-0.0285037
-0.0343237
-0.0403749
-0.0462804
-0.0515826
-0.055763
-0.0582664
-0.058528
-0.0560055
-0.0502187
-0.0408063
-0.0276167
-0.0108667
0.00859511
0.0289671
0.0473423
0.0599058
0.062499
0.0545703
-0.00265424
-0.00496626
-0.00603891
-0.00637883
-0.00650041
-0.00653496
-0.00652103
-0.00647257
-0.00639303
-0.00629179
-0.00619456
-0.00614847
-0.00622435
-0.00651687
-0.00714182
-0.00823029
-0.00991865
-0.0123345
-0.0155788
-0.0197053
-0.0247006
-0.0304668
-0.03681
-0.0434372
-0.0499615
-0.0559153
-0.0607685
-0.0639523
-0.0648837
-0.0629948
-0.0577656
-0.048769
-0.0357398
-0.0187009
0.00179761
0.0243075
0.0460788
0.0627572
0.0686087
0.0614367
-0.00620057
-0.00884092
-0.0098255
-0.00987118
-0.00966136
-0.00936355
-0.00901818
-0.00863673
-0.00822165
-0.00778544
-0.00736125
-0.00700709
-0.00680672
-0.00686819
-0.00731962
-0.00830178
-0.00995692
-0.012414
-0.0157705
-0.0200732
-0.0252988
-0.0313382
-0.0379866
-0.0449403
-0.0518025
-0.0580947
-0.063275
-0.0667597
-0.0679481
-0.0662496
-0.0611158
-0.0520801
-0.0388146
-0.021227
0.000353158
0.0248377
0.0498343
0.0708045
0.080694
0.0754574
-0.0113237
-0.0142796
-0.0149299
-0.0143796
-0.0135752
-0.0127263
-0.0118676
-0.0110022
-0.010127
-0.00925403
-0.0084209
-0.00769318
-0.00716381
-0.00694987
-0.00718675
-0.00801934
-0.00958993
-0.012023
-0.0154078
-0.0197796
-0.0251022
-0.0312535
-0.0380163
-0.0450761
-0.0520246
-0.0583716
-0.0635603
-0.0669875
-0.0680276
-0.0660587
-0.0604963
-0.050833
-0.0366949
-0.017924
0.00528167
0.0321176
0.0606215
0.08638
0.101431
0.0999372
-0.0187991
-0.0218799
-0.0216431
-0.0199563
-0.0181497
-0.0164487
-0.0148539
-0.0133422
-0.0118923
-0.0105058
-0.00921607
-0.00808904
-0.00721971
-0.00672732
-0.00674786
-0.00742398
-0.00889213
-0.0112673
-0.0146262
-0.0189895
-0.0243063
-0.0304402
-0.0371615
-0.0441439
-0.0509679
-0.0571296
-0.0620543
-0.065114
-0.0656484
-0.062991
-0.056501
-0.0456068
-0.0298668
-0.00905279
0.0167302
0.0468794
0.0798536
0.111624
0.133859
0.13908
-0.0301483
-0.0325735
-0.0302156
-0.0264613
-0.0230633
-0.0201299
-0.0175567
-0.0152562
-0.0131614
-0.0112424
-0.00951296
-0.0080261
-0.00686836
-0.00615206
-0.00600598
-0.00656395
-0.00795129
-0.0102695
-0.0135801
-0.0178879
-0.0231265
-0.0291459
-0.0357044
-0.0424648
-0.0489969
-0.0547831
-0.0592296
-0.0616801
-0.0614333
-0.0577648
-0.049956
-0.0373354
-0.0193404
0.00439362
0.0339104
0.0688065
0.107944
0.147917
0.180777
0.197673
-0.0486152
-0.047804
-0.0407166
-0.0334171
-0.0276382
-0.0230388
-0.0192766
-0.0161234
-0.0134131
-0.0110477
-0.00899549
-0.00727914
-0.00596391
-0.00514576
-0.0049392
-0.00546406
-0.00683109
-0.00912646
-0.0123959
-0.0166294
-0.0217467
-0.0275863
-0.033897
-0.0403336
-0.0464576
-0.0517405
-0.0555717
-0.0572685
-0.0560887
-0.0512456
-0.0419291
-0.0273341
-0.00670706
0.0205793
0.0549096
0.0962837
0.144098
0.195851
0.245087
0.282087
-0.0824323
-0.0694642
-0.0524707
-0.0395565
-0.0304702
-0.0238495
-0.0188857
-0.015047
-0.0119646
-0.00941745
-0.00730156
-0.00559547
-0.00433559
-0.00359757
-0.00347994
-0.0040884
-0.00552011
-0.00784812
-0.0111057
-0.0152717
-0.0202568
-0.0258925
-0.0319231
-0.0380006
-0.0436832
-0.0484379
-0.0516446
-0.052603
-0.0505402
-0.0446185
-0.033943
-0.0175683
0.00549623
0.0362777
0.0758176
0.125097
0.184845
0.254636
0.332307
0.408199
-0.156213
-0.0971689
-0.0585878
-0.0385474
-0.0266784
-0.0188934
-0.0137049
-0.0101222
-0.00747036
-0.00538891
-0.00372238
-0.00242928
-0.00153694
-0.00111684
-0.00126511
-0.00208509
-0.00367116
-0.00609338
-0.00938252
-0.0135159
-0.0184044
-0.0238817
-0.0296959
-0.0355041
-0.0408703
-0.0452662
-0.0480737
-0.0485898
-0.0460306
-0.0395336
-0.0281547
-0.0108523
0.0135542
0.0464793
0.0897713
0.146067
0.219359
0.315478
0.445512
0.608731
-0.317146
-0.120098
-0.0410643
-0.0189774
-0.00967596
-0.00420089
-0.00130051
0.000145949
0.00100106
0.001643
0.00216925
0.00256146
0.00274573
0.00261497
0.00204563
0.000913228
-0.000893425
-0.00345854
-0.00682579
-0.0109851
-0.0158604
-0.0212989
-0.0270627
-0.0328235
-0.0381594
-0.0425556
-0.0454064
-0.0460188
-0.0436159
-0.0373373
-0.0262324
-0.00923582
0.0148952
0.0477269
0.0915142
0.150099
0.23141
0.352996
0.551914
0.868069
)
;

boundaryField
{
    movingWall
    {
        type            zeroGradient;
    }
    fixedWalls
    {
        type            zeroGradient;
    }
    frontAndBack
    {
        type            empty;
    }
}


// ************************************************************************* //
