/*--------------------------------*- C++ -*----------------------------------*\
  =========                 |
  \\      /  F ield         | OpenFOAM: The Open Source CFD Toolbox
   \\    /   O peration     | Website:  https://openfoam.org
    \\  /    A nd           | Version:  6.0
     \\/     M anipulation  |
\*---------------------------------------------------------------------------*/
FoamFile
{
    version     2.0;
    format      ascii;
    class       volScalarField;
    location    "0.4";
    object      p;
}
// * * * * * * * * * * * * * * * * * * * * * * * * * * * * * * * * * * * * * //

dimensions      [0 2 -2 0 0 0 0];

internalField   nonuniform List<scalar> 
200
(
3.50152e-09
-0.000740987
-0.00159697
-0.00241793
-0.0032415
-0.00409574
-0.00495556
-0.00572393
-0.00619471
-0.00599021
-0.00449021
-0.00080451
0.00613202
0.0172429
0.0326522
0.0507211
0.0674436
0.0776078
0.0783899
0.0733433
0.000762397
-6.07941e-05
-0.000760668
-0.00138514
-0.00202727
-0.00267772
-0.0032836
-0.00376152
-0.0039849
-0.00374612
-0.0026744
-0.000113879
0.00495595
0.0137508
0.0270053
0.0438017
0.0606371
0.0721667
0.0743775
0.0689446
0.00164432
0.000490707
-0.000205654
-0.000735381
-0.00130291
-0.00189801
-0.00248736
-0.00306724
-0.00366803
-0.00430564
-0.00483277
-0.00469116
-0.00269034
0.00291206
0.0137311
0.029944
0.0488714
0.0646066
0.0702863
0.0645808
0.00195402
0.000393771
-0.000368315
-0.000889009
-0.00148063
-0.0021384
-0.00288512
-0.0038557
-0.00530278
-0.00750738
-0.0105313
-0.0138439
-0.0160119
-0.014738
-0.00745851
0.00745618
0.028936
0.0512439
0.0642552
0.0620468
0.000878791
-0.00102663
-0.0017769
-0.0022333
-0.00278327
-0.00341391
-0.00422958
-0.00554257
-0.00785213
-0.0116939
-0.0173017
-0.0241557
-0.0306417
-0.0340644
-0.0311075
-0.0187372
0.00407941
0.0332402
0.0571197
0.0644334
-0.00257521
-0.00456995
-0.00493411
-0.00498693
-0.00515256
-0.00538788
-0.00589804
-0.00718143
-0.00994949
-0.0149119
-0.0223866
-0.0318328
-0.04152
-0.0485269
-0.0491031
-0.0393302
-0.0164739
0.0179293
0.0538831
0.0760736
-0.0098505
-0.011103
-0.010056
-0.00896842
-0.00814737
-0.00744784
-0.00716561
-0.00794979
-0.0106389
-0.0159933
-0.0242935
-0.0349005
-0.045951
-0.0543326
-0.0559929
-0.0465274
-0.0223362
0.0171033
0.0652852
0.106063
-0.0239512
-0.0214566
-0.0167841
-0.0134239
-0.0109284
-0.00887745
-0.00754901
-0.00762507
-0.00993749
-0.0151632
-0.0234349
-0.0339332
-0.0445969
-0.0520372
-0.051764
-0.0386816
-0.00831349
0.04147
0.107832
0.175721
-0.0534491
-0.0348732
-0.0217715
-0.0148643
-0.0106834
-0.00765072
-0.00577452
-0.00560457
-0.00780858
-0.012881
-0.020771
-0.0304806
-0.0397737
-0.0449896
-0.0411201
-0.021899
0.0193958
0.0889128
0.18966
0.310243
-0.128806
-0.0431613
-0.0119888
-0.00520388
-0.00254828
-0.000502687
0.000439506
-0.000294848
-0.00319282
-0.00861249
-0.0164276
-0.0255968
-0.0338712
-0.037528
-0.0313787
-0.00822752
0.04123
0.131376
0.277206
0.481136
)
;

boundaryField
{
    movingWall
    {
        type            zeroGradient;
    }
    fixedWalls
    {
        type            zeroGradient;
    }
    frontAndBack
    {
        type            empty;
    }
}


// ************************************************************************* //
