/*--------------------------------*- C++ -*----------------------------------*\
  =========                 |
  \\      /  F ield         | OpenFOAM: The Open Source CFD Toolbox
   \\    /   O peration     | Website:  https://openfoam.org
    \\  /    A nd           | Version:  6.0
     \\/     M anipulation  |
\*---------------------------------------------------------------------------*/
FoamFile
{
    version     2.0;
    format      ascii;
    class       surfaceScalarField;
    location    "0.4";
    object      phi;
}
// * * * * * * * * * * * * * * * * * * * * * * * * * * * * * * * * * * * * * //

dimensions      [0 3 -1 0 0 0 0];

internalField   nonuniform List<scalar> 
370
(
2.48408e-08
-2.48412e-08
-6.90519e-08
9.38928e-08
-2.46444e-07
1.77393e-07
-4.64961e-07
2.18516e-07
-7.15833e-07
2.50872e-07
-1.01287e-06
2.97039e-07
-1.38273e-06
3.69856e-07
-1.86008e-06
4.77356e-07
-2.48264e-06
6.22553e-07
-3.27948e-06
7.96843e-07
-4.24699e-06
9.67515e-07
-5.31269e-06
1.0657e-06
-6.30144e-06
9.88744e-07
-6.93282e-06
6.3139e-07
-6.87919e-06
-5.36378e-08
-5.89719e-06
-9.81998e-07
-4.02295e-06
-1.87424e-06
-1.77671e-06
-2.24624e-06
-1.75991e-07
-1.60072e-06
-1.75992e-07
-1.35857e-07
1.11016e-07
-5.34288e-07
4.92323e-07
-1.09701e-06
7.40117e-07
-1.75779e-06
8.79293e-07
-2.5063e-06
9.99382e-07
-3.37052e-06
1.16126e-06
-4.39782e-06
1.39716e-06
-5.63716e-06
1.7167e-06
-7.11618e-06
2.10157e-06
-8.80941e-06
2.49007e-06
-1.06038e-05
2.76187e-06
-1.22791e-05
2.74107e-06
-1.35236e-05
2.23321e-06
-1.39856e-05
1.09338e-06
-1.3346e-05
-6.93226e-07
-1.14056e-05
-2.92242e-06
-8.22471e-06
-5.05511e-06
-4.36304e-06
-6.10791e-06
-1.10301e-06
-4.86074e-06
-1.27901e-06
-3.59081e-07
4.70097e-07
-1.12595e-06
1.25919e-06
-2.08605e-06
1.70022e-06
-3.1436e-06
1.93685e-06
-4.28505e-06
2.14083e-06
-5.53789e-06
2.4141e-06
-6.94153e-06
2.80079e-06
-8.52201e-06
3.29719e-06
-1.02657e-05
3.84528e-06
-1.2096e-05
4.32032e-06
-1.38637e-05
4.52955e-06
-1.53612e-05
4.23859e-06
-1.63549e-05
3.22689e-06
-1.66146e-05
1.3531e-06
-1.5921e-05
-1.38681e-06
-1.40622e-05
-4.78123e-06
-1.08891e-05
-8.22816e-06
-6.55913e-06
-1.04379e-05
-2.10452e-06
-9.31535e-06
-3.38353e-06
-6.02415e-07
1.07251e-06
-1.73812e-06
2.39489e-06
-3.03845e-06
3.00055e-06
-4.36391e-06
3.26231e-06
-5.68929e-06
3.46621e-06
-7.03039e-06
3.7552e-06
-8.40929e-06
4.17969e-06
-9.8332e-06
4.72109e-06
-1.12786e-05
5.29065e-06
-1.26844e-05
5.72619e-06
-1.39602e-05
5.80536e-06
-1.5005e-05
5.28335e-06
-1.57227e-05
3.94457e-06
-1.60141e-05
1.64453e-06
-1.57364e-05
-1.66449e-06
-1.46417e-05
-5.876e-06
-1.2343e-05
-1.05268e-05
-8.4593e-06
-1.43216e-05
-3.35363e-06
-1.4421e-05
-6.73716e-06
-8.61551e-07
1.93406e-06
-2.3257e-06
3.85904e-06
-3.84574e-06
4.52059e-06
-5.24346e-06
4.66003e-06
-6.48925e-06
4.712e-06
-7.59294e-06
4.85889e-06
-8.57089e-06
5.15764e-06
-9.43502e-06
5.58522e-06
-1.01885e-05
6.04411e-06
-1.08285e-05
6.36617e-06
-1.13562e-05
6.33305e-06
-1.17872e-05
5.71437e-06
-1.21495e-05
4.30686e-06
-1.24578e-05
1.95285e-06
-1.26616e-05
-1.46071e-06
-1.25604e-05
-5.97714e-06
-1.16773e-05
-1.14099e-05
-9.19124e-06
-1.68077e-05
-4.51447e-06
-1.90978e-05
-1.12516e-05
-1.1665e-06
3.10056e-06
-2.89999e-06
5.59254e-06
-4.46052e-06
6.08112e-06
-5.68576e-06
5.88527e-06
-6.58237e-06
5.60861e-06
-7.17808e-06
5.45461e-06
-7.50076e-06
5.48031e-06
-7.58067e-06
5.66513e-06
-7.45653e-06
5.91997e-06
-7.18332e-06
6.09296e-06
-6.83961e-06
5.98934e-06
-6.5289e-06
5.40367e-06
-6.37018e-06
4.14814e-06
-6.47515e-06
2.05781e-06
-6.90977e-06
-1.02609e-06
-7.61641e-06
-5.27049e-06
-8.23596e-06
-1.07904e-05
-7.79958e-06
-1.72441e-05
-4.85439e-06
-2.2043e-05
-1.6106e-05
-1.60734e-06
4.7079e-06
-3.50678e-06
7.49198e-06
-4.78935e-06
7.36369e-06
-5.48648e-06
6.58239e-06
-5.72868e-06
5.85081e-06
-5.596e-06
5.32192e-06
-5.1358e-06
5.02012e-06
-4.38852e-06
4.91785e-06
-3.40695e-06
4.9384e-06
-2.27158e-06
4.95759e-06
-1.09935e-06
4.81711e-06
-4.19427e-08
4.34626e-06
7.24648e-07
3.38155e-06
1.01578e-06
1.76667e-06
6.55657e-07
-6.65959e-07
-4.74564e-07
-4.14027e-06
-2.28755e-06
-8.97741e-06
-4.02051e-06
-1.55111e-05
-3.74511e-06
-2.23184e-05
-1.98511e-05
-2.38983e-06
7.09773e-06
-3.98383e-06
9.08598e-06
-4.17638e-06
7.55623e-06
-3.64401e-06
6.05003e-06
-2.76095e-06
4.96776e-06
-1.64791e-06
4.20888e-06
-3.3641e-07
3.70863e-06
1.16063e-06
3.42081e-06
2.82021e-06
3.27882e-06
4.58693e-06
3.19087e-06
6.35764e-06
3.0464e-06
7.97861e-06
2.72529e-06
9.25061e-06
2.10955e-06
9.93773e-06
1.07956e-06
9.7695e-06
-4.97738e-07
8.46159e-06
-2.83236e-06
5.78475e-06
-6.30057e-06
2.00505e-06
-1.17314e-05
-9.81424e-07
-1.93319e-05
-2.08326e-05
-3.475e-06
1.05727e-05
-1.9354e-06
7.54639e-06
1.01842e-06
4.60241e-06
3.72559e-06
3.34285e-06
6.10701e-06
2.58633e-06
8.27596e-06
2.03993e-06
1.03144e-05
1.67023e-06
1.22904e-05
1.44479e-06
1.42531e-05
1.31609e-06
1.62111e-05
1.23287e-06
1.81152e-05
1.14232e-06
1.98513e-05
9.89189e-07
2.12397e-05
7.21154e-07
2.20342e-05
2.85038e-07
2.19096e-05
-3.73093e-07
2.04385e-05
-1.36126e-06
1.70836e-05
-2.94569e-06
1.13616e-05
-6.00947e-06
4.03925e-06
-1.20095e-05
-1.67933e-05
1.05727e-05
1.81191e-05
2.27215e-05
2.60644e-05
2.86507e-05
3.06906e-05
3.23609e-05
3.38057e-05
3.51218e-05
3.63546e-05
3.74969e-05
3.84861e-05
3.92073e-05
3.94923e-05
3.91192e-05
3.7758e-05
3.48123e-05
2.88028e-05
1.67933e-05
)
;

boundaryField
{
    movingWall
    {
        type            calculated;
        value           uniform 0;
    }
    fixedWalls
    {
        type            calculated;
        value           uniform 0;
    }
    frontAndBack
    {
        type            empty;
        value           nonuniform 0();
    }
}


// ************************************************************************* //
