1.275 	2.15223e-18 	-2.76991e-20 	-0.0344799 	-0.000439178 	-1.90308e-22
1.825 	2.15223e-18 	-1.39322e-20 	-0.00949763 	-0.00275493 	1.67827e-21
2.375 	2.15223e-18 	-2.66896e-23 	0.115206 	-0.00323024 	-6.99976e-22
