1.45 	0 	0 	0.0151552 	-0.00501775 	3.86126e-21
2.35 	0 	0 	0.1624 	-0.00992799 	1.40042e-21
