1.45 	0 	0 	0.00258721 	-0.00365381 	3.96122e-21
2.35 	0 	0 	0.107864 	-0.00827284 	2.02454e-21
