/*--------------------------------*- C++ -*----------------------------------*\
  =========                 |
  \\      /  F ield         | OpenFOAM: The Open Source CFD Toolbox
   \\    /   O peration     | Website:  https://openfoam.org
    \\  /    A nd           | Version:  6.0
     \\/     M anipulation  |
\*---------------------------------------------------------------------------*/
FoamFile
{
    version     2.0;
    format      ascii;
    class       volScalarField;
    location    "39";
    object      p;
}
// * * * * * * * * * * * * * * * * * * * * * * * * * * * * * * * * * * * * * //

dimensions      [0 2 -2 0 0 0 0];

internalField   nonuniform List<scalar> 
2000
(
-0.348078
-0.353985
-0.355673
-0.355004
-0.353144
-0.350467
-0.347251
-0.34379
-0.340369
-0.336673
-0.350796
-0.356283
-0.357631
-0.356661
-0.354513
-0.351561
-0.348083
-0.34436
-0.340685
-0.336869
-0.356252
-0.36088
-0.361537
-0.359957
-0.357228
-0.353721
-0.349707
-0.345448
-0.341244
-0.337184
-0.364487
-0.367775
-0.36737
-0.364864
-0.361253
-0.3569
-0.352063
-0.34696
-0.341909
-0.337459
-0.37556
-0.376965
-0.375099
-0.371341
-0.366546
-0.36105
-0.355081
-0.34878
-0.34248
-0.337437
-0.389535
-0.388436
-0.384685
-0.379348
-0.373074
-0.366148
-0.35873
-0.350824
-0.342748
-0.336789
-0.406446
-0.402146
-0.396067
-0.388844
-0.380832
-0.372232
-0.363102
-0.353211
-0.342712
-0.335255
-0.426238
-0.417996
-0.409155
-0.399768
-0.389805
-0.379349
-0.368314
-0.356072
-0.342129
-0.331686
-0.448698
-0.435813
-0.423832
-0.412078
-0.400033
-0.387589
-0.374349
-0.358788
-0.338703
-0.321392
-0.473391
-0.455332
-0.439999
-0.425925
-0.412139
-0.398442
-0.384079
-0.366413
-0.341374
-0.317397
-0.499632
-0.476127
-0.457388
-0.441218
-0.426489
-0.413577
-0.402822
-0.394865
-0.395003
-0.414535
-0.526595
-0.497621
-0.47538
-0.456849
-0.440512
-0.42683
-0.416277
-0.409912
-0.412868
-0.430139
-0.553559
-0.519357
-0.493703
-0.472701
-0.454337
-0.438975
-0.426981
-0.419076
-0.418367
-0.426184
-0.579874
-0.540861
-0.512044
-0.4886
-0.467964
-0.45032
-0.435828
-0.424743
-0.41854
-0.417202
-0.604791
-0.561468
-0.52978
-0.503903
-0.48069
-0.460125
-0.442166
-0.42669
-0.41412
-0.404492
-0.627321
-0.580243
-0.545965
-0.517603
-0.491459
-0.467386
-0.445259
-0.424769
-0.405747
-0.388959
-0.646181
-0.595975
-0.55937
-0.528415
-0.498984
-0.470932
-0.444224
-0.418553
-0.3935
-0.370847
-0.65981
-0.607211
-0.568531
-0.534858
-0.501834
-0.469507
-0.438094
-0.407439
-0.377093
-0.349918
-0.666447
-0.612311
-0.571829
-0.535339
-0.498536
-0.461856
-0.425904
-0.390763
-0.356062
-0.325674
-0.664224
-0.609537
-0.567566
-0.528244
-0.487657
-0.446805
-0.406771
-0.367886
-0.329893
-0.297527
-0.651287
-0.597145
-0.554075
-0.512048
-0.467905
-0.423352
-0.379965
-0.338284
-0.298139
-0.264942
-0.625901
-0.573496
-0.529819
-0.485411
-0.438223
-0.390736
-0.344979
-0.301619
-0.260511
-0.22755
-0.586592
-0.537181
-0.493519
-0.447294
-0.397872
-0.34851
-0.301587
-0.257796
-0.216945
-0.185213
-0.532262
-0.487142
-0.444264
-0.397047
-0.346498
-0.296572
-0.249868
-0.206998
-0.167647
-0.138074
-0.46231
-0.42278
-0.381607
-0.334473
-0.284156
-0.235176
-0.1902
-0.149673
-0.113091
-0.086559
-0.376733
-0.34406
-0.30564
-0.259863
-0.211307
-0.164881
-0.123183
-0.0864394
-0.0539128
-0.0312923
-0.276219
-0.251589
-0.217044
-0.174016
-0.12881
-0.0865309
-0.0495894
-0.0179973
0.00916627
0.0268993
-0.162208
-0.146652
-0.117106
-0.0782205
-0.037899
-0.00126548
0.0295249
0.0545355
0.0746049
0.0859859
-0.0369094
-0.0312235
-0.00767466
0.02585
0.0600408
0.0898624
0.113301
0.129946
0.13988
0.142251
0.0967211
0.0920551
0.108836
0.136165
0.163687
0.186677
0.203164
0.211531
0.210497
0.203768
0.235108
0.219918
0.229324
0.249832
0.270582
0.287695
0.2999
0.305382
0.304335
0.318253
0.374355
0.348721
0.350176
0.362995
0.376016
0.385989
0.392042
0.393284
0.392207
0.40513
0.51052
0.474791
0.467983
0.472535
0.477188
0.479267
0.478204
0.473583
0.46789
0.472993
0.639756
0.594519
0.579454
0.575552
0.571653
0.565665
0.557329
0.546495
0.535237
0.532395
0.758401
0.704467
0.681494
0.669386
0.65722
0.643472
0.62816
0.611324
0.594653
0.584706
0.863069
0.801468
0.771286
0.751641
0.731933
0.711156
0.68957
0.667357
0.645842
0.629686
0.950744
0.882713
0.84634
0.820205
0.794042
0.767292
0.740413
0.713702
0.688127
0.666769
1.01887
0.945835
0.904565
0.87329
0.842044
0.810617
0.779621
0.749434
0.720713
0.695298
1.06545
0.988982
0.944323
0.909491
0.874742
0.840107
0.806298
0.773748
0.742883
0.714682
1.08909
1.01088
0.964489
0.92784
0.891305
0.855038
0.819804
0.786059
0.754107
0.724488
1.08909
1.01088
0.964489
0.92784
0.891305
0.855038
0.819804
0.786059
0.754107
0.724488
1.06545
0.988982
0.944323
0.909491
0.874743
0.840107
0.806299
0.773748
0.742883
0.714682
1.01887
0.945835
0.904565
0.87329
0.842044
0.810618
0.779622
0.749434
0.720713
0.695298
0.950744
0.882713
0.846341
0.820205
0.794043
0.767293
0.740414
0.713703
0.688127
0.666769
0.863069
0.801468
0.771286
0.751642
0.731933
0.711157
0.68957
0.667358
0.645843
0.629687
0.758401
0.704468
0.681495
0.669386
0.65722
0.643472
0.628161
0.611324
0.594654
0.584707
0.639757
0.59452
0.579455
0.575553
0.571654
0.565666
0.55733
0.546496
0.535238
0.532396
0.510521
0.474791
0.467984
0.472536
0.477189
0.479268
0.478205
0.473584
0.467891
0.472994
0.374356
0.348722
0.350177
0.362996
0.376016
0.38599
0.392043
0.393285
0.392208
0.405131
0.235109
0.219919
0.229325
0.249833
0.270583
0.287696
0.299901
0.305383
0.304336
0.318254
0.0967221
0.0920562
0.108838
0.136167
0.163688
0.186678
0.203165
0.211533
0.210498
0.203769
-0.0369082
-0.0312224
-0.00767344
0.0258512
0.060042
0.0898636
0.113302
0.129947
0.139881
0.142252
-0.162207
-0.146651
-0.117105
-0.0782191
-0.0378977
-0.00126412
0.0295263
0.0545369
0.0746063
0.0859873
-0.276218
-0.251587
-0.217043
-0.174014
-0.128808
-0.0865295
-0.049588
-0.0179959
0.0091677
0.0269007
-0.376731
-0.344059
-0.305638
-0.259862
-0.211306
-0.16488
-0.123182
-0.0864379
-0.0539113
-0.0312909
-0.462309
-0.422778
-0.381605
-0.334472
-0.284154
-0.235174
-0.190198
-0.149671
-0.113089
-0.0865575
-0.532261
-0.48714
-0.444262
-0.397046
-0.346496
-0.296571
-0.249866
-0.206996
-0.167645
-0.138073
-0.58659
-0.537179
-0.493517
-0.447292
-0.39787
-0.348508
-0.301585
-0.257795
-0.216944
-0.185212
-0.625899
-0.573494
-0.529817
-0.485409
-0.438221
-0.390734
-0.344977
-0.301617
-0.260509
-0.227548
-0.651285
-0.597143
-0.554073
-0.512046
-0.467903
-0.42335
-0.379963
-0.338282
-0.298137
-0.264941
-0.664222
-0.609534
-0.567564
-0.528242
-0.487655
-0.446803
-0.406769
-0.367885
-0.329891
-0.297525
-0.666445
-0.612309
-0.571826
-0.535336
-0.498534
-0.461853
-0.425902
-0.390761
-0.35606
-0.325672
-0.659808
-0.607209
-0.568529
-0.534856
-0.501832
-0.469505
-0.438091
-0.407437
-0.377091
-0.349916
-0.646179
-0.595973
-0.559367
-0.528413
-0.498981
-0.47093
-0.444222
-0.418551
-0.393498
-0.370845
-0.627319
-0.58024
-0.545963
-0.5176
-0.491457
-0.467383
-0.445257
-0.424767
-0.405745
-0.388957
-0.604789
-0.561465
-0.529778
-0.503901
-0.480688
-0.460122
-0.442164
-0.426688
-0.414118
-0.404491
-0.579871
-0.540859
-0.512042
-0.488598
-0.467962
-0.450318
-0.435826
-0.424741
-0.418538
-0.4172
-0.553557
-0.519354
-0.493701
-0.472699
-0.454335
-0.438973
-0.426979
-0.419074
-0.418365
-0.426182
-0.526593
-0.497619
-0.475378
-0.456847
-0.44051
-0.426828
-0.416275
-0.40991
-0.412866
-0.430137
-0.49963
-0.476125
-0.457386
-0.441215
-0.426487
-0.413575
-0.40282
-0.394863
-0.395001
-0.414534
-0.473389
-0.45533
-0.439997
-0.425923
-0.412137
-0.39844
-0.384077
-0.366411
-0.341372
-0.317395
-0.448696
-0.435811
-0.42383
-0.412077
-0.400031
-0.387587
-0.374347
-0.358786
-0.338701
-0.32139
-0.426236
-0.417995
-0.409153
-0.399766
-0.389803
-0.379347
-0.368313
-0.35607
-0.342127
-0.331684
-0.406445
-0.402145
-0.396066
-0.388842
-0.38083
-0.372231
-0.363101
-0.35321
-0.342711
-0.335254
-0.389534
-0.388435
-0.384683
-0.379346
-0.373073
-0.366146
-0.358728
-0.350823
-0.342747
-0.336787
-0.375559
-0.376964
-0.375098
-0.37134
-0.366545
-0.361049
-0.35508
-0.348779
-0.342479
-0.337435
-0.364486
-0.367774
-0.367369
-0.364863
-0.361252
-0.356899
-0.352062
-0.346959
-0.341908
-0.337458
-0.356252
-0.360879
-0.361537
-0.359957
-0.357228
-0.35372
-0.349707
-0.345447
-0.341244
-0.337183
-0.350796
-0.356283
-0.357631
-0.35666
-0.354512
-0.351561
-0.348082
-0.34436
-0.340685
-0.336869
-0.348078
-0.353984
-0.355673
-0.355004
-0.353144
-0.350467
-0.347251
-0.343789
-0.340369
-0.336672
-0.290461
-0.126308
-0.08126
-0.0303463
-0.0192423
-0.00780713
-0.00436159
-0.000888596
-0.000465592
0.00216949
-0.291692
-0.126856
-0.08153
-0.0305449
-0.0193106
-0.0078672
-0.00439155
-0.000909165
-0.00047419
0.00215379
-0.294083
-0.127937
-0.0820651
-0.0309435
-0.0194466
-0.00798679
-0.00445109
-0.000950484
-0.000491874
0.00212237
-0.297494
-0.129527
-0.0828539
-0.0315439
-0.01965
-0.00816543
-0.00454004
-0.00101245
-0.000518498
0.00207556
-0.30168
-0.131583
-0.0838701
-0.0323444
-0.0199188
-0.00840172
-0.00465788
-0.00109487
-0.000553783
0.00201379
-0.306285
-0.134029
-0.0850644
-0.0333312
-0.0202471
-0.00869207
-0.00480339
-0.00119719
-0.000597372
0.00193773
-0.311178
-0.136933
-0.0864422
-0.0344998
-0.0206355
-0.00903372
-0.00497602
-0.00131847
-0.000649459
0.00184894
-0.316881
-0.140949
-0.0882661
-0.0359506
-0.0211274
-0.00944015
-0.00518185
-0.00145905
-0.000711569
0.00175022
-0.321659
-0.146454
-0.0907144
-0.037849
-0.0217733
-0.00993839
-0.00543002
-0.0016243
-0.000782137
0.00163899
-0.313855
-0.14883
-0.0918243
-0.039551
-0.0222759
-0.0104307
-0.00567516
-0.00181538
-0.000841697
0.00149237
-0.247323
-0.140735
-0.0881997
-0.0428079
-0.0227751
-0.0117626
-0.00639228
-0.00255503
-0.00100735
0.000839246
-0.189227
-0.131729
-0.0821944
-0.0442669
-0.0245079
-0.0141535
-0.0082401
-0.004038
-0.0017694
-3.18427e-06
-0.147809
-0.113874
-0.0727645
-0.042835
-0.0259323
-0.0163577
-0.0101736
-0.00562882
-0.00270434
-0.000683437
-0.108214
-0.0929737
-0.0633445
-0.0408644
-0.0269804
-0.0181513
-0.0118468
-0.00706311
-0.00359536
-0.00115459
-0.0789754
-0.075702
-0.0565444
-0.0396082
-0.0278033
-0.0194955
-0.013158
-0.00821644
-0.00434276
-0.00145323
-0.0588828
-0.0628551
-0.0515846
-0.0386079
-0.0282135
-0.0203416
-0.014084
-0.00907026
-0.00492101
-0.00164691
-0.0458566
-0.0535941
-0.0477231
-0.0376374
-0.0283007
-0.0208223
-0.0147071
-0.00967809
-0.00534952
-0.00178363
-0.0376118
-0.0471348
-0.0447612
-0.0367842
-0.0282554
-0.0210915
-0.015115
-0.0100948
-0.00565216
-0.00188248
-0.0327898
-0.0430338
-0.0427538
-0.0361811
-0.0281988
-0.0212377
-0.0153597
-0.010354
-0.00584506
-0.00194708
-0.0305592
-0.0410323
-0.0417428
-0.0358842
-0.0281749
-0.0213023
-0.0154727
-0.0104759
-0.0059394
-0.00197734
-0.218621
-0.246518
-0.272297
-0.296241
-0.318735
-0.340285
-0.36151
-0.383054
-0.40542
-0.429262
-0.0679741
-0.0781166
-0.0872812
-0.095711
-0.103713
-0.111669
-0.120035
-0.129351
-0.140197
-0.154364
-0.0452024
-0.0543842
-0.0631803
-0.0715641
-0.079498
-0.0869373
-0.0938384
-0.100175
-0.105942
-0.111264
-0.0187789
-0.0244988
-0.0300124
-0.0353386
-0.0404993
-0.0455178
-0.0504173
-0.0552197
-0.0599252
-0.0644131
-0.0130694
-0.0174253
-0.0216565
-0.0257597
-0.029731
-0.0335665
-0.0372626
-0.0408162
-0.044208
-0.0474063
-0.00801485
-0.0112321
-0.0143899
-0.0174875
-0.0205241
-0.0234992
-0.0264124
-0.0292622
-0.032037
-0.0347402
-0.0068911
-0.00942793
-0.0119284
-0.0143887
-0.016805
-0.0191743
-0.0214941
-0.0237618
-0.0259715
-0.0281364
-0.00608997
-0.00814783
-0.0101892
-0.0122099
-0.0142063
-0.0161749
-0.0181127
-0.0200167
-0.0218834
-0.0237202
-0.00600228
-0.0077769
-0.0095436
-0.0112979
-0.0130355
-0.0147526
-0.0164456
-0.0181114
-0.0197478
-0.021356
-0.00594624
-0.00757217
-0.00919549
-0.0108125
-0.0124195
-0.0140133
-0.0155908
-0.0171491
-0.0186867
-0.0202018
0.167979
0.126992
0.0816439
0.0385747
-0.00316374
-0.0440428
-0.0834461
-0.120791
-0.15581
-0.188416
0.11751
0.0915954
0.0648036
0.0419649
0.0218448
0.00317104
-0.0141393
-0.0298752
-0.0440103
-0.0566597
0.0733906
0.0576927
0.0427397
0.0298277
0.0179764
0.00650985
-0.00464302
-0.0153942
-0.0257207
-0.0356489
0.0531352
0.0440623
0.0354334
0.027723
0.0204567
0.0133642
0.0064477
-0.00023416
-0.00666006
-0.0128371
0.0375988
0.0316476
0.0259074
0.0206169
0.0155266
0.0105056
0.00556068
0.000723096
-0.00399459
-0.00859194
0.0273376
0.0234487
0.0196035
0.0159658
0.0124233
0.00890805
0.00542137
0.00198004
-0.00140761
-0.00473957
0.0196353
0.0169069
0.0141517
0.0114751
0.00882918
0.00618088
0.00353204
0.000893827
-0.00172589
-0.00432229
0.014455
0.01246
0.0104148
0.00838174
0.00634433
0.0042889
0.00221785
0.000138694
-0.00194221
-0.00401994
0.0111246
0.0095297
0.00788582
0.00622215
0.00453391
0.00281799
0.00107825
-0.000679144
-0.00244845
-0.0042245
0.00952857
0.00810796
0.00664405
0.00515105
0.00362835
0.002077
0.000501313
-0.00109353
-0.00270269
-0.00432169
0.335395
0.334695
0.333145
0.330271
0.325287
0.316955
0.303506
0.282545
0.251438
0.20682
0.245497
0.244381
0.241745
0.237161
0.23029
0.220705
0.207833
0.191018
0.16951
0.142756
0.174667
0.173538
0.170871
0.166346
0.159856
0.151292
0.140466
0.127162
0.110974
0.0919875
0.123057
0.122172
0.120069
0.116507
0.111467
0.104976
0.0970263
0.087628
0.0767032
0.064587
0.0867238
0.0860794
0.0845404
0.0819274
0.0782474
0.073553
0.0678783
0.0612615
0.0536828
0.0453511
0.061545
0.0610816
0.0599731
0.0580909
0.0554485
0.0520968
0.0480777
0.0434351
0.0381865
0.0324783
0.044394
0.0440554
0.0432453
0.04187
0.0399413
0.0374993
0.0345779
0.0312097
0.0274142
0.0232754
0.0331086
0.0328518
0.0322373
0.0311942
0.029732
0.027882
0.025671
0.0231241
0.0202618
0.0171359
0.026273
0.0260645
0.0255658
0.0247194
0.0235327
0.0220308
0.0202349
0.0181639
0.0158355
0.0132812
0.0230527
0.0228662
0.0224209
0.0216659
0.0206071
0.0192667
0.0176633
0.0158132
0.0137333
0.0114462
0.485369
0.487122
0.493455
0.504602
0.520453
0.541313
0.567647
0.599979
0.638847
0.684494
0.483128
0.484855
0.491108
0.502098
0.517701
0.538184
0.563953
0.595448
0.633068
0.676902
0.478697
0.480379
0.486479
0.497167
0.512284
0.532025
0.556684
0.586526
0.621676
0.661926
0.472178
0.473805
0.479694
0.48995
0.504366
0.523032
0.54607
0.573487
0.604994
0.639972
0.463707
0.465284
0.470925
0.480644
0.494175
0.511472
0.532431
0.556721
0.583488
0.611627
0.453454
0.455003
0.460377
0.469478
0.481969
0.497642
0.51613
0.536675
0.557727
0.577627
0.441615
0.443204
0.448331
0.45677
0.46811
0.481956
0.497634
0.51389
0.528389
0.53884
0.428396
0.430212
0.435227
0.443076
0.453291
0.46526
0.477929
0.48941
0.496474
0.496058
0.413867
0.416158
0.421252
0.428638
0.437834
0.448006
0.457657
0.464068
0.462857
0.448778
0.397665
0.4001
0.404767
0.411024
0.418404
0.425954
0.431902
0.433026
0.42456
0.396857
0.397666
0.400101
0.404768
0.411025
0.418405
0.425955
0.431903
0.433027
0.424561
0.396858
0.413868
0.416159
0.421253
0.428639
0.437835
0.448007
0.457658
0.464069
0.462858
0.448779
0.428397
0.430212
0.435228
0.443077
0.453292
0.465261
0.47793
0.489411
0.496474
0.496059
0.441616
0.443205
0.448332
0.456771
0.46811
0.481956
0.497634
0.513891
0.528389
0.53884
0.453455
0.455004
0.460378
0.469479
0.48197
0.497643
0.51613
0.536676
0.557727
0.577628
0.463708
0.465284
0.470925
0.480645
0.494176
0.511472
0.532432
0.556721
0.583488
0.611627
0.472178
0.473805
0.479695
0.48995
0.504367
0.523033
0.54607
0.573487
0.604995
0.639972
0.478698
0.48038
0.48648
0.497167
0.512284
0.532025
0.556684
0.586526
0.621676
0.661926
0.483128
0.484855
0.491108
0.502099
0.517701
0.538184
0.563954
0.595448
0.633068
0.676902
0.48537
0.487122
0.493455
0.504602
0.520453
0.541313
0.567647
0.599979
0.638847
0.684494
0.0230537
0.0228672
0.022422
0.0216669
0.0206081
0.0192677
0.0176643
0.0158142
0.0137342
0.0114471
0.026274
0.0260655
0.0255668
0.0247204
0.0235337
0.0220318
0.0202359
0.0181649
0.0158365
0.0132822
0.0331097
0.0328529
0.0322384
0.0311953
0.029733
0.027883
0.025672
0.0231251
0.0202628
0.0171369
0.0443951
0.0440565
0.0432464
0.0418711
0.0399423
0.0375004
0.0345789
0.0312108
0.0274152
0.0232764
0.0615461
0.0610827
0.0599742
0.0580921
0.0554496
0.0520979
0.0480788
0.0434361
0.0381876
0.0324794
0.086725
0.0860805
0.0845415
0.0819285
0.0782485
0.0735541
0.0678794
0.0612626
0.0536839
0.0453522
0.123058
0.122173
0.12007
0.116508
0.111468
0.104977
0.0970274
0.0876291
0.0767043
0.0645881
0.174668
0.173539
0.170872
0.166347
0.159857
0.151294
0.140467
0.127164
0.110975
0.0919887
0.245498
0.244382
0.241746
0.237162
0.230291
0.220706
0.207835
0.191019
0.169512
0.142757
0.335396
0.334696
0.333147
0.330272
0.325288
0.316957
0.303507
0.282546
0.251439
0.206822
0.00952951
0.00810891
0.00664498
0.00515196
0.00362923
0.00207785
0.000502134
-0.00109274
-0.00270193
-0.00432096
0.0111256
0.00953065
0.00788673
0.00622304
0.00453477
0.00281883
0.00107907
-0.000678345
-0.00244767
-0.00422374
0.014456
0.012461
0.0104157
0.00838268
0.00634524
0.00428979
0.00221871
0.000139524
-0.00194141
-0.00401917
0.0196363
0.0169079
0.0141527
0.0114761
0.00883011
0.00618179
0.00353292
0.000894684
-0.00172506
-0.00432147
0.0273386
0.0234498
0.0196045
0.0159668
0.0124243
0.008909
0.0054223
0.00198094
-0.00140674
-0.00473873
0.0375999
0.0316486
0.0259085
0.0206179
0.0155276
0.0105066
0.00556162
0.000724018
-0.00399369
-0.00859108
0.0531363
0.0440634
0.0354345
0.0277241
0.0204578
0.0133653
0.00644871
-0.000233168
-0.00665909
-0.0128362
0.0733918
0.0576938
0.0427409
0.0298288
0.0179775
0.00651095
-0.00464194
-0.0153932
-0.0257196
-0.0356479
0.117511
0.0915966
0.0648048
0.0419661
0.021846
0.00317224
-0.0141381
-0.029874
-0.0440091
-0.0566585
0.16798
0.126993
0.0816451
0.038576
-0.00316241
-0.0440415
-0.0834447
-0.12079
-0.155808
-0.188415
-0.00594552
-0.00757146
-0.00919481
-0.0108118
-0.0124189
-0.0140128
-0.0155903
-0.0171486
-0.0186863
-0.0202014
-0.00600155
-0.0077762
-0.00954293
-0.0112972
-0.0130349
-0.014752
-0.0164451
-0.0181109
-0.0197473
-0.0213556
-0.00608923
-0.00814711
-0.0101885
-0.0122092
-0.0142057
-0.0161744
-0.0181122
-0.0200162
-0.0218829
-0.0237198
-0.00689033
-0.0094272
-0.0119278
-0.014388
-0.0168043
-0.0191737
-0.0214935
-0.0237613
-0.025971
-0.028136
-0.00801406
-0.0112313
-0.0143892
-0.0174868
-0.0205234
-0.0234986
-0.0264118
-0.0292617
-0.0320365
-0.0347397
-0.0130686
-0.0174245
-0.0216558
-0.025759
-0.0297303
-0.0335659
-0.037262
-0.0408157
-0.0442075
-0.0474059
-0.018778
-0.0244979
-0.0300116
-0.0353378
-0.0404986
-0.0455171
-0.0504166
-0.0552191
-0.0599246
-0.0644126
-0.0452014
-0.0543832
-0.0631793
-0.0715632
-0.0794971
-0.0869364
-0.0938376
-0.100174
-0.105942
-0.111263
-0.0679729
-0.0781155
-0.0872801
-0.09571
-0.103712
-0.111668
-0.120034
-0.12935
-0.140196
-0.154363
-0.218619
-0.246516
-0.272296
-0.296239
-0.318734
-0.340284
-0.361508
-0.383052
-0.405419
-0.429261
-0.0305588
-0.0410318
-0.0417424
-0.0358836
-0.028174
-0.0213015
-0.0154723
-0.0104761
-0.00593986
-0.00197787
-0.0327894
-0.0430334
-0.0427534
-0.0361806
-0.0281979
-0.0212367
-0.0153592
-0.0103542
-0.00584561
-0.00194767
-0.0376114
-0.0471344
-0.0447609
-0.0367837
-0.0282543
-0.0210905
-0.0151145
-0.0100951
-0.00565291
-0.00188321
-0.0458562
-0.0535938
-0.047723
-0.0376369
-0.0282994
-0.0208211
-0.0147066
-0.0096785
-0.00535063
-0.00178461
-0.0588824
-0.0628549
-0.0515847
-0.0386074
-0.0282118
-0.02034
-0.0140832
-0.00907086
-0.00492275
-0.00164825
-0.0789751
-0.0757019
-0.0565448
-0.0396077
-0.027801
-0.0194934
-0.0131569
-0.00821737
-0.00434553
-0.00145508
-0.108214
-0.0929738
-0.0633454
-0.0408638
-0.0269771
-0.0181486
-0.0118453
-0.00706453
-0.00359967
-0.00115712
-0.147809
-0.113874
-0.0727664
-0.0428342
-0.0259276
-0.016354
-0.0101712
-0.00563093
-0.00271072
-0.000686774
-0.189226
-0.131731
-0.0821979
-0.0442662
-0.0245017
-0.0141483
-0.0082364
-0.00404077
-0.00177803
-7.34893e-06
-0.247322
-0.140737
-0.088205
-0.0428078
-0.0227683
-0.0117563
-0.00638704
-0.0025581
-0.00101747
0.000834559
-0.313854
-0.148832
-0.0918297
-0.0395508
-0.0222699
-0.0104252
-0.00566984
-0.00181842
-0.000851303
0.00148833
-0.321658
-0.146456
-0.0907196
-0.0378487
-0.0217676
-0.00993325
-0.00542501
-0.00162727
-0.00079116
0.00163529
-0.31688
-0.140951
-0.0882709
-0.0359501
-0.0211221
-0.00943551
-0.00517743
-0.00146183
-0.000719606
0.00174697
-0.311177
-0.136935
-0.0864465
-0.0344992
-0.0206308
-0.00902961
-0.0049722
-0.00132099
-0.000656469
0.00184615
-0.306284
-0.134031
-0.0850683
-0.0333307
-0.0202429
-0.0086885
-0.00480012
-0.00119942
-0.000603374
0.00193536
-0.30168
-0.131585
-0.0838734
-0.0323439
-0.0199153
-0.00839874
-0.00465519
-0.00109676
-0.000558752
0.00201185
-0.297494
-0.129529
-0.0828565
-0.0315434
-0.0196472
-0.00816307
-0.00453793
-0.00101397
-0.000522399
0.00207404
-0.294083
-0.127938
-0.082067
-0.0309431
-0.0194446
-0.00798509
-0.00444958
-0.000951592
-0.000494679
0.00212129
-0.291691
-0.126856
-0.0815312
-0.0305447
-0.0193093
-0.00786617
-0.00439065
-0.000909841
-0.000475879
0.00215314
-0.290461
-0.126308
-0.0812604
-0.0303462
-0.0192419
-0.00780678
-0.00436129
-0.000888821
-0.000466157
0.00216927
)
;

boundaryField
{
    inlet
    {
        type            zeroGradient;
    }
    outlet
    {
        type            fixedValue;
        value           uniform 0;
    }
    cylinder
    {
        type            zeroGradient;
    }
    top
    {
        type            symmetryPlane;
    }
    bottom
    {
        type            symmetryPlane;
    }
    defaultFaces
    {
        type            empty;
    }
}


// ************************************************************************* //
