/*--------------------------------*- C++ -*----------------------------------*\
  =========                 |
  \\      /  F ield         | OpenFOAM: The Open Source CFD Toolbox
   \\    /   O peration     | Website:  https://openfoam.org
    \\  /    A nd           | Version:  6.0
     \\/     M anipulation  |
\*---------------------------------------------------------------------------*/
FoamFile
{
    version     2.0;
    format      ascii;
    class       surfaceScalarField;
    location    "39";
    object      phi;
}
// * * * * * * * * * * * * * * * * * * * * * * * * * * * * * * * * * * * * * //

dimensions      [0 3 -1 0 0 0 0];

internalField   nonuniform List<scalar> 
3880
(
-1.79765e-05
1.79764e-05
6.22291e-11
-5.34952e-05
3.55182e-05
4.63679e-10
-9.53885e-05
4.18924e-05
9.39406e-10
-0.000136591
4.12015e-05
1.42094e-09
-0.000172743
3.61501e-05
1.88783e-09
-0.000201433
2.86874e-05
2.33584e-09
-0.000221728
2.02919e-05
2.77183e-09
-0.000233865
1.21342e-05
3.2123e-09
-0.000239053
5.18357e-06
3.68188e-09
2.14439e-07
4.15699e-09
-0.000239271
-1.72979e-05
3.52743e-05
-5.08464e-05
6.90667e-05
-8.96166e-05
8.06626e-05
-0.000126656
7.82408e-05
-0.000157645
6.71391e-05
-0.000180139
5.11814e-05
-0.000193118
3.3271e-05
-0.00019672
1.57366e-05
-0.000192098
5.6102e-07
-1.06179e-05
-0.000181265
-1.59054e-05
5.11796e-05
-4.54324e-05
9.85937e-05
-7.78693e-05
0.000113099
-0.000106533
0.000106904
-0.000127229
8.78356e-05
-0.000137483
6.14349e-05
-0.000136116
3.19044e-05
-0.00012306
2.68079e-06
-9.93303e-05
-2.31691e-05
-4.29549e-05
-6.69932e-05
-1.37117e-05
6.48913e-05
-3.69711e-05
0.000121853
-5.96379e-05
0.000135766
-7.55364e-05
0.000122803
-8.07735e-05
9.30726e-05
-7.29281e-05
5.35895e-05
-5.06495e-05
9.62581e-06
-1.35527e-05
-3.4416e-05
3.76163e-05
-7.43381e-05
-0.000106106
0.000100767
-1.05535e-05
7.54448e-05
-2.49448e-05
0.000136244
-3.39527e-05
0.000144774
-3.22489e-05
0.000121099
-1.65475e-05
7.73711e-05
1.52782e-05
2.17639e-05
6.4638e-05
-3.9734e-05
0.000132295
-0.000102073
0.000217969
-0.000160012
-0.000207802
0.000319664
-6.17963e-06
8.16244e-05
-8.56524e-06
0.00013863
7.22964e-07
0.000135486
2.57501e-05
9.60718e-05
6.8743e-05
3.43782e-05
0.000131065
-4.05585e-05
0.000213802
-0.00012247
0.000317961
-0.000206232
0.000443965
-0.000286016
-0.000353921
0.000590084
-2.78267e-07
8.19027e-05
1.31431e-05
0.000125209
4.63814e-05
0.000102248
0.000101851
4.06022e-05
0.000180199
-4.397e-05
0.000281312
-0.000141672
0.000405106
-0.000246264
0.000552136
-0.000353262
0.000723485
-0.000457365
-0.00054869
0.000918254
7.43422e-06
7.44684e-05
4.10627e-05
9.15801e-05
0.000104948
3.83625e-05
0.000199683
-5.41332e-05
0.000323976
-0.000168263
0.000475454
-0.000293149
0.0006515
-0.00042231
0.000850409
-0.000552171
0.00107265
-0.000679606
-0.000797631
0.00132159
1.70658e-05
5.74026e-05
7.55073e-05
3.31387e-05
0.000177313
-6.34433e-05
0.000321569
-0.000198389
0.000505327
-0.000352021
0.000723821
-0.000511643
0.000970777
-0.000669266
0.00123938
-0.000820776
0.00152587
-0.000966099
-0.00111593
0.00184418
2.83507e-05
2.90519e-05
0.000115562
-5.40726e-05
0.000261838
-0.000209719
0.000465776
-0.000402328
0.000724588
-0.000610832
0.00103381
-0.000820861
0.00138664
-0.0010221
0.00177228
-0.00120642
0.00217504
-0.00136886
-0.00151339
0.0025725
4.04752e-05
-1.14233e-05
0.000158376
-0.000171973
0.00035209
-0.000403434
0.000620354
-0.000670593
0.000962551
-0.000953029
0.00137938
-0.00123769
0.00187408
-0.0015168
0.00245576
-0.0017881
0.00314736
-0.00206045
-0.00237222
0.00400618
5.23596e-05
-6.37829e-05
0.000199955
-0.000319568
0.000438007
-0.000641485
0.000763004
-0.000995589
0.00117226
-0.00136229
0.00166393
-0.00172935
0.00223692
-0.00208979
0.00289039
-0.00244157
0.00361883
-0.0027889
-0.00314082
0.00438743
6.34851e-05
-0.000127268
0.000238251
-0.000494335
0.000514865
-0.000918099
0.000885315
-0.00136604
0.00134184
-0.00181882
0.00187631
-0.00226382
0.00247952
-0.00269301
0.00313969
-0.00310174
0.00383825
-0.00348745
-0.00384402
0.00454145
7.38717e-05
-0.00020114
0.000272989
-0.000693452
0.000582122
-0.00122723
0.000987489
-0.00177141
0.00147522
-0.00230654
0.0020307
-0.0028193
0.00263816
-0.00330046
0.00327987
-0.00374346
0.00393458
-0.00414217
-0.00448539
0.00457596
8.3663e-05
-0.000284803
0.000304314
-0.000914103
0.000640049
-0.00156297
0.00107069
-0.00220205
0.00157622
-0.00281207
0.00213646
-0.00337954
0.00273121
-0.00389521
0.00334036
-0.00435261
0.0039438
-0.0047456
-0.00506328
0.00452169
9.28484e-05
-0.000377651
0.000331967
-0.00115322
0.000688073
-0.00191907
0.00113437
-0.00264835
0.00164514
-0.00332284
0.00219582
-0.00393022
0.00276372
-0.0044631
0.00332854
-0.00491743
0.00387285
-0.00528991
-0.00557325
0.00438281
0.000101185
-0.000478836
0.000355067
-0.0014071
0.000724485
-0.00228849
0.00117614
-0.0031
0.00167935
-0.00382605
0.00220662
-0.00445749
0.00273444
-0.00499092
0.00324397
-0.00542696
0.0037214
-0.00576734
-0.00601044
0.0041586
0.000108242
-0.000587077
0.000372269
-0.00167113
0.000746863
-0.00266308
0.0011927
-0.00354584
0.00167529
-0.00430864
0.00216569
-0.00494789
0.00264124
-0.00546648
0.00308589
-0.00587161
0.00349006
-0.00617151
-0.00637125
0.00385087
0.000113496
-0.000700573
0.00038206
-0.0019397
0.000752695
-0.00303372
0.00118098
-0.00397413
0.00163007
-0.00475773
0.00207123
-0.00538905
0.00248414
-0.00587938
0.00285647
-0.00624395
0.00318315
-0.00649819
-0.00665405
0.00346595
0.000116416
-0.000816989
0.000383026
-0.00220631
0.000739894
-0.00339059
0.0011389
-0.00437314
0.00154253
-0.00516135
0.00192389
-0.00577041
0.00226618
-0.00622168
0.00256141
-0.00653918
0.00280886
-0.00674564
-0.00685929
0.0030141
0.000116537
-0.000933525
0.00037406
-0.00246383
0.000707143
-0.00372367
0.00106576
-0.00473176
0.00141354
-0.00550913
0.00172688
-0.00608375
0.00199334
-0.00648813
0.00220936
-0.00675519
0.00237811
-0.00691439
-0.00698916
0.00250798
0.000113457
-0.00104698
0.000354397
-0.00270477
0.000653934
-0.00402321
0.000962214
-0.00504004
0.00124577
-0.00579269
0.00148545
-0.00632343
0.00167351
-0.00667619
0.00181059
-0.00689228
0.00190302
-0.00700682
-0.00704717
0.00196102
0.000106917
-0.0011539
0.000323754
-0.00292161
0.000580682
-0.00428014
0.000830228
-0.00528958
0.00104342
-0.00600588
0.00120625
-0.00648626
0.00131569
-0.00678564
0.00137599
-0.00695257
0.00139578
-0.00702661
-0.00703761
0.00138622
9.677e-05
-0.00125067
0.000282253
-0.00310709
0.00048854
-0.00448642
0.000672707
-0.00547375
0.00081153
-0.00614471
0.000896515
-0.00657124
0.000928974
-0.0068181
0.000915966
-0.00693957
0.000867549
-0.00697819
-0.00696517
0.000795113
8.2998e-05
-0.00133367
0.00023041
-0.0032545
0.00037927
-0.00463528
0.000493174
-0.00558765
0.000555538
-0.00620707
0.000563385
-0.00657909
0.000521766
-0.00677648
0.00043969
-0.00685749
0.000327807
-0.00686631
-0.0068346
0.000197233
6.57183e-05
-0.00139939
0.000169109
-0.00335789
0.000255131
-0.0047213
0.000295516
-0.00562804
0.000280834
-0.00619239
0.000213365
-0.00651162
0.00010123
-0.00666434
-4.54473e-05
-0.00671081
-0.000216175
-0.00669558
-0.00665045
-0.000400318
4.52014e-05
-0.00144459
9.96125e-05
-0.0034123
0.000118827
-0.00474052
8.38865e-05
-0.0055931
-7.37349e-06
-0.00610113
-0.000147842
-0.00637115
-0.000326943
-0.00648524
-0.000534103
-0.00650365
-0.000759599
-0.00647008
-0.00641654
-0.000993515
2.18972e-05
-0.00146648
2.35901e-05
-0.003414
-2.64532e-05
-0.00469047
-0.000137251
-0.0054823
-0.000303971
-0.00593441
-0.00051522
-0.0061599
-0.000758426
-0.00624204
-0.00102296
-0.00623912
-0.00130037
-0.00619267
-0.00613332
-0.00158359
-3.5242e-06
-0.00146296
-5.68008e-05
-0.00336072
-0.000176921
-0.00457035
-0.000362964
-0.00529626
-0.000603854
-0.00569352
-0.000884699
-0.00587906
-0.00119127
-0.00593546
-0.00151273
-0.00591766
-0.00184205
-0.00586335
-0.00579383
-0.00218154
-3.0108e-05
-0.00143285
-0.000138739
-0.00325209
-0.000327729
-0.00438137
-0.00058688
-0.00503711
-0.000900374
-0.00538002
-0.0012516
-0.00552783
-0.00162604
-0.00556103
-0.00201327
-0.00553043
-0.00240934
-0.00546729
-0.00540647
-0.00279669
-5.66206e-05
-0.00137623
-0.000218706
-0.00309
-0.000472467
-0.0041276
-0.000799083
-0.00471049
-0.00117942
-0.00499968
-0.00159758
-0.00510967
-0.00204225
-0.00511636
-0.00250617
-0.00506651
-0.00298843
-0.00498502
-0.00486994
-0.00352497
-8.19864e-05
-0.00129425
-0.000293657
-0.00287833
-0.000605385
-0.00381588
-0.000989451
-0.00432643
-0.00142231
-0.00456682
-0.00188592
-0.00464606
-0.00236728
-0.004635
-0.0028574
-0.00457639
-0.00335011
-0.00449231
-0.00439084
-0.00382921
-0.000105568
-0.00118868
-0.000362211
-0.00262169
-0.000725123
-0.00345296
-0.0011583
-0.00389325
-0.00163423
-0.00409089
-0.00213319
-0.0041471
-0.00264175
-0.00412645
-0.0031509
-0.00406724
-0.00365346
-0.00398974
-0.00390445
-0.00413985
-0.00012702
-0.00106166
-0.00042378
-0.00232493
-0.000831572
-0.00304517
-0.00130721
-0.00341761
-0.00182016
-0.00357795
-0.00234994
-0.00361731
-0.00288351
-0.00359288
-0.00341269
-0.00353806
-0.00393191
-0.00347052
-0.00339976
-0.0044366
-0.000146081
-0.000915577
-0.000477931
-0.00199308
-0.000924551
-0.00259855
-0.00143676
-0.0029054
-0.0019818
-0.0030329
-0.00253907
-0.00306004
-0.00309627
-0.00303569
-0.00364639
-0.00298793
-0.00418547
-0.00293145
-0.00287403
-0.00471121
-0.000162504
-0.000753072
-0.000524206
-0.00163138
-0.00100363
-0.00211913
-0.00154671
-0.00236232
-0.00211914
-0.00246047
-0.00270043
-0.00247875
-0.00327912
-0.00245699
-0.00384931
-0.00241775
-0.00440816
-0.00237259
-0.00232762
-0.00495457
-0.000176039
-0.000577033
-0.000562095
-0.00124532
-0.00106815
-0.00161307
-0.00163633
-0.00179414
-0.00223123
-0.00186558
-0.00283257
-0.00187741
-0.00342968
-0.00185988
-0.00401747
-0.00182995
-0.00459391
-0.00179615
-0.00176296
-0.00515857
-0.000186443
-0.00039059
-0.000591077
-0.000840688
-0.00111738
-0.00108677
-0.00170467
-0.00120685
-0.00231679
-0.00125346
-0.0029337
-0.00126049
-0.00354531
-0.00124828
-0.00414715
-0.00122812
-0.00473767
-0.00120563
-0.00118374
-0.00531689
-0.000193509
-0.000197081
-0.000610691
-0.000423506
-0.00115064
-0.000546819
-0.00175082
-0.00060667
-0.0023746
-0.000629676
-0.00300215
-0.000632939
-0.00362375
-0.000626682
-0.00423532
-0.000616546
-0.00483563
-0.000605314
-0.000594446
-0.00542493
-0.000197082
4.49719e-10
-0.000620589
1.06976e-09
-0.00116741
1.40441e-09
-0.00177408
1.53686e-09
-0.00240376
1.53687e-09
-0.0030367
1.45597e-09
-0.00366338
1.32914e-09
-0.00427993
1.17813e-09
-0.00488524
1.01596e-09
8.4929e-10
-0.00547969
-0.000197082
0.000197082
-0.000620589
0.000423508
-0.00116741
0.000546822
-0.00177408
0.000606673
-0.00240376
0.000629679
-0.0030367
0.000632942
-0.00366338
0.000626685
-0.00427993
0.000616548
-0.00488524
0.000605316
0.000594448
-0.00547969
-0.000193509
0.000390591
-0.000610691
0.000840691
-0.00115064
0.00108677
-0.00175082
0.00120685
-0.0023746
0.00125346
-0.00300215
0.00126049
-0.00362375
0.00124828
-0.00423532
0.00122812
-0.00483563
0.00120563
0.00118375
-0.00542493
-0.000186443
0.000577034
-0.000591077
0.00124532
-0.00111738
0.00161308
-0.00170467
0.00179414
-0.00231679
0.00186558
-0.0029337
0.00187741
-0.00354531
0.00185989
-0.00414715
0.00182996
-0.00473767
0.00179616
0.00176296
-0.00531689
-0.000176039
0.000753073
-0.000562094
0.00163138
-0.00106815
0.00211913
-0.00163633
0.00236232
-0.00223123
0.00246047
-0.00283257
0.00247876
-0.00342968
0.00245699
-0.00401747
0.00241775
-0.00459391
0.00237259
0.00232762
-0.00515857
-0.000162504
0.000915577
-0.000524206
0.00199308
-0.00100363
0.00259855
-0.00154671
0.0029054
-0.00211914
0.00303291
-0.00270043
0.00306004
-0.00327912
0.00303569
-0.00384931
0.00298793
-0.00440816
0.00293145
0.00287403
-0.00495457
-0.000146081
0.00106166
-0.000477931
0.00232493
-0.000924551
0.00304517
-0.00143676
0.00341761
-0.0019818
0.00357795
-0.00253907
0.00361731
-0.00309627
0.00359288
-0.00364639
0.00353806
-0.00418547
0.00347053
0.00339976
-0.00471121
-0.00012702
0.00118868
-0.00042378
0.00262169
-0.000831572
0.00345297
-0.00130721
0.00389325
-0.00182016
0.0040909
-0.00234994
0.0041471
-0.00288351
0.00412645
-0.00341269
0.00406724
-0.00393191
0.00398975
0.00390446
-0.0044366
-0.000105567
0.00129425
-0.000362211
0.00287834
-0.000725123
0.00381588
-0.0011583
0.00432643
-0.00163423
0.00456682
-0.00213319
0.00464606
-0.00264175
0.00463501
-0.0031509
0.00457639
-0.00365346
0.00449231
0.00439084
-0.00413985
-8.19863e-05
0.00137623
-0.000293656
0.00309001
-0.000605385
0.00412761
-0.000989451
0.00471049
-0.00142231
0.00499969
-0.00188592
0.00510967
-0.00236727
0.00511636
-0.0028574
0.00506652
-0.00335011
0.00498502
0.00486994
-0.00382921
-5.66205e-05
0.00143285
-0.000218706
0.00325209
-0.000472467
0.00438137
-0.000799082
0.00503711
-0.00117942
0.00538003
-0.00159758
0.00552783
-0.00204225
0.00556103
-0.00250617
0.00553043
-0.00298843
0.00546729
0.00540648
-0.00352497
-3.01079e-05
0.00146296
-0.000138739
0.00336072
-0.000327728
0.00457036
-0.00058688
0.00529626
-0.000900373
0.00569352
-0.0012516
0.00587906
-0.00162604
0.00593546
-0.00201327
0.00591767
-0.00240934
0.00586335
0.00579383
-0.00279669
-3.52409e-06
0.00146648
-5.68004e-05
0.003414
-0.00017692
0.00469048
-0.000362964
0.0054823
-0.000603853
0.00593441
-0.000884698
0.0061599
-0.00119127
0.00624204
-0.00151273
0.00623913
-0.00184205
0.00619267
0.00613332
-0.00218154
2.18973e-05
0.00144459
2.35904e-05
0.0034123
-2.64526e-05
0.00474052
-0.00013725
0.0055931
-0.00030397
0.00610113
-0.000515218
0.00637115
-0.000758424
0.00648524
-0.00102295
0.00650366
-0.00130037
0.00647008
0.00641654
-0.00158359
4.52015e-05
0.00139939
9.96129e-05
0.00335789
0.000118827
0.0047213
8.38875e-05
0.00562804
-7.37224e-06
0.00619239
-0.000147841
0.00651162
-0.000326941
0.00666434
-0.000534101
0.00671082
-0.000759597
0.00669558
0.00665046
-0.000993513
6.57184e-05
0.00133367
0.00016911
0.0032545
0.000255131
0.00463528
0.000295517
0.00558765
0.000280836
0.00620707
0.000213367
0.00657909
0.000101232
0.00677648
-4.54452e-05
0.00685749
-0.000216173
0.00686631
0.0068346
-0.000400316
8.29981e-05
0.00125067
0.00023041
0.00310709
0.000379271
0.00448642
0.000493175
0.00547375
0.00055554
0.00614471
0.000563387
0.00657124
0.000521768
0.0068181
0.000439693
0.00693957
0.00032781
0.00697819
0.00696517
0.000197236
9.67701e-05
0.0011539
0.000282254
0.00292161
0.00048854
0.00428014
0.000672708
0.00528958
0.000811531
0.00600588
0.000896517
0.00648626
0.000928976
0.00678564
0.000915969
0.00695258
0.000867552
0.00702661
0.00703761
0.000795116
0.000106917
0.00104698
0.000323755
0.00270477
0.000580683
0.00402321
0.00083023
0.00504004
0.00104342
0.00579269
0.00120625
0.00632343
0.00131569
0.00667619
0.00137599
0.00689228
0.00139578
0.00700682
0.00704717
0.00138622
0.000113457
0.000933525
0.000354398
0.00246383
0.000653935
0.00372367
0.000962215
0.00473176
0.00124578
0.00550913
0.00148545
0.00608375
0.00167351
0.00648814
0.00181059
0.00675519
0.00190302
0.00691439
0.00698916
0.00196103
0.000116537
0.000816988
0.00037406
0.00220631
0.000707144
0.00339059
0.00106576
0.00437314
0.00141354
0.00516135
0.00172689
0.00577041
0.00199334
0.00622168
0.00220936
0.00653918
0.00237811
0.00674564
0.00685929
0.00250798
0.000116416
0.000700572
0.000383026
0.0019397
0.000739894
0.00303372
0.0011389
0.00397413
0.00154253
0.00475773
0.00192389
0.00538905
0.00226619
0.00587938
0.00256142
0.00624395
0.00280887
0.00649819
0.00665405
0.0030141
0.000113496
0.000587077
0.00038206
0.00167113
0.000752695
0.00266308
0.00118098
0.00354584
0.00163007
0.00430864
0.00207123
0.00494789
0.00248414
0.00546648
0.00285647
0.00587161
0.00318315
0.00617151
0.00637125
0.00346596
0.000108242
0.000478835
0.00037227
0.0014071
0.000746863
0.00228849
0.0011927
0.0031
0.00167529
0.00382605
0.00216569
0.00445749
0.00264125
0.00499092
0.0030859
0.00542696
0.00349006
0.00576734
0.00601044
0.00385087
0.000101185
0.00037765
0.000355067
0.00115322
0.000724485
0.00191907
0.00117614
0.00264835
0.00167936
0.00332283
0.00220662
0.00393022
0.00273444
0.0044631
0.00324397
0.00491743
0.00372141
0.00528991
0.00557325
0.0041586
9.28484e-05
0.000284802
0.000331967
0.000914102
0.000688073
0.00156296
0.00113437
0.00220205
0.00164514
0.00281207
0.00219582
0.00337954
0.00276372
0.00389521
0.00332854
0.00435261
0.00387285
0.0047456
0.00506328
0.00438282
8.36629e-05
0.000201139
0.000304314
0.000693451
0.000640049
0.00122723
0.00107069
0.0017714
0.00157622
0.00230654
0.00213646
0.0028193
0.00273121
0.00330046
0.00334036
0.00374345
0.0039438
0.00414216
0.00448539
0.00452169
7.38717e-05
0.000127267
0.000272989
0.000494333
0.000582122
0.000918096
0.000987489
0.00136604
0.00147522
0.00181881
0.0020307
0.00226381
0.00263816
0.002693
0.00327987
0.00310174
0.00393459
0.00348745
0.00384401
0.00457596
6.3485e-05
6.37823e-05
0.000238251
0.000319567
0.000514865
0.000641483
0.000885315
0.000995587
0.00134184
0.00136229
0.00187631
0.00172934
0.00247952
0.00208979
0.0031397
0.00244157
0.00383825
0.00278889
0.00314081
0.00454145
5.23595e-05
1.14228e-05
0.000199955
0.000171971
0.000438007
0.000403431
0.000763004
0.00067059
0.00117226
0.000953026
0.00166393
0.00123768
0.00223692
0.0015168
0.00289039
0.0017881
0.00361883
0.00206045
0.00237221
0.00438743
4.04751e-05
-2.90523e-05
0.000158375
5.40713e-05
0.00035209
0.000209717
0.000620354
0.000402325
0.000962551
0.000610829
0.00137938
0.000820857
0.00187408
0.00102209
0.00245576
0.00120642
0.00314736
0.00136885
0.00151339
0.00400619
2.83507e-05
-5.7403e-05
0.000115562
-3.31399e-05
0.000261838
6.34414e-05
0.000465776
0.000198387
0.000724587
0.000352017
0.00103381
0.000511639
0.00138664
0.000669261
0.00177228
0.000820771
0.00217504
0.000966093
0.00111593
0.0025725
1.70658e-05
-7.44687e-05
7.55071e-05
-9.15812e-05
0.000177313
-3.83644e-05
0.000321569
5.41305e-05
0.000505327
0.00016826
0.000723821
0.000293145
0.000970777
0.000422305
0.00123938
0.000552166
0.00152587
0.0006796
0.000797624
0.00184418
7.43417e-06
-8.19029e-05
4.10626e-05
-0.00012521
0.000104948
-0.000102249
0.000199683
-4.06048e-05
0.000323976
4.39667e-05
0.000475453
0.000141668
0.000651499
0.000246259
0.000850409
0.000353256
0.00107265
0.000457359
0.000548683
0.00132159
-2.78308e-07
-8.16246e-05
1.3143e-05
-0.000138631
4.63813e-05
-0.000135488
0.000101851
-9.60744e-05
0.000180199
-3.43815e-05
0.000281312
4.05545e-05
0.000405106
0.000122466
0.000552136
0.000206226
0.000723485
0.000286009
0.000353913
0.000918255
-6.17965e-06
-7.54449e-05
-8.56528e-06
-0.000136245
7.22923e-07
-0.000144776
2.57501e-05
-0.000121102
6.87431e-05
-7.73745e-05
0.000131066
-2.17681e-05
0.000213802
3.97291e-05
0.000317961
0.000102067
0.000443965
0.000160005
0.000207794
0.000590085
-1.05535e-05
-6.48914e-05
-2.49448e-05
-0.000121854
-3.39527e-05
-0.000135768
-3.22488e-05
-0.000122805
-1.65473e-05
-9.30761e-05
1.52785e-05
-5.35938e-05
6.46385e-05
-9.63095e-06
0.000132295
3.441e-05
0.000217969
7.43312e-05
0.000106098
0.000319665
-1.37117e-05
-5.11797e-05
-3.69711e-05
-9.85946e-05
-5.96378e-05
-0.000113101
-7.55363e-05
-0.000106907
-8.07732e-05
-8.78392e-05
-7.29277e-05
-6.14394e-05
-5.06489e-05
-3.19097e-05
-1.3552e-05
-2.68695e-06
3.76172e-05
2.3162e-05
4.29469e-05
0.000100768
-1.59053e-05
-3.52744e-05
-4.54323e-05
-6.90676e-05
-7.78692e-05
-8.06644e-05
-0.000106533
-7.82436e-05
-0.000127229
-6.71428e-05
-0.000137482
-5.1186e-05
-0.000136116
-3.32764e-05
-0.00012306
-1.57429e-05
-9.93295e-05
-5.6825e-07
1.06097e-05
-6.69923e-05
-1.72979e-05
-1.79765e-05
-5.08464e-05
-3.55191e-05
-8.96165e-05
-4.18943e-05
-0.000126656
-4.12043e-05
-0.000157645
-3.61538e-05
-0.000180139
-2.86921e-05
-0.000193118
-2.02975e-05
-0.00019672
-1.21406e-05
-0.000192097
-5.1909e-06
-2.22716e-07
-0.000181265
-1.79765e-05
-5.34952e-05
-9.53885e-05
-0.000136591
-0.000172743
-0.000201433
-0.000221728
-0.000233865
-0.000239052
-0.000239271
0.000183872
-0.000423318
1.74953e-07
0.00132177
-0.00113816
2.56782e-07
0.0024856
-0.00116339
-4.33643e-07
0.00323273
-0.000746215
-9.11702e-07
0.0038525
-0.000619597
-1.77634e-07
0.00428096
-0.000428853
3.91529e-07
0.00462505
-0.000345326
1.23398e-06
0.00485712
-0.000233752
1.6913e-06
0.00506663
-0.000209325
-1.9331e-07
-0.000123601
-9.40205e-07
0.000295546
-0.000900129
0.00140417
-0.00224678
0.00254171
-0.00230094
0.00327228
-0.00147679
0.00388051
-0.00122783
0.00430233
-0.000850667
0.00464226
-0.000685257
0.00487254
-0.000464033
0.00508129
-0.000418075
-0.000249193
0.000511736
-0.00147886
0.0015633
-0.00329834
0.00264973
-0.00338737
0.00334843
-0.00217548
0.00393447
-0.00181387
0.00434362
-0.00125982
0.00467569
-0.00101733
0.00490273
-0.000691072
0.00511017
-0.000625519
-0.000377018
0.000818585
-0.00219668
0.00178827
-0.00426802
0.0028016
-0.0044007
0.00345547
-0.00282935
0.00401041
-0.0023688
0.00440208
-0.00165149
0.00472345
-0.0013387
0.00494639
-0.00091401
0.00515245
-0.000831577
-0.000508519
0.00119652
-0.00307354
0.00206379
-0.00513529
0.00298603
-0.00532294
0.00358544
-0.00342876
0.00410275
-0.00288612
0.0044738
-0.00202254
0.00478286
-0.00164776
0.00500168
-0.00113283
0.00520691
-0.00103681
-0.000645507
0.00162149
-0.00410494
0.0023713
-0.0058851
0.00318938
-0.00614102
0.00372864
-0.00396801
0.00420471
-0.00336219
0.00455398
-0.00237181
0.00485056
-0.00194434
0.00506626
-0.00134853
0.00527202
-0.00124257
-0.000790247
0.00206543
-0.00525211
0.0026896
-0.00650928
0.00339644
-0.00684786
0.00387433
-0.00444591
0.00430872
-0.00379658
0.00463724
-0.00270033
0.00492277
-0.00222986
0.00513748
-0.00156325
0.00534598
-0.00145107
-0.0009455
0.00249801
-0.00642854
0.00299565
-0.00700691
0.00359122
-0.00744344
0.00401133
-0.00486601
0.00440693
-0.00419218
0.00471794
-0.00301134
0.00499547
-0.00250739
0.00521246
-0.00178024
0.00542681
-0.00166542
-0.00111455
0.00290166
-0.00748602
0.00327049
-0.00737574
0.00375969
-0.00793263
0.00412916
-0.00523548
0.00449184
-0.00455486
0.00479055
-0.00331006
0.00506464
-0.00278149
0.00528825
-0.00200384
0.0055124
-0.00188958
-0.00130116
0.00328114
-0.00819466
0.00351248
-0.00760708
0.00389098
-0.00831113
0.00422054
-0.00556504
0.00455672
-0.00489104
0.00485015
-0.00360349
0.00512627
-0.00305761
0.0053621
-0.00223967
0.00560029
-0.00212777
-0.0015101
0.0432805
-0.000916337
-0.0505588
0.0390647
-0.00339128
0.0369863
-0.00623271
0.0368009
-0.00537964
0.0366543
-0.00474445
0.0368201
-0.00376933
0.0370104
-0.00324791
0.0372641
-0.00249331
0.0374749
-0.00233855
-0.00179944
0.052339
0.00331231
-0.0565676
0.0501434
-0.00119568
0.0475497
-0.00363906
0.0460091
-0.00383899
0.044802
-0.00353742
0.0439761
-0.00294341
0.0433288
-0.00260064
0.0429108
-0.0020753
0.0425094
-0.00193708
-0.001607
0.0539037
0.00452365
-0.0551151
0.0526219
8.61619e-05
0.0510056
-0.00202272
0.0496961
-0.0025295
0.0485977
-0.00243902
0.0477379
-0.00208362
0.0469853
-0.0018481
0.0464226
-0.0015126
0.0458661
-0.00138054
-0.00122507
0.0520604
0.00437418
-0.0519109
0.0516515
0.000495048
0.0508181
-0.00118935
0.0499785
-0.00168985
0.0492353
-0.00169579
0.048634
-0.00148234
0.0480826
-0.0012967
0.047646
-0.00107604
0.0472074
-0.000941899
-0.00087502
0.0500072
0.003691
-0.0493241
0.0498797
0.000622573
0.0494567
-0.000766303
0.0489536
-0.00118676
0.0484819
-0.00122412
0.0480971
-0.00109753
0.0477468
-0.000946408
0.0474615
-0.000790766
0.0471836
-0.000663988
-0.000625624
0.0483081
0.00289044
-0.0475076
0.0483332
0.000597509
0.0480817
-0.000514806
0.0477501
-0.000855192
0.0474251
-0.000899148
0.0471552
-0.000827615
0.0469209
-0.000712114
0.0467283
-0.0005981
0.0465554
-0.000491119
-0.000457911
0.0470995
0.00210083
-0.0463099
0.0471932
0.000503819
0.0470185
-0.000340095
0.0467666
-0.000603372
0.0465105
-0.000643038
0.0462884
-0.00060551
0.0461018
-0.000525498
0.0459476
-0.000443876
0.0458199
-0.000363428
-0.000332868
0.046285
0.00136194
-0.0455462
0.0464291
0.000359753
0.0462956
-0.000206552
0.0460795
-0.000387256
0.0458531
-0.000416649
0.0456472
-0.000399601
0.0454728
-0.000351155
0.0453274
-0.00029843
0.0452096
-0.000245666
-0.000222033
0.0457884
0.000668585
-0.0450951
0.0459645
0.000183685
0.0458568
-9.88646e-05
0.0456573
-0.000187719
0.0454434
-0.000202761
0.0452423
-0.000198484
0.0450676
-0.000176453
0.0449203
-0.000151137
0.0447991
-0.000124498
-0.000112248
0.0455539
-0.0448853
0.0457375
0.0456387
0.045451
0.0452482
0.0450497
0.0448733
0.0447221
0.0445976
0.0567753
0.00230156
-0.0560628
0.0573298
0.00291152
0.0576776
0.00350307
0.057769
0.00406715
0.0575573
0.00459455
0.0570025
0.00507645
0.0560733
0.00550514
0.0547403
0.00587449
0.0529481
0.00617964
0.00639545
0.0513979
0.00169287
-0.0507892
0.0520516
0.00225782
0.0527363
0.0028184
0.0534339
0.00336952
0.054123
0.00390547
0.0547794
0.00442004
0.0553778
0.00490676
0.055893
0.00535929
0.0563008
0.00577186
0.00612858
0.0480918
0.00121798
-0.0476169
0.0486476
0.00170195
0.0492813
0.00218475
0.0499873
0.0026635
0.0507577
0.00313505
0.0515818
0.00359593
0.0524463
0.00404231
0.0533356
0.00447002
0.0542329
0.00487452
0.0052464
0.0454945
0.000891373
-0.0451679
0.0459013
0.00129519
0.0463887
0.00169727
0.0469569
0.00209536
0.0476047
0.00248721
0.0483302
0.00287047
0.0491298
0.00324274
0.0499982
0.00360153
0.0509287
0.00394402
0.00426423
0.0439058
0.000651543
-0.043666
0.0442197
0.000981263
0.0446079
0.0013091
0.04507
0.0016332
0.0456056
0.00195168
0.0462134
0.00226269
0.0468917
0.00256435
0.0476385
0.00285478
0.0484506
0.00313189
0.00339079
0.04281
0.000469371
-0.0426279
0.0430622
0.000729109
0.0433842
0.000987078
0.0437757
0.00124176
0.0442357
0.00149165
0.0447631
0.00173526
0.0453564
0.0019711
0.0460134
0.00219772
0.0467318
0.0024135
0.00261506
0.0421162
0.000324601
-0.0419714
0.0423279
0.00051744
0.0426061
0.000708864
0.0429501
0.000897723
0.0433589
0.00108287
0.043831
0.00126318
0.0443645
0.00143752
0.0449575
0.00160481
0.0456071
0.00176383
0.0019123
0.0416643
0.000203992
-0.0415436
0.04185
0.000331701
0.0421004
0.000458453
0.0424147
0.000583475
0.0427915
0.000706
0.0432294
0.000825266
0.0437264
0.000940528
0.0442802
0.00105105
0.044888
0.00115603
0.00125413
0.0413996
9.81568e-05
-0.0412938
0.0415695
0.000161804
0.041803
0.000224992
0.0420991
0.00028733
0.0424567
0.000348433
0.042874
0.000407917
0.0433491
0.000465406
0.0438797
0.000520527
0.0444628
0.000572889
0.000621851
0.0412741
-0.041176
0.0414359
0.0416609
0.0419483
0.0422967
0.0427046
0.04317
0.0436905
0.0442634
0.0481094
-0.00335375
-0.0475524
0.0488228
-0.00289491
0.0496455
-0.00240623
0.0505376
-0.00188567
0.0514714
-0.00133415
0.0524283
-0.000759614
0.0533899
-0.000166546
0.0543348
0.000441357
0.0552365
0.00105935
0.00168166
0.0479852
-0.00340685
-0.0479321
0.0480815
-0.00299121
0.0482205
-0.00254527
0.0484082
-0.00207331
0.0486505
-0.00157647
0.0489517
-0.00106082
0.0493152
-0.000530107
0.0497433
1.33383e-05
0.0502356
0.000567032
0.00112801
0.046897
-0.0031475
-0.0471564
0.0466931
-0.00278731
0.0465499
-0.00240199
0.0464725
-0.00199592
0.0464672
-0.00157119
0.0465376
-0.00113122
0.046686
-0.000678497
0.0469144
-0.000215051
0.0472244
0.000257039
0.000735514
0.0455818
-0.00277138
-0.0459579
0.0452636
-0.00246907
0.0450067
-0.00214511
0.0448147
-0.00180393
0.0446909
-0.00144743
0.0446377
-0.00107802
0.044657
-0.000697784
0.0447506
-0.00030868
0.0449204
8.72845e-05
0.000488019
0.0446599
-0.0023496
-0.0450817
0.0442919
-0.00210112
0.0439823
-0.00183549
0.0437342
-0.0015558
0.0435504
-0.00126363
0.0434332
-0.00096086
0.0433847
-0.000649209
0.0434064
-0.000330378
0.0434997
-6.10751e-06
0.00032181
0.0439897
-0.00190032
-0.0444389
0.0435923
-0.0017038
0.0432508
-0.00149398
0.0429681
-0.0012731
0.0427469
-0.0010424
0.0425893
-0.000803279
0.0424972
-0.000557131
0.0424722
-0.000305347
0.0425154
-4.93525e-05
0.000209386
0.043559
-0.00143594
-0.0440234
0.043145
-0.00128981
0.042785
-0.00113398
0.0424818
-0.000969934
0.042238
-0.000798577
0.0420557
-0.000620933
0.0419366
-0.000438034
0.0418822
-0.000250936
0.0418935
-6.07209e-05
0.000131503
0.0432802
-0.000961463
-0.0437546
0.0428551
-0.000864769
0.0424828
-0.000761687
0.042166
-0.000653147
0.0419072
-0.000539755
0.0417085
-0.000422172
0.0415715
-0.000301081
0.0414978
-0.000177186
0.0414882
-5.12116e-05
7.61009e-05
0.0431192
-0.000481538
-0.0435992
0.042688
-0.000433516
0.0423086
-0.000382324
0.0419839
-0.000328401
0.0417162
-0.000272046
0.0415076
-0.000213581
0.0413598
-0.000153346
0.0412743
-9.16888e-05
0.0412521
-2.89704e-05
3.44381e-05
0.0430454
-0.0435269
0.0426119
0.0422296
0.0419012
0.0416291
0.0414155
0.0412622
0.0411705
0.0411415
0.0429475
0.00017463
-0.000193168
0.0429914
0.000521275
-0.000565199
0.0430658
0.000872669
-0.000947117
0.0431884
0.00123699
-0.00135953
0.043389
0.0016196
-0.00182026
0.0437114
0.00202474
-0.0023471
0.0442143
0.00245452
-0.00295739
0.0449695
0.00291137
-0.00366663
0.0460712
0.0033713
-0.00447302
0.00392366
-0.00540479
0.0429657
0.000137881
0.0430729
0.000414035
0.043254
0.000691546
0.0435194
0.0009716
0.043884
0.00125501
0.0443668
0.00154201
0.0449896
0.00183166
0.0457769
0.00212406
0.0467446
0.00240363
0.00273617
0.0429665
0.000100273
0.0430779
0.000302716
0.0432627
0.000506703
0.0435251
0.000709224
0.0438707
0.00090938
0.0443068
0.00110588
0.0448419
0.00129663
0.045486
0.00147993
0.0462438
0.0016458
0.00182362
0.0429586
7.05591e-05
0.0430476
0.00021375
0.043196
0.000358305
0.0434046
0.000500634
0.0436744
0.000639531
0.0440066
0.000773703
0.0444017
0.000901576
0.0448596
0.00102195
0.0453756
0.00112981
0.00124132
0.0429506
4.88959e-05
0.0430161
0.000148278
0.0431258
0.000248591
0.0432795
0.000346942
0.0434767
0.000442271
0.0437169
0.000533528
0.0439989
0.000619571
0.0443214
0.000699471
0.0446808
0.000770438
0.000840418
0.0429445
3.33078e-05
0.0429918
0.000101019
0.043071
0.000169333
0.0431818
0.000236199
0.0433232
0.00030084
0.0434942
0.000362518
0.0436933
0.00042049
0.0439186
0.000474163
0.044167
0.000522064
0.00056846
0.0429403
2.19173e-05
0.0429749
6.64634e-05
0.0430328
0.000111387
0.0431137
0.00015533
0.0432168
0.000197769
0.0433411
0.000238215
0.0434854
0.000276191
0.0436482
0.000311308
0.0438275
0.000342737
0.000372642
0.0429376
1.32769e-05
0.0429638
4.02491e-05
0.0430077
6.7437e-05
0.043069
9.40318e-05
0.0431471
0.000119719
0.0432411
0.000144208
0.0433501
0.000167222
0.0434728
0.000188535
0.0436079
0.000207713
0.000225861
0.0429359
6.2613e-06
0.0429572
1.8982e-05
0.0429929
3.17938e-05
0.0430426
4.43268e-05
0.0431058