/*--------------------------------*- C++ -*----------------------------------*\
  =========                 |
  \\      /  F ield         | OpenFOAM: The Open Source CFD Toolbox
   \\    /   O peration     | Website:  https://openfoam.org
    \\  /    A nd           | Version:  6.0
     \\/     M anipulation  |
\*---------------------------------------------------------------------------*/
FoamFile
{
    version     2.0;
    format      ascii;
    class       volVectorField;
    location    "39";
    object      U;
}
// * * * * * * * * * * * * * * * * * * * * * * * * * * * * * * * * * * * * * //

dimensions      [0 1 -1 0 0 0 0];

internalField   nonuniform List<vector> 
2000
(
(-0.00199129 0.00173839 5.72956e-20)
(-0.0076218 0.00330255 6.80495e-20)
(-0.0153305 0.00366171 -6.48743e-20)
(-0.022333 0.00333726 -1.32378e-19)
(-0.0276811 0.00263947 -9.24728e-20)
(-0.031222 0.00177148 1.23193e-19)
(-0.0330533 0.000878686 7.17565e-20)
(-0.0334439 6.77784e-05 -2.90277e-20)
(-0.0328261 -0.000582115 -7.24641e-20)
(-0.0314947 -0.00100711 5.28359e-20)
(-0.00248977 0.00512145 -1.4202e-19)
(-0.00837089 0.00968561 1.96055e-19)
(-0.0157256 0.0106975 1.95503e-20)
(-0.0220255 0.00969713 -1.13563e-19)
(-0.0264599 0.00759767 5.4341e-19)
(-0.0289522 0.00499592 -2.39161e-19)
(-0.0296478 0.00232023 -2.58742e-19)
(-0.0288424 -0.000111121 3.12075e-19)
(-0.0269842 -0.0020564 -3.07779e-19)
(-0.0244458 -0.00332314 1.5527e-19)
(-0.00343584 0.00822509 2.35871e-20)
(-0.00972829 0.0154098 8.38901e-21)
(-0.0163018 0.0168862 5.87573e-19)
(-0.0211439 0.0151401 2.06115e-19)
(-0.0237178 0.0116328 4.08794e-20)
(-0.0240982 0.00731602 3.38054e-19)
(-0.0225235 0.00287563 -6.4209e-19)
(-0.0193379 -0.00116558 1.39257e-20)
(-0.0150191 -0.00439083 -3.79687e-19)
(-0.0101013 -0.00647653 4.1827e-19)
(-0.00472414 0.0108683 -4.43695e-20)
(-0.0114035 0.0200606 2.55265e-19)
(-0.0166179 0.0217191 -7.43726e-19)
(-0.0191362 0.019149 -9.61336e-20)
(-0.0188319 0.014267 -5.47408e-19)
(-0.0160031 0.00831068 5.6693e-19)
(-0.0110219 0.00217482 -6.01336e-19)
(-0.0042951 -0.00343153 4.22309e-19)
(0.00366484 -0.00789858 1.7754e-19)
(0.012066 -0.0107672 -2.00617e-19)
(-0.00618717 0.0128751 -4.93834e-19)
(-0.0129401 0.0232577 4.4562e-21)
(-0.0159822 0.0247666 9.16161e-19)
(-0.015134 0.0213426 2.74662e-19)
(-0.010814 0.0152246 -8.73328e-19)
(-0.00361476 0.00783443 5.43054e-19)
(0.00591983 0.000194846 6.15543e-19)
(0.0173161 -0.00684068 -5.48804e-19)
(0.0300385 -0.0124548 3.91294e-19)
(0.0429274 -0.01605 9.60867e-20)
(-0.00758387 0.0140746 6.75039e-20)
(-0.0136958 0.0246652 1.25199e-20)
(-0.0134289 0.0257007 -1.17131e-18)
(-0.00792007 0.0215113 -6.55283e-19)
(0.00173677 0.0144916 7.81699e-19)
(0.0145804 0.00611446 -9.15402e-19)
(0.029852 -0.00259126 1.04896e-18)
(0.047012 -0.0107164 -9.06066e-20)
(0.0655437 -0.0172516 -2.95105e-19)
(0.0838044 -0.0214739 -8.57709e-19)
(-0.00858789 0.0143042 -1.46884e-19)
(-0.0128317 0.0240058 -2.68272e-19)
(-0.00771283 0.0243088 -3.29587e-19)
(0.00408041 0.0196266 7.03099e-19)
(0.0206614 0.0123262 1.30425e-18)
(0.0406203 0.00378352 -2.6957e-19)
(0.0629176 -0.00513388 -6.56088e-19)
(0.0869335 -0.0136345 2.00108e-19)
(0.112255 -0.0206176 -1.2602e-18)
(0.13668 -0.0252868 1.38422e-18)
(-0.00878376 0.0134243 8.98352e-19)
(-0.00932777 0.021086 -4.90362e-19)
(0.00264693 0.0205021 9.57339e-19)
(0.0227372 0.015817 -1.5641e-18)
(0.0481758 0.0092047 -7.47354e-19)
(0.0770175 0.00182484 -1.03518e-18)
(0.107834 -0.00579602 3.00749e-19)
(0.139848 -0.0132511 -8.37352e-19)
(0.172883 -0.0195764 1.82347e-18)
(0.204281 -0.024084 5.10447e-19)
(-0.00768218 0.0113475 6.61333e-20)
(-0.00204417 0.0158389 7.98761e-19)
(0.0192566 0.0143221 1.58732e-18)
(0.0500667 0.0102994 4.85054e-19)
(0.086705 0.0056581 1.43568e-18)
(0.126598 0.00135835 7.86927e-20)
(0.167738 -0.00240945 -7.11438e-22)
(0.208926 -0.0056953 5.78812e-19)
(0.25024 -0.00784236 4.68161e-19)
(0.289123 -0.00926702 -1.51944e-18)
(-0.00477031 0.00808571 -5.32144e-19)
(0.0101476 0.00838417 -8.91265e-19)
(0.0436451 0.00593719 -1.29549e-18)
(0.0879987 0.00320804 3.0612e-20)
(0.138753 0.00175535 -6.60433e-19)
(0.192809 0.00254084 1.04092e-18)
(0.247593 0.00588679 -2.86578e-18)
(0.301167 0.012012 1.2866e-18)
(0.35289 0.0215112 4.83606e-19)
(0.400038 0.030243 1.51731e-18)
(0.000388941 0.00380837 2.66196e-19)
(0.028119 -0.00087495 -1.01902e-18)
(0.0768114 -0.00427375 9.09894e-19)
(0.137566 -0.00546276 -3.53009e-19)
(0.205557 -0.00344425 3.83978e-19)
(0.277825 0.00270546 8.35947e-19)
(0.352534 0.0137229 -1.12236e-18)
(0.429281 0.0305495 1.45825e-19)
(0.509044 0.052449 -5.3782e-19)
(0.594179 0.0694489 1.0912e-18)
(0.00806057 -0.00110816 3.81393e-19)
(0.0522614 -0.0110937 -9.23878e-19)
(0.118758 -0.0153305 1.25879e-18)
(0.197752 -0.0150202 -7.83934e-19)
(0.284053 -0.0102814 -2.87582e-19)
(0.374609 -0.000974411 1.70262e-19)
(0.467612 0.0128121 8.80291e-20)
(0.562495 0.0307665 1.19406e-18)
(0.65891 0.0501728 3.43744e-19)
(0.754566 0.0623355 1.46954e-18)
(0.0183525 -0.0061022 -3.40424e-19)
(0.0826141 -0.0209193 1.19452e-18)
(0.169009 -0.0252648 -9.96719e-19)
(0.267058 -0.0228326 -1.16895e-18)
(0.371093 -0.0151027 1.63549e-18)
(0.47762 -0.00286822 -1.24354e-18)
(0.584245 0.0129402 3.28476e-19)
(0.689412 0.0312103 -1.94726e-18)
(0.79134 0.0492601 1.45863e-18)
(0.886048 0.061745 7.28789e-20)
(0.0312708 -0.0105461 -4.43653e-19)
(0.118978 -0.0287945 -4.28463e-19)
(0.226872 -0.0317854 -9.12383e-19)
(0.344067 -0.0258928 1.10592e-18)
(0.464451 -0.0140413 -5.58593e-20)
(0.584066 0.00207386 7.14981e-19)
(0.699974 0.0208514 1.30433e-18)
(0.809936 0.0407934 -4.00825e-19)
(0.911583 0.0598055 -1.41773e-18)
(1.00091 0.0748743 2.81474e-18)
(0.0467459 -0.0138319 -2.2932e-19)
(0.160913 -0.0332175 -2.73533e-19)
(0.291342 -0.0327811 4.9225e-19)
(0.427118 -0.021666 -9.14963e-19)
(0.561888 -0.00426337 1.56316e-19)
(0.691446 0.0168783 1.39107e-19)
(0.812669 0.0396103 6.10053e-20)
(0.923206 0.0622272 -9.85861e-21)
(1.02086 0.083226 -1.4944e-19)
(1.10226 0.100988 -2.37961e-18)
(0.0646192 -0.0153978 9.30876e-19)
(0.207685 -0.0328638 -6.49649e-19)
(0.360985 -0.0265381 8.30812e-21)
(0.514057 -0.00833962 -9.89418e-19)
(0.660658 0.0159053 -3.53988e-19)
(0.796707 0.0428738 3.30983e-19)
(0.919366 0.0699919 2.57039e-19)
(1.02674 0.095469 -9.15946e-19)
(1.11735 0.11834 7.48659e-19)
(1.18885 0.13779 -9.816e-19)
(0.0846118 -0.0147327 4.0177e-19)
(0.25823 -0.0266437 -3.57067e-19)
(0.433903 -0.0118362 1.48311e-18)
(0.602228 0.0150999 1.51216e-19)
(0.757554 0.0470179 3.47521e-19)
(0.896417 0.0799679 1.54892e-18)
(1.01678 0.111129 -2.3683e-19)
(1.11772 0.138796 2.15792e-19)
(1.19888 0.162562 8.93572e-20)
(1.25919 0.182094 -1.09978e-19)
(0.106294 -0.0113862 2.80693e-19)
(0.311143 -0.0137432 6.74855e-19)
(0.507783 0.0120115 -7.22936e-19)
(0.688612 0.0488887 -2.44742e-19)
(0.849163 0.088665 -3.02333e-19)
(0.987148 0.127017 4.6845e-19)
(1.10186 0.161146 -2.43666e-19)
(1.19375 0.189673 6.55557e-19)
(1.26384 0.212844 2.20604e-19)
(1.3125 0.230664 -3.59653e-19)
(0.129072 -0.00499465 -3.02482e-19)
(0.364703 0.00632827 2.68859e-19)
(0.580018 0.0451367 -5.73696e-19)
(0.770042 0.0925424 2.47465e-19)
(0.932163 0.139655 -2.56778e-19)
(1.06584 0.182156 -3.20471e-19)
(1.17214 0.217626 -2.57352e-19)
(1.25319 0.245299 2.87608e-19)
(1.3115 0.266202 -5.42258e-19)
(1.34886 0.280635 3.27705e-19)
(0.152192 0.00468201 -1.07821e-19)
(0.416948 0.0336823 -2.1091e-19)
(0.647856 0.0871016 1.00435e-19)
(0.843435 0.144924 6.19197e-21)
(1.0036 0.198185 8.33353e-20)
(1.13007 0.243067 1.1433e-19)
(1.22601 0.277936 1.05959e-19)
(1.29535 0.302933 -1.40507e-19)
(1.34202 0.319978 1.19619e-19)
(1.36911 0.329673 -1.872e-19)
(0.174776 0.0177191 -6.24129e-20)
(0.465775 0.0680016 -2.3413e-20)
(0.708581 0.1369 9.31683e-20)
(0.90601 0.204326 -4.28911e-20)
(1.0611 0.262006 1.14319e-19)
(1.17821 0.307192 -1.47606e-19)
(1.26274 0.339449 3.42108e-20)
(1.32037 0.360075 3.67078e-20)
(1.35627 0.37195 -1.53865e-20)
(1.37465 0.375984 5.82135e-20)
(0.195857 0.0339918 -6.7332e-20)
(0.509072 0.10851 -3.04697e-19)
(0.759692 0.192986 -2.11044e-20)
(0.955471 0.268575 6.27224e-21)
(1.10299 0.328579 -3.96306e-19)
(1.20944 0.371906 5.23913e-20)
(1.2824 0.399692 -4.46041e-20)
(1.3291 0.414555 -1.07588e-19)
(1.35567 0.420328 2.24308e-19)
(1.36715 0.418229 -4.08984e-19)
(0.214445 0.0531506 -3.25194e-20)
(0.544853 0.15397 6.17102e-19)
(0.799066 0.253335 9.94317e-20)
(0.990137 0.335148 -5.43281e-19)
(1.12837 0.395217 -4.40555e-20)
(1.22372 0.434652 -5.20626e-19)
(1.28575 0.456424 3.81633e-19)
(1.32289 0.464537 -1.38467e-19)
(1.34192 0.463702 2.45635e-19)
(1.34842 0.455418 -1.79481e-19)
(0.229587 0.0746123 -2.05066e-19)
(0.571395 0.202718 1.95857e-19)
(0.825095 0.315541 -1.41366e-19)
(1.00902 0.401307 1.06554e-18)
(1.13708 0.459222 5.25883e-19)
(1.22173 0.493027 -1.21929e-19)
(1.27409 0.50767 4.10776e-19)
(1.30345 0.508497 -2.70295e-19)
(1.31689 0.500955 -7.53049e-20)
(1.32028 0.486797 4.94086e-19)
(0.240436 0.0975687 -3.54944e-19)
(0.587357 0.252731 4.51692e-19)
(0.836775 0.376931 -8.88701e-19)
(1.01185 0.464234 1.24808e-19)
(1.12967 0.51799 2.78906e-19)
(1.20469 0.544843 -4.27703e-19)
(1.24914 0.551725 -4.98013e-19)
(1.27272 0.545171 2.18611e-19)
(1.28252 0.531182 -2.63243e-19)
(1.28453 0.511753 3.16078e-19)
(0.246312 0.121013 -8.96813e-20)
(0.591874 0.301725 -4.59612e-19)
(0.833756 0.434708 2.54274e-19)
(0.999032 0.521159 4.26425e-19)
(1.10726 0.569097 -2.56435e-19)
(1.17428 0.588156 -1.9106e-19)
(1.21287 0.587118 -1.04364e-19)
(1.23273 0.573483 -5.15932e-20)
(1.24078 0.553597 1.0777e-20)
(1.24291 0.529718 1.07646e-19)
(0.246759 0.143785 6.58309e-20)
(0.584618 0.347278 -3.85683e-19)
(0.816341 0.486098 6.43282e-19)
(0.971583 0.569494 -3.81133e-19)
(1.07145 0.610386 1.06522e-19)
(1.13248 0.62129 -1.5111e-19)
(1.16741 0.612602 1.6268e-19)
(1.18559 0.592495 3.12052e-20)
(1.19356 0.56743 -7.78858e-20)
(1.19711 0.54002 1.51287e-19)
(0.241593 0.164636 -1.73065e-19)
(0.565834 0.386975 3.38117e-19)
(0.78545 0.528509 -1.52012e-20)
(0.931027 0.60695 -7.32537e-20)
(1.02419 0.640034 -2.01324e-19)
(1.08145 0.642882 2.48202e-20)
(1.11501 0.627183 6.14275e-20)
(1.1335 0.601457 -1.51439e-19)
(1.14303 0.571982 1.76862e-19)
(1.1492 0.541878 1.50274e-19)
(0.230936 0.182311 3.8497e-20)
(0.536326 0.418562 -8.09495e-20)
(0.742533 0.559669 2.42016e-20)
(0.87924 0.631621 1.25683e-20)
(0.967554 0.656554 7.785e-20)
(1.02334 0.651785 -1.43995e-19)
(1.05788 0.629967 -3.01272e-19)
(1.07891 0.599657 -1.22908e-19)
(1.09214 0.566622 -1.57102e-19)
(1.10255 0.5347 1.33094e-19)
(0.215231 0.195654 1.10719e-19)
(0.49743 0.440131 -1.71654e-19)
(0.689468 0.577805 1.65686e-19)
(0.818264 0.64211 -3.14753e-19)
(0.903422 0.658818 7.6361e-20)
(0.959696 0.646834 5.16112e-19)
(0.997279 0.619363 -1.58269e-19)
(1.02317 0.584702 1.88129e-19)
(1.04271 0.548004 2.75428e-19)
(1.05903 0.515027 1.00182e-18)
(0.195249 0.203726 6.80372e-19)
(0.450968 0.450296 -4.62946e-19)
(0.628514 0.581864 1.12668e-18)
(0.750269 0.637905 -1.92955e-19)
(0.83339 0.646759 9.66663e-19)
(0.891058 0.628052 6.06476e-19)
(0.932311 0.594737 -1.42481e-18)
(0.963571 0.55388 2.16328e-18)
(0.989457 0.507899 -4.57167e-19)
(1.00632 0.461006 8.99596e-19)
(0.17205 0.205874 -3.75315e-19)
(0.399205 0.448255 -2.67585e-19)
(0.562391 0.57153 2.58797e-19)
(0.677929 0.619482 -6.40954e-19)
(0.759662 0.622009 -2.00198e-18)
(0.8187 0.598991 -8.05134e-19)
(0.862693 0.563188 -7.25679e-19)
(0.897114 0.52174 3.51198e-19)
(0.925117 0.478159 2.92701e-18)
(0.942606 0.437392 -6.08853e-19)
(0.146894 0.201721 1.97524e-19)
(0.344728 0.433649 -7.99385e-19)
(0.494241 0.546774 1.75821e-19)
(0.604666 0.587133 -1.28039e-18)
(0.686058 0.585016 2.80328e-18)
(0.747293 0.559929 -3.24906e-19)
(0.794584 0.52408 1.52755e-18)
(0.832424 0.484256 -2.18819e-18)
(0.863342 0.443961 6.86494e-19)
(0.884648 0.407476 1.06201e-19)
(0.121118 0.191156 1.4561e-19)
(0.290163 0.40655 8.81674e-19)
(0.427119 0.507894 -2.58981e-18)
(0.533588 0.541229 1.26022e-18)
(0.615632 0.535982 -4.15633e-21)
(0.679888 0.510616 -4.25263e-19)
(0.731205 0.476429 5.35202e-19)
(0.773236 0.439623 -5.31903e-19)
(0.808165 0.403351 -1.82839e-18)
(0.834248 0.370865 -5.00978e-19)
(0.0960487 0.174334 4.76458e-19)
(0.238033 0.367474 5.34597e-19)
(0.363854 0.455615 2.20811e-18)
(0.467419 0.482513 -1.22838e-18)
(0.550831 0.4755 2.53201e-18)
(0.618566 0.451352 -5.45397e-19)
(0.674213 0.420138 -5.76501e-19)
(0.720699 0.387299 6.81269e-19)
(0.759932 0.355514 4.44184e-19)
(0.79087 0.327124 1.6105e-18)
(0.0729449 0.15167 -4.83542e-19)
(0.190664 0.317377 1.57838e-19)
(0.306988 0.391111 4.26867e-20)
(0.408535 0.412151 1.2523e-18)
(0.493703 0.404588 -3.12593e-18)
(0.56499 0.382953 5.31031e-19)
(0.624864 0.35582 1.17257e-18)
(0.675617 0.327751 -1.41758e-18)
(0.718933 0.30091 4.99404e-19)
(0.754394 0.276897 -2.31776e-18)
(0.0529469 0.123826 1.03046e-19)
(0.150114 0.257626 5.559e-19)
(0.258722 0.315974 2.16208e-19)
(0.358945 0.331692 2.93012e-19)
(0.445941 0.324635 5.61452e-19)
(0.520504 0.306609 1.67162e-18)
(0.584155 0.284488 -2.04668e-18)
(0.638655 0.261882 -1.15274e-18)
(0.685522 0.240441 1.9103e-19)
(0.724903 0.221195 1.50291e-18)
(0.0370318 0.0916908 -6.23131e-19)
(0.118111 0.189953 -7.4128e-20)
(0.220875 0.23216 -6.20957e-19)
(0.320288 0.243022 8.84338e-20)
(0.408909 0.237333 -5.31572e-19)
(0.486184 0.2238 -6.06885e-19)
(0.552891 0.207442 -9.04412e-19)
(0.610384 0.190868 2.43714e-18)
(0.660066 0.175232 4.20465e-19)
(0.702562 0.161149 -6.40925e-19)
(0.0259729 0.0563423 3.35836e-19)
(0.0960029 0.116392 4.43897e-19)
(0.194847 0.141927 1.74887e-19)
(0.293812 0.148292 -9.43869e-19)
(0.38364 0.144613 -4.39413e-19)
(0.462844 0.136226 -9.46205e-20)
(0.531693 0.126185 1.8489e-19)
(0.591265 0.116066 1.48458e-19)
(0.642893 0.106552 -1.14799e-18)
(0.687548 0.0979585 6.58737e-19)
(0.0203063 0.0190051 -1.7489e-19)
(0.0847141 0.0392054 -1.98966e-19)
(0.181592 0.0477518 1.58579e-19)
(0.280362 0.0498474 1.4079e-19)
(0.370831 0.0485765 1.44289e-19)
(0.451036 0.0457358 2.20667e-19)
(0.520987 0.0423505 -1.16021e-20)
(0.581621 0.0389481 -2.89455e-19)
(0.634242 0.035754 2.74949e-19)
(0.680003 0.032865 -4.13673e-19)
(0.0203063 -0.0190053 -1.7604e-19)
(0.0847141 -0.0392058 -1.8961e-19)
(0.181593 -0.0477523 1.74739e-19)
(0.280362 -0.049848 3.42122e-19)
(0.370831 -0.0485771 2.27959e-19)
(0.451036 -0.0457364 -3.00366e-19)
(0.520987 -0.0423511 -1.63216e-19)
(0.581621 -0.0389486 7.11779e-20)
(0.634242 -0.0357544 1.60025e-19)
(0.680003 -0.0328654 -9.52928e-20)
(0.0259729 -0.0563425 4.20108e-19)
(0.096003 -0.116393 -5.33912e-19)
(0.194847 -0.141927 -4.44077e-20)
(0.293812 -0.148292 2.95823e-19)
(0.38364 -0.144614 -1.33747e-18)
(0.462844 -0.136227 5.71485e-19)
(0.531693 -0.126185 5.89935e-19)
(0.591265 -0.116066 -6.96444e-19)
(0.642893 -0.106552 6.65269e-19)
(0.687548 -0.0979588 -2.91993e-19)
(0.0370318 -0.091691 -7.26337e-20)
(0.118111 -0.189953 -9.26641e-21)
(0.220875 -0.232161 -1.44213e-18)
(0.320288 -0.243022 -4.58768e-19)
(0.408909 -0.237333 -4.83684e-20)
(0.486184 -0.2238 -7.54715e-19)
(0.552891 -0.207443 1.40623e-18)
(0.610384 -0.190868 -4.94196e-20)
(0.660066 -0.175233 8.02986e-19)
(0.702562 -0.161149 -7.06049e-19)
(0.0529469 -0.123826 1.22669e-19)
(0.150114 -0.257626 -5.67924e-19)
(0.258722 -0.315974 1.74751e-18)
(0.358946 -0.331693 2.4729e-19)
(0.445941 -0.324635 1.21573e-18)
(0.520505 -0.306609 -1.18853e-18)
(0.584155 -0.284488 1.24773e-18)
(0.638655 -0.261882 -8.99573e-19)
(0.685522 -0.240441 -3.95049e-19)
(0.724903 -0.221195 3.35598e-19)
(0.0729449 -0.15167 1.09537e-18)
(0.190664 -0.317377 2.80506e-21)
(0.306989 -0.391112 -1.8417e-18)
(0.408535 -0.412151 -5.34334e-19)
(0.493703 -0.404589 1.77421e-18)
(0.56499 -0.382954 -1.03979e-18)
(0.624864 -0.355821 -1.20374e-18)
(0.675618 -0.327751 1.08306e-18)
(0.718933 -0.300911 -7.37344e-19)
(0.754395 -0.276898 -1.58967e-19)
(0.0960488 -0.174334 -1.63511e-19)
(0.238033 -0.367474 -7.75483e-21)
(0.363855 -0.455616 1.99868e-18)
(0.467419 -0.482514 1.14602e-18)
(0.550831 -0.4755 -1.35143e-18)
(0.618566 -0.451352 1.6363e-18)
(0.674214 -0.420139 -1.77556e-18)
(0.7207 -0.387299 1.76693e-19)
(0.759932 -0.355515 5.28852e-19)
(0.79087 -0.327125 1.2237e-18)
(0.121118 -0.191156 1.87428e-19)
(0.290163 -0.40655 3.01825e-19)
(0.427119 -0.507895 3.28313e-19)
(0.533588 -0.541229 -1.05553e-18)
(0.615633 -0.535983 -1.88019e-18)
(0.679888 -0.510616 3.95942e-19)
(0.731205 -0.47643 1.14579e-18)
(0.773236 -0.439624 -3.27977e-19)
(0.808165 -0.403351 1.97458e-18)
(0.834248 -0.370865 -1.92467e-18)
(0.146894 -0.201721 -1.061e-18)
(0.344728 -0.43365 4.07691e-19)
(0.494242 -0.546775 -1.10085e-18)
(0.604667 -0.587134 1.77969e-18)
(0.686059 -0.585017 8.89918e-19)
(0.747293 -0.559929 1.25647e-18)
(0.794584 -0.52408 -2.90768e-19)
(0.832424 -0.484257 1.14566e-18)
(0.863342 -0.443962 -2.42558e-18)
(0.884648 -0.407477 -6.32365e-19)
(0.17205 -0.205874 6.24659e-20)
(0.399205 -0.448255 -7.12781e-19)
(0.562392 -0.57153 -1.14128e-18)
(0.677929 -0.619482 -4.83565e-19)
(0.759662 -0.622009 -1.36647e-18)
(0.8187 -0.598991 -1.38985e-19)
(0.862693 -0.563188 1.1883e-19)
(0.897114 -0.521741 -5.33967e-19)
(0.925117 -0.478159 -5.9675e-19)
(0.942606 -0.437392 1.57377e-18)
(0.195249 -0.203726 3.35381e-19)
(0.450968 -0.450296 4.6835e-19)
(0.628514 -0.581865 8.39053e-19)
(0.750269 -0.637906 3.72171e-20)
(0.83339 -0.646759 5.59838e-19)
(0.891058 -0.628052 -7.66603e-19)
(0.932311 -0.594737 2.34053e-18)
(0.963571 -0.55388 -1.03339e-18)
(0.989457 -0.507899 -5.07522e-19)
(1.00632 -0.461006 -1.53039e-18)
(0.215231 -0.195654 -1.32095e-19)
(0.497431 -0.440131 2.33331e-19)
(0.689468 -0.577805 -2.39113e-19)
(0.818264 -0.642111 1.2892e-19)
(0.903423 -0.658818 -1.52349e-19)
(0.959697 -0.646834 -3.90735e-19)
(0.997279 -0.619363 5.1399e-19)
(1.02317 -0.584702 -1.68141e-19)
(1.04271 -0.548005 2.60827e-19)
(1.05903 -0.515027 -5.69162e-19)
(0.230936 -0.182311 -7.36725e-21)
(0.536326 -0.418562 -1.06524e-19)
(0.742533 -0.559669 2.12616e-20)
(0.87924 -0.631621 1.44515e-19)
(0.967555 -0.656555 -6.53528e-20)
(1.02334 -0.651785 1.75525e-20)
(1.05788 -0.629967 -1.71829e-20)
(1.07891 -0.599657 -3.8327e-19)
(1.09214 -0.566623 -1.77931e-19)
(1.10255 -0.534701 -5.59861e-19)
(0.241593 -0.164636 -9.61498e-20)
(0.565834 -0.386975 3.39313e-19)
(0.78545 -0.528509 -2.10824e-19)
(0.931027 -0.606951 -7.60402e-20)
(1.02419 -0.640034 3.40335e-20)
(1.08145 -0.642882 7.1426e-20)
(1.11501 -0.627183 -6.99796e-21)
(1.1335 -0.601457 2.92308e-19)
(1.14303 -0.571983 -2.52609e-19)
(1.1492 -0.541878 -3.57384e-21)
(0.246759 -0.143785 -2.36731e-19)
(0.584618 -0.347278 -1.48266e-19)
(0.816342 -0.486099 -3.68158e-19)
(0.971583 -0.569495 4.18798e-19)
(1.07145 -0.610386 -3.07065e-20)
(1.13248 -0.621291 1.36155e-19)
(1.16741 -0.612602 1.53691e-19)
(1.18559 -0.592495 -5.59031e-20)
(1.19356 -0.567431 5.03871e-20)
(1.19711 -0.540021 -1.59642e-19)
(0.246312 -0.121013 -1.6103e-19)
(0.591874 -0.301725 -2.06848e-19)
(0.833756 -0.434708 3.11689e-19)
(0.999032 -0.521159 -4.68318e-19)
(1.10726 -0.569097 8.22675e-20)
(1.17428 -0.588156 4.15836e-20)
(1.21287 -0.587119 9.19917e-20)
(1.23273 -0.573484 -6.04725e-20)
(1.24078 -0.553597 -7.24318e-20)
(1.24291 -0.529719 -2.36088e-19)
(0.240436 -0.0975687 6.71351e-19)
(0.587357 -0.252731 -5.25408e-19)
(0.836775 -0.376931 2.45467e-20)
(1.01185 -0.464234 -6.73262e-19)
(1.12967 -0.51799 -1.95452e-19)
(1.20469 -0.544843 1.56367e-19)
(1.24914 -0.551725 1.14564e-19)
(1.27272 -0.545171 -3.82135e-19)
(1.28252 -0.531183 1.67747e-19)
(1.28453 -0.511754 -3.0252e-19)
(0.229587 -0.0746123 3.3317e-19)
(0.571395 -0.202718 -3.29739e-19)
(0.825095 -0.315541 1.18326e-18)
(1.00902 -0.401307 9.43572e-20)
(1.13708 -0.459223 2.68346e-19)
(1.22173 -0.493027 9.57266e-19)
(1.27409 -0.507671 -1.98978e-19)
(1.30345 -0.508498 4.83337e-20)
(1.31689 -0.500955 -2.84297e-20)
(1.32028 -0.486797 -4.95368e-20)
(0.214445 -0.0531506 2.5682e-19)
(0.544853 -0.15397 5.83568e-19)
(0.799066 -0.253336 -5.94823e-19)
(0.990137 -0.335148 -1.80679e-19)
(1.12837 -0.395217 -1.9129e-19)
(1.22372 -0.434653 3.76579e-19)
(1.28575 -0.456424 -1.77702e-19)
(1.32289 -0.464538 4.18988e-19)
(1.34192 -0.463702 1.00825e-19)
(1.34842 -0.455419 -1.77319e-19)
(0.195857 -0.0339918 -2.77419e-19)
(0.509072 -0.10851 2.57439e-19)
(0.759692 -0.192986 -5.28528e-19)
(0.955471 -0.268575 2.21282e-19)
(1.10299 -0.328579 -2.2178e-19)
(1.20944 -0.371907 -2.6372e-19)
(1.2824 -0.399692 -2.04624e-19)
(1.3291 -0.414555 2.25764e-19)
(1.35567 -0.420328 -3.92411e-19)
(1.36715 -0.41823 2.4842e-19)
(0.174776 -0.0177191 -1.03931e-19)
(0.465775 -0.0680016 -2.03948e-19)
(0.708581 -0.1369 9.59416e-20)
(0.90601 -0.204326 7.08324e-21)
(1.0611 -0.262006 7.63588e-20)
(1.17821 -0.307192 1.09405e-19)
(1.26274 -0.33945 9.31588e-20)
(1.32037 -0.360076 -1.26043e-19)
(1.35627 -0.37195 1.02749e-19)
(1.37465 -0.375985 -1.62307e-19)
(0.152192 -0.00468202 -6.54895e-20)
(0.416948 -0.0336823 -2.63967e-20)
(0.647856 -0.0871017 9.83561e-20)
(0.843435 -0.144924 -4.43724e-20)
(1.0036 -0.198185 1.2418e-19)
(1.13007 -0.243067 -1.56964e-19)
(1.22601 -0.277936 4.03244e-20)
(1.29535 -0.302933 3.46062e-20)
(1.34202 -0.319979 -1.23634e-20)
(1.36911 -0.329674 5.67412e-20)
(0.129072 0.00499463 -7.85652e-20)
(0.364703 -0.00632832 -3.33082e-19)
(0.580018 -0.0451368 -2.68263e-20)
(0.770042 -0.0925425 1.07076e-20)
(0.932163 -0.139655 -4.62024e-19)
(1.06584 -0.182157 4.87893e-20)
(1.17214 -0.217627 -5.16913e-20)
(1.25319 -0.245299 -1.40598e-19)
(1.3115 -0.266202 3.11101e-19)
(1.34886 -0.280635 -5.65991e-19)
(0.106294 0.0113862 -4.45409e-20)
(0.311143 0.0137431 7.14408e-19)
(0.507783 -0.0120116 9.52861e-20)
(0.688612 -0.0488889 -6.45354e-19)
(0.849163 -0.0886652 -7.72763e-20)
(0.987147 -0.127017 -7.27759e-19)
(1.10186 -0.161147 5.65882e-19)
(1.19375 -0.189673 -2.29678e-19)
(1.26384 -0.212844 4.35338e-19)
(1.3125 -0.230664 -3.84058e-19)
(0.0846117 0.0147327 -2.51911e-19)
(0.25823 0.0266436 2.93316e-19)
(0.433902 0.011836 -2.04883e-19)
(0.602228 -0.0151001 1.41621e-18)
(0.757554 -0.0470182 7.49651e-19)
(0.896416 -0.0799682 -1.96302e-19)
(1.01678 -0.111129 7.63303e-19)
(1.11772 -0.138796 -4.99078e-19)
(1.19888 -0.162562 -1.605e-19)
(1.25919 -0.182094 1.15962e-18)
(0.0646191 0.0153978 -4.65695e-19)
(0.207684 0.0328637 6.95312e-19)
(0.360985 0.0265379 -1.31861e-18)
(0.514057 0.0083394 2.28248e-19)
(0.660658 -0.0159055 5.69093e-19)
(0.796706 -0.0428741 -7.15154e-19)
(0.919366 -0.0699923 -1.26663e-18)
(1.02674 -0.0954694 6.79019e-19)
(1.11735 -0.11834 -8.83081e-19)
(1.18885 -0.13779 1.41321e-18)
(0.0467458 0.0138318 -1.15123e-19)
(0.160912 0.0332173 -6.99852e-19)
(0.291342 0.0327809 3.45475e-19)
(0.427117 0.0216657 8.64217e-19)
(0.561888 0.00426306 -4.64215e-19)
(0.691445 -0.0168786 -4.58114e-19)
(0.812668 -0.0396108 -7.76714e-19)
(0.923206 -0.0622277 -3.55909e-19)
(1.02086 -0.0832265 -8.54748e-20)
(1.10226 -0.100989 1.41233e-18)
(0.0312707 0.010546 1.93296e-19)
(0.118978 0.0287943 -9.5072e-19)
(0.226871 0.0317852 1.62616e-18)
(0.344066 0.0258925 -9.05507e-19)
(0.464451 0.0140409 5.86681e-19)
(0.584065 -0.00207427 -7.30007e-19)
(0.699973 -0.0208518 8.13053e-19)
(0.809935 -0.0407939 7.10089e-19)
(0.911583 -0.059806 1.55146e-18)
(1.00091 -0.0748749 -2.56491e-18)
(0.0183524 0.00610214 -6.00621e-19)
(0.0826139 0.0209191 1.20606e-18)
(0.169009 0.0252646 1.60959e-20)
(0.267058 0.0228323 -4.3441e-19)
(0.371092 0.0151023 -2.3069e-19)
(0.47762 0.00286777 1.84383e-19)
(0.584245 -0.0129407 -1.30902e-18)
(0.689411 -0.0312109 1.01135e-18)
(0.791339 -0.0492607 -1.30344e-18)
(0.886047 -0.0617457 -5.94964e-19)
(0.00806048 0.0011081 1.03355e-18)
(0.0522611 0.0110936 -3.2242e-19)
(0.118758 0.0153303 -6.04817e-19)
(0.197751 0.0150199 1.64266e-18)
(0.284052 0.0102809 -1.61361e-18)
(0.374608 0.000973925 9.01545e-19)
(0.467611 -0.0128127 9.60188e-19)
(0.562494 -0.0307671 2.6275e-19)
(0.658909 -0.0501735 2.73275e-19)
(0.754565 -0.0623363 -3.87657e-19)
(0.000388866 -0.00380842 -9.88461e-19)
(0.0281187 0.000874782 9.39521e-19)
(0.0768111 0.00427349 -8.31442e-19)
(0.137565 0.00546241 1.04316e-18)
(0.205557 0.00344381 -3.11659e-19)
(0.277825 -0.00270598 -1.0824e-18)
(0.352534 -0.0137235 3.10402e-19)
(0.42928 -0.0305502 -5.12136e-19)
(0.509043 -0.0524498 -6.0658e-19)
(0.594178 -0.0694498 -1.89236e-18)
(-0.00477037 -0.00808576 -1.23478e-18)
(0.0101474 -0.00838434 9.81672e-19)
(0.0436448 -0.00593746 -1.9234e-18)
(0.0879982 -0.0032084 3.43937e-19)
(0.138753 -0.00175581 -1.33251e-18)
(0.192809 -0.00254139 -7.99175e-19)
(0.247592 -0.00588743 1.91252e-18)
(0.301167 -0.0120128 -2.6147e-18)
(0.352889 -0.0215121 5.03275e-19)
(0.400037 -0.030244 -8.28762e-19)
(-0.00768223 -0.0113476 6.08234e-19)
(-0.00204433 -0.015839 2.57353e-19)
(0.0192563 -0.0143224 -7.65477e-20)
(0.0500663 -0.0102997 7.30911e-19)
(0.0867046 -0.00565859 2.14627e-18)
(0.126598 -0.00135894 7.40773e-19)
(0.167738 0.00240875 7.65424e-19)
(0.208926 0.00569449 -2.64665e-19)
(0.250239 0.00784142 -2.46878e-18)
(0.289122 0.00926595 6.26107e-19)
(-0.00878379 -0.0134243 -1.71712e-19)
(-0.0093279 -0.0210861 5.46524e-19)
(0.0026467 -0.0205024 -1.43171e-19)
(0.0227368 -0.0158174 1.01089e-18)
(0.0481754 -0.00920523 -2.33727e-18)
(0.077017 -0.00182548 1.98389e-19)
(0.107833 0.00579526 -1.11237e-18)
(0.139847 0.0132502 1.63683e-18)
(0.172882 0.0195753 -4.78432e-19)
(0.20428 0.0240828 -6.83656e-20)
(-0.00858791 -0.0143043 -1.16895e-19)
(-0.0128318 -0.024006 -6.57259e-19)
(-0.00771302 -0.024309 1.65296e-18)
(0.00408013 -0.019627 -8.7153e-19)
(0.020661 -0.0123268 6.12533e-20)
(0.0406199 -0.00378422 2.79689e-19)
(0.0629171 0.00513305 -2.55605e-19)
(0.086933 0.0136335 3.32192e-19)
(0.112254 0.0206165 1.1511e-18)
(0.136679 0.0252855 3.01219e-19)
(-0.00758388 -0.0140746 -2.62189e-19)
(-0.0136958 -0.0246653 -2.91627e-19)
(-0.0134291 -0.025701 -1.29444e-18)
(-0.00792029 -0.0215118 6.89245e-19)
(0.0017365 -0.0144922 -1.42164e-18)
(0.0145801 -0.00611522 3.22966e-19)
(0.0298516 0.00259036 3.63153e-19)
(0.0470116 0.0107154 -3.8378e-19)
(0.0655432 0.0172504 -2.48299e-19)
(0.0838039 0.0214725 -1.11591e-18)
(-0.00618718 -0.0128751 2.04819e-19)
(-0.0129401 -0.0232578 -4.81777e-20)
(-0.0159824 -0.0247669 9.78433e-22)
(-0.0151342 -0.0213431 -6.22059e-19)
(-0.0108142 -0.0152253 1.57472e-18)
(-0.00361502 -0.00783524 -2.45617e-19)
(0.00591954 -0.000195816 -6.12948e-19)
(0.0173158 0.00683954 7.50221e-19)
(0.0300382 0.0124535 -2.63641e-19)
(0.042927 0.0160485 1.45724e-18)
(-0.00472415 -0.0108683 -3.84433e-20)
(-0.0114036 -0.0200608 -2.25391e-19)
(-0.016618 -0.0217194 -8.89555e-20)
(-0.0191364 -0.0191496 -1.13644e-19)
(-0.018832 -0.0142677 -2.44332e-19)
(-0.0160032 -0.00831154 -7.67293e-19)
(-0.0110221 -0.00217584 9.59789e-19)
(-0.00429534 0.00343033 5.60664e-19)
(0.00366458 0.0078972 -1.00437e-19)
(0.0120657 0.0107656 -8.93835e-19)
(-0.00343584 -0.00822512 2.18307e-19)
(-0.00972832 -0.01541 3.81492e-20)
(-0.0163018 -0.0168866 2.58226e-19)
(-0.021144 -0.0151406 -2.95552e-20)
(-0.0237179 -0.0116335 2.35133e-19)
(-0.0240984 -0.00731691 2.65286e-19)
(-0.0225237 -0.0028767 3.97716e-19)
(-0.019338 0.00116434 -1.12666e-18)
(-0.0150192 0.0043894 -2.07946e-19)
(-0.0101015 0.00647491 3.72683e-19)
(-0.00248977 -0.00512147 -1.10233e-19)
(-0.00837091 -0.00968579 -1.56675e-19)
(-0.0157256 -0.0106978 -7.53707e-20)
(-0.0220256 -0.00969769 3.68648e-19)
(-0.0264599 -0.00759841 1.78942e-19)
(-0.0289522 -0.00499685 3.66972e-20)
(-0.0296479 -0.00232132 -7.95623e-20)
(-0.0288425 0.000109849 -6.17184e-20)
(-0.0269843 0.00205494 5.29766e-19)
(-0.0244459 0.00332149 -3.6081e-19)
(-0.00199129 -0.00173842 5.61957e-20)
(-0.00762181 -0.00330273 6.99233e-20)
(-0.0153305 -0.00366208 -5.96229e-20)
(-0.022333 -0.00333783 -5.45344e-20)
(-0.0276811 -0.00264023 -5.65439e-20)
(-0.031222 -0.00177242 -9.02247e-20)
(-0.0330533 -0.000879796 2.89795e-21)
(-0.0334439 -6.9065e-05 1.25186e-19)
(-0.0328262 0.000580641 -1.25696e-19)
(-0.0314948 0.00100544 2.28694e-19)
(-0.00813007 -0.002589 1.6536e-20)
(0.0621855 -0.00662925 9.88886e-21)
(0.277501 -0.00670634 1.33884e-21)
(0.377048 -0.00437924 -9.02878e-22)
(0.479653 -0.0036801 -6.35736e-23)
(0.553655 -0.00264338 1.48304e-22)
(0.606086 -0.00219811 1.6706e-22)
(0.660483 -0.00160012 -3.43123e-23)
(0.683687 -0.00146199 -2.45682e-24)
(0.734014 -0.00100115 2.4361e-22)
(0.00867068 -0.00806664 2.62231e-20)
(0.0774374 -0.0197193 1.25263e-21)
(0.288991 -0.0199736 -1.74895e-20)
(0.385804 -0.0130561 1.40544e-20)
(0.486363 -0.0109673 8.88229e-22)
(0.55889 -0.00787007 -5.96203e-22)
(0.610358 -0.00652792 6.91562e-22)
(0.663841 -0.0047358 7.07321e-23)
(0.686617 -0.00436814 1.42722e-22)
(0.736236 -0.00301107 -2.23262e-22)
(0.0419773 -0.0144245 2.68598e-20)
(0.107468 -0.0323285 -3.61062e-20)
(0.311546 -0.0327819 1.78773e-20)
(0.403005 -0.0214322 -1.16435e-20)
(0.499548 -0.0180271 8.29546e-22)
(0.569193 -0.0129451 -6.46616e-22)
(0.618775 -0.0107426 -2.57881e-22)
(0.67047 -0.00779169 1.28422e-24)
(0.692412 -0.00720846 -1.09182e-22)
(0.740639 -0.00498143 -3.26021e-22)
(0.0911879 -0.0221406 -4.16312e-20)
(0.151356 -0.0441574 -5.01148e-20)
(0.344335 -0.0448463 -2.3128e-20)
(0.428042 -0.029324 1.21357e-20)
(0.518757 -0.02472 -1.4556e-20)
(0.584239 -0.0177752 3.85445e-21)
(0.631095 -0.0147706 -2.09793e-22)
(0.680201 -0.010718 1.22589e-22)
(0.700939 -0.00994135 -1.30863e-22)
(0.74714 -0.00688685 1.20972e-22)
(0.155371 -0.0314879 1.1514e-19)
(0.207774 -0.0549186 7.22431e-20)
(0.386169 -0.0559031 2.59882e-20)
(0.460049 -0.0365694 -2.3584e-20)
(0.543343 -0.0309217 1.19483e-20)
(0.603563 -0.0222774 3.16828e-21)
(0.646966 -0.0185477 2.21866e-21)
(0.692786 -0.0134696 2.4213e-22)
(0.712006 -0.0125285 2.90955e-22)
(0.755622 -0.00870353 -6.4212e-22)
(0.233245 -0.0423936 -5.08311e-20)
(0.275048 -0.064297 3.90034e-20)
(0.435569 -0.0656989 4.81954e-21)
(0.497945 -0.0430249 2.63045e-20)
(0.572504 -0.0365257 -5.95288e-21)
(0.626584 -0.0263812 -3.69444e-21)
(0.66595 -0.0220185 -2.29188e-21)
(0.707916 -0.0160079 -1.5107e-22)
(0.725369 -0.0149361 -1.57431e-22)
(0.76593 -0.0104098 6.88672e-22)
(0.323181 -0.0545776 -3.86821e-20)
(0.351206 -0.0720281 -1.00791e-19)
(0.490836 -0.0740308 -1.70563e-20)
(0.540494 -0.0485747 -1.4648e-20)
(0.605325 -0.041449 6.98202e-21)
(0.652637 -0.0300312 -1.94547e-21)
(0.687538 -0.0251391 2.46376e-21)
(0.725227 -0.0183009 4.53385e-22)
(0.740742 -0.0171359 -4.72635e-23)
(0.777881 -0.0119861 2.65208e-22)