1.45 	0 	0 	-0.292766
2.35 	0 	0 	-0.127993
