1.45 	0 	0 	0.000782169 	-0.00342809 	3.96983e-21
2.35 	0 	0 	0.0984909 	-0.00794464 	2.14084e-21
