/*--------------------------------*- C++ -*----------------------------------*\
  =========                 |
  \\      /  F ield         | OpenFOAM: The Open Source CFD Toolbox
   \\    /   O peration     | Website:  https://openfoam.org
    \\  /    A nd           | Version:  6.0
     \\/     M anipulation  |
\*---------------------------------------------------------------------------*/
FoamFile
{
    version     2.0;
    format      ascii;
    class       volScalarField;
    location    "110";
    object      p;
}
// * * * * * * * * * * * * * * * * * * * * * * * * * * * * * * * * * * * * * //

dimensions      [0 2 -2 0 0 0 0];

internalField   nonuniform List<scalar> 
34500
(
1.00821
1.00857
1.00868
1.00857
1.0083
1.00789
1.00737
1.00677
1.00609
1.00539
1.00464
1.00398
1.0031
1.00274
1.00247
1.00821
1.00862
1.00881
1.00883
1.0087
1.00846
1.0081
1.00764
1.00708
1.00647
1.00575
1.00511
1.00411
1.00391
1.00342
1.00822
1.0086
1.00876
1.00873
1.00853
1.0082
1.00777
1.00724
1.00663
1.00598
1.00526
1.00464
1.00373
1.00382
1.00342
1.00822
1.00859
1.00873
1.00865
1.0084
1.00802
1.00752
1.00695
1.0063
1.00564
1.00493
1.00436
1.00357
1.00387
1.00379
1.00823
1.0086
1.00875
1.00868
1.00844
1.00807
1.00759
1.00703
1.0064
1.00576
1.00507
1.00453
1.00379
1.00419
1.00428
1.00824
1.00862
1.00878
1.00874
1.00853
1.00818
1.00772
1.00718
1.00657
1.00595
1.00527
1.00474
1.00404
1.00448
1.00464
1.00825
1.00864
1.0088
1.00878
1.00857
1.00823
1.00778
1.00725
1.00665
1.00603
1.00537
1.00486
1.00418
1.00467
1.00492
1.00826
1.00865
1.00882
1.0088
1.0086
1.00826
1.00781
1.00728
1.00668
1.00607
1.00542
1.00493
1.0043
1.00483
1.00516
1.00827
1.00866
1.00884
1.00883
1.00863
1.0083
1.00786
1.00733
1.00673
1.00613
1.00549
1.00502
1.00443
1.00498
1.00538
1.00828
1.00868
1.00886
1.00885
1.00867
1.00835
1.00791
1.00739
1.0068
1.00621
1.00557
1.00512
1.00457
1.00512
1.00557
1.0083
1.0087
1.00888
1.00888
1.00871
1.0084
1.00796
1.00745
1.00687
1.00628
1.00566
1.00522
1.00469
1.00524
1.00573
1.00832
1.00872
1.0089
1.0089
1.00874
1.00843
1.00801
1.0075
1.00692
1.00634
1.00573
1.0053
1.00481
1.00535
1.00586
1.00834
1.00874
1.00892
1.00893
1.00876
1.00846
1.00804
1.00754
1.00697
1.0064
1.0058
1.00538
1.00492
1.00544
1.00597
1.00836
1.00876
1.00895
1.00895
1.00879
1.0085
1.00808
1.00758
1.00702
1.00645
1.00586
1.00546
1.00502
1.00553
1.00607
1.00838
1.00879
1.00898
1.00898
1.00883
1.00853
1.00812
1.00763
1.00707
1.00651
1.00593
1.00554
1.00513
1.00561
1.00615
1.0084
1.00881
1.00901
1.00902
1.00886
1.00857
1.00816
1.00768
1.00712
1.00657
1.006
1.00562
1.00523
1.00569
1.00622
1.00843
1.00884
1.00904
1.00905
1.0089
1.00862
1.00821
1.00773
1.00717
1.00663
1.00607
1.00569
1.00532
1.00576
1.00629
1.00846
1.00887
1.00907
1.00909
1.00894
1.00866
1.00826
1.00778
1.00723
1.00669
1.00613
1.00577
1.00541
1.00583
1.00634
1.00848
1.0089
1.00911
1.00913
1.00899
1.00871
1.00831
1.00783
1.00728
1.00675
1.0062
1.00584
1.0055
1.00589
1.00638
1.00851
1.00894
1.00915
1.00917
1.00903
1.00875
1.00836
1.00788
1.00734
1.00681
1.00626
1.00591
1.00558
1.00595
1.00642
1.00855
1.00897
1.00919
1.00922
1.00908
1.0088
1.00841
1.00793
1.0074
1.00687
1.00633
1.00598
1.00567
1.006
1.00645
1.00858
1.00901
1.00923
1.00926
1.00913
1.00885
1.00846
1.00799
1.00746
1.00693
1.0064
1.00605
1.00574
1.00605
1.00648
1.00861
1.00905
1.00927
1.00931
1.00918
1.00891
1.00852
1.00805
1.00752
1.00699
1.00647
1.00612
1.00582
1.0061
1.0065
1.00865
1.00909
1.00931
1.00935
1.00923
1.00896
1.00858
1.00811
1.00758
1.00706
1.00653
1.00619
1.00589
1.00615
1.00652
1.00869
1.00913
1.00936
1.0094
1.00928
1.00902
1.00863
1.00817
1.00764
1.00712
1.0066
1.00625
1.00596
1.00619
1.00654
1.00873
1.00917
1.0094
1.00946
1.00934
1.00908
1.00869
1.00823
1.0077
1.00718
1.00666
1.00631
1.00602
1.00622
1.00655
1.00877
1.00922
1.00945
1.00951
1.00939
1.00913
1.00875
1.00829
1.00776
1.00724
1.00672
1.00637
1.00608
1.00625
1.00655
1.00881
1.00926
1.0095
1.00956
1.00945
1.00919
1.00881
1.00835
1.00782
1.00729
1.00678
1.00642
1.00613
1.00628
1.00656
1.00886
1.00931
1.00955
1.00961
1.0095
1.00925
1.00887
1.0084
1.00787
1.00735
1.00683
1.00647
1.00618
1.00631
1.00656
1.0089
1.00936
1.0096
1.00966
1.00956
1.0093
1.00892
1.00846
1.00793
1.0074
1.00688
1.00652
1.00623
1.00634
1.00656
1.00895
1.00941
1.00965
1.00972
1.00961
1.00936
1.00898
1.00851
1.00798
1.00745
1.00693
1.00657
1.00628
1.00636
1.00657
1.009
1.00946
1.00971
1.00977
1.00967
1.00941
1.00903
1.00856
1.00803
1.0075
1.00699
1.00661
1.00632
1.00638
1.00656
1.00905
1.00951
1.00976
1.00983
1.00973
1.00947
1.00909
1.00862
1.00809
1.00756
1.00704
1.00666
1.00636
1.00641
1.00656
1.0091
1.00957
1.00982
1.00989
1.00979
1.00953
1.00915
1.00868
1.00814
1.00761
1.00709
1.00671
1.0064
1.00643
1.00656
1.00915
1.00963
1.00988
1.00995
1.00985
1.00959
1.00921
1.00874
1.0082
1.00766
1.00714
1.00675
1.00644
1.00644
1.00656
1.00921
1.00969
1.00994
1.01002
1.00991
1.00966
1.00927
1.0088
1.00826
1.00772
1.00719
1.00679
1.00648
1.00646
1.00655
1.00927
1.00975
1.01001
1.01008
1.00998
1.00972
1.00934
1.00886
1.00832
1.00777
1.00724
1.00684
1.00652
1.00648
1.00654
1.00932
1.00981
1.01007
1.01015
1.01005
1.00979
1.0094
1.00892
1.00838
1.00783
1.00729
1.00688
1.00655
1.00649
1.00653
1.00938
1.00987
1.01014
1.01022
1.01012
1.00986
1.00947
1.00899
1.00844
1.00788
1.00734
1.00692
1.00658
1.0065
1.00652
1.00945
1.00994
1.01021
1.01029
1.01019
1.00994
1.00954
1.00905
1.0085
1.00794
1.00739
1.00696
1.00661
1.00651
1.00651
1.00951
1.01001
1.01028
1.01037
1.01027
1.01001
1.00961
1.00912
1.00856
1.00799
1.00743
1.00699
1.00663
1.00652
1.0065
1.00958
1.01007
1.01035
1.01044
1.01034
1.01008
1.00968
1.00918
1.00862
1.00804
1.00748
1.00703
1.00666
1.00652
1.00649
1.00964
1.01015
1.01043
1.01051
1.01042
1.01015
1.00975
1.00925
1.00867
1.00809
1.00752
1.00706
1.00668
1.00652
1.00647
1.00971
1.01022
1.0105
1.01059
1.01049
1.01023
1.00982
1.00931
1.00873
1.00814
1.00756
1.00709
1.0067
1.00653
1.00646
1.00978
1.01029
1.01058
1.01066
1.01057
1.0103
1.00989
1.00937
1.00879
1.00819
1.0076
1.00711
1.00671
1.00653
1.00644
1.00986
1.01037
1.01065
1.01074
1.01064
1.01037
1.00996
1.00943
1.00884
1.00823
1.00764
1.00714
1.00673
1.00653
1.00642
1.00993
1.01044
1.01073
1.01082
1.01072
1.01044
1.01002
1.0095
1.0089
1.00828
1.00768
1.00717
1.00675
1.00653
1.0064
1.01001
1.01052
1.01081
1.0109
1.0108
1.01052
1.0101
1.00956
1.00895
1.00833
1.00771
1.0072
1.00676
1.00652
1.00639
1.01008
1.0106
1.0109
1.01099
1.01088
1.0106
1.01017
1.00963
1.00901
1.00838
1.00775
1.00722
1.00677
1.00652
1.00637
1.01016
1.01069
1.01098
1.01107
1.01097
1.01068
1.01025
1.0097
1.00907
1.00843
1.00779
1.00725
1.00679
1.00651
1.00634
1.01024
1.01077
1.01107
1.01116
1.01105
1.01076
1.01032
1.00977
1.00913
1.00848
1.00783
1.00727
1.0068
1.00651
1.00632
1.01033
1.01086
1.01116
1.01125
1.01115
1.01085
1.0104
1.00984
1.0092
1.00853
1.00787
1.0073
1.0068
1.0065
1.0063
1.01041
1.01095
1.01125
1.01135
1.01124
1.01094
1.01049
1.00991
1.00926
1.00858
1.0079
1.00732
1.00681
1.00649
1.00627
1.0105
1.01104
1.01135
1.01144
1.01133
1.01103
1.01057
1.00998
1.00932
1.00863
1.00794
1.00734
1.00681
1.00647
1.00624
1.01059
1.01113
1.01144
1.01153
1.01142
1.01112
1.01065
1.01006
1.00938
1.00867
1.00797
1.00735
1.00682
1.00646
1.00621
1.01068
1.01122
1.01154
1.01163
1.01152
1.0112
1.01073
1.01013
1.00944
1.00872
1.008
1.00737
1.00682
1.00644
1.00618
1.01077
1.01132
1.01163
1.01173
1.01161
1.01129
1.01081
1.0102
1.00949
1.00876
1.00803
1.00738
1.00681
1.00643
1.00615
1.01086
1.01142
1.01173
1.01182
1.0117
1.01138
1.01089
1.01026
1.00955
1.0088
1.00806
1.00739
1.00681
1.00641
1.00612
1.01096
1.01151
1.01183
1.01192
1.0118
1.01147
1.01097
1.01033
1.00961
1.00884
1.00809
1.0074
1.00681
1.00639
1.00608
1.01106
1.01162
1.01194
1.01203
1.0119
1.01156
1.01105
1.0104
1.00966
1.00889
1.00811
1.00742
1.0068
1.00637
1.00605
1.01116
1.01172
1.01204
1.01213
1.012
1.01165
1.01113
1.01047
1.00972
1.00893
1.00814
1.00743
1.0068
1.00634
1.00601
1.01126
1.01183
1.01215
1.01224
1.0121
1.01175
1.01122
1.01055
1.00978
1.00897
1.00817
1.00744
1.00679
1.00632
1.00597
1.01136
1.01194
1.01226
1.01235
1.0122
1.01184
1.01131
1.01062
1.00984
1.00902
1.0082
1.00745
1.00678
1.0063
1.00593
1.01147
1.01205
1.01237
1.01246
1.01231
1.01195
1.0114
1.0107
1.0099
1.00906
1.00822
1.00746
1.00678
1.00627
1.00589
1.01158
1.01216
1.01249
1.01257
1.01242
1.01205
1.01149
1.01078
1.00997
1.00911
1.00825
1.00747
1.00677
1.00624
1.00585
1.01169
1.01228
1.01261
1.01269
1.01254
1.01216
1.01159
1.01086
1.01003
1.00916
1.00828
1.00748
1.00676
1.00621
1.00581
1.0118
1.01239
1.01273
1.01281
1.01265
1.01227
1.01168
1.01095
1.0101
1.00921
1.00831
1.00748
1.00674
1.00618
1.00576
1.01191
1.01251
1.01285
1.01293
1.01277
1.01238
1.01178
1.01103
1.01017
1.00925
1.00833
1.00749
1.00672
1.00614
1.00571
1.01203
1.01263
1.01297
1.01306
1.01289
1.01249
1.01188
1.01112
1.01023
1.0093
1.00836
1.00749
1.00671
1.00611
1.00566
1.01215
1.01276
1.0131
1.01318
1.01301
1.0126
1.01198
1.0112
1.0103
1.00934
1.00838
1.00748
1.00668
1.00607
1.0056
1.01227
1.01288
1.01323
1.01331
1.01313
1.01271
1.01208
1.01128
1.01036
1.00938
1.00839
1.00748
1.00666
1.00602
1.00555
1.01239
1.01301
1.01336
1.01344
1.01325
1.01282
1.01218
1.01136
1.01042
1.00942
1.00841
1.00747
1.00663
1.00598
1.00549
1.01252
1.01314
1.01349
1.01356
1.01338
1.01293
1.01227
1.01144
1.01047
1.00945
1.00842
1.00747
1.0066
1.00593
1.00543
1.01264
1.01327
1.01362
1.01369
1.0135
1.01304
1.01237
1.01151
1.01053
1.00949
1.00844
1.00746
1.00658
1.00589
1.00537
1.01277
1.01341
1.01375
1.01383
1.01362
1.01316
1.01247
1.01159
1.01059
1.00952
1.00845
1.00745
1.00655
1.00584
1.00531
1.0129
1.01355
1.01389
1.01396
1.01375
1.01327
1.01257
1.01167
1.01065
1.00956
1.00847
1.00744
1.00652
1.00579
1.00524
1.01304
1.01369
1.01403
1.0141
1.01388
1.01339
1.01267
1.01176
1.01071
1.0096
1.00848
1.00743
1.00649
1.00574
1.00518
1.01318
1.01383
1.01418
1.01424
1.01401
1.01351
1.01278
1.01185
1.01078
1.00964
1.0085
1.00743
1.00646
1.00569
1.00511
1.01332
1.01398
1.01433
1.01439
1.01415
1.01364
1.01289
1.01194
1.01085
1.00969
1.00852
1.00742
1.00642
1.00563
1.00504
1.01346
1.01413
1.01448
1.01454
1.0143
1.01377
1.013
1.01203
1.01092
1.00973
1.00853
1.00741
1.00639
1.00558
1.00496
1.01361
1.01428
1.01463
1.01469
1.01444
1.01391
1.01312
1.01213
1.01099
1.00977
1.00855
1.00739
1.00635
1.00552
1.00488
1.01375
1.01444
1.01479
1.01484
1.01459
1.01404
1.01324
1.01222
1.01106
1.00981
1.00856
1.00738
1.00631
1.00545
1.00481
1.0139
1.0146
1.01495
1.015
1.01474
1.01418
1.01336
1.01232
1.01112
1.00985
1.00857
1.00736
1.00627
1.00539
1.00472
1.01406
1.01476
1.01511
1.01516
1.01489
1.01432
1.01347
1.01241
1.01119
1.00989
1.00858
1.00734
1.00622
1.00532
1.00464
1.01421
1.01492
1.01528
1.01533
1.01505
1.01446
1.01359
1.01251
1.01126
1.00993
1.00859
1.00732
1.00617
1.00525
1.00455
1.01437
1.01509
1.01545
1.01549
1.0152
1.0146
1.01372
1.0126
1.01133
1.00997
1.0086
1.0073
1.00613
1.00518
1.00446
1.01454
1.01526
1.01562
1.01566
1.01536
1.01474
1.01384
1.0127
1.0114
1.01001
1.0086
1.00728
1.00608
1.00511
1.00437
1.0147
1.01543
1.01579
1.01583
1.01552
1.01489
1.01397
1.0128
1.01147
1.01005
1.00861
1.00726
1.00603
1.00503
1.00428
1.01487
1.01561
1.01597
1.01601
1.01569
1.01504
1.0141
1.01291
1.01154
1.01009
1.00862
1.00723
1.00597
1.00495
1.00418
1.01504
1.01579
1.01615
1.01619
1.01586
1.0152
1.01423
1.01301
1.01162
1.01013
1.00863
1.0072
1.00592
1.00487
1.00407
1.01521
1.01597
1.01633
1.01637
1.01603
1.01535
1.01436
1.01312
1.01169
1.01017
1.00863
1.00717
1.00585
1.00478
1.00397
1.01539
1.01616
1.01652
1.01655
1.0162
1.01551
1.0145
1.01322
1.01177
1.01021
1.00863
1.00714
1.00579
1.00469
1.00386
1.01557
1.01635
1.01671
1.01674
1.01638
1.01567
1.01463
1.01333
1.01184
1.01024
1.00863
1.0071
1.00572
1.0046
1.00374
1.01575
1.01654
1.0169
1.01693
1.01656
1.01583
1.01477
1.01343
1.0119
1.01027
1.00862
1.00706
1.00565
1.0045
1.00363
1.01594
1.01673
1.01709
1.01712
1.01674
1.01599
1.0149
1.01354
1.01197
1.0103
1.00861
1.00701
1.00557
1.0044
1.00351
1.01613
1.01693
1.01729
1.01731
1.01692
1.01615
1.01504
1.01364
1.01204
1.01033
1.0086
1.00697
1.00549
1.0043
1.00339
1.01632
1.01713
1.01749
1.01751
1.0171
1.01631
1.01517
1.01374
1.0121
1.01035
1.00859
1.00692
1.00541
1.00419
1.00326
1.01652
1.01734
1.0177
1.01771
1.01729
1.01648
1.01531
1.01384
1.01216
1.01038
1.00857
1.00687
1.00533
1.00408
1.00314
1.01672
1.01755
1.01791
1.01791
1.01747
1.01664
1.01544
1.01394
1.01223
1.0104
1.00856
1.00682
1.00525
1.00398
1.00301
1.01693
1.01777
1.01812
1.01812
1.01767
1.01682
1.01559
1.01405
1.0123
1.01043
1.00855
1.00677
1.00517
1.00387
1.00287
1.01714
1.01799
1.01834
1.01833
1.01787
1.01699
1.01573
1.01416
1.01237
1.01046
1.00854
1.00673
1.00509
1.00375
1.00274
1.01735
1.01821
1.01857
1.01856
1.01807
1.01718
1.01589
1.01428
1.01245
1.0105
1.00854
1.00668
1.00501
1.00364
1.0026
1.01757
1.01844
1.0188
1.01878
1.01829
1.01737
1.01605
1.01441
1.01253
1.01054
1.00853
1.00663
1.00492
1.00352
1.00246
1.01779
1.01867
1.01903
1.01901
1.01851
1.01756
1.01622
1.01454
1.01262
1.01058
1.00853
1.00659
1.00483
1.0034
1.00231
1.01801
1.01891
1.01928
1.01925
1.01873
1.01777
1.01639
1.01467
1.01271
1.01062
1.00852
1.00653
1.00474
1.00327
1.00215
1.01824
1.01915
1.01952
1.01949
1.01896
1.01798
1.01656
1.01481
1.0128
1.01066
1.00851
1.00648
1.00464
1.00314
1.002
1.01848
1.0194
1.01977
1.01974
1.01919
1.01819
1.01674
1.01494
1.01289
1.0107
1.0085
1.00642
1.00454
1.003
1.00183
1.01872
1.01965
1.02002
1.01999
1.01943
1.0184
1.01692
1.01508
1.01298
1.01074
1.00848
1.00635
1.00443
1.00286
1.00166
1.01896
1.01991
1.02028
1.02025
1.01967
1.01862
1.0171
1.01522
1.01306
1.01077
1.00846
1.00628
1.00432
1.00271
1.00149
1.01921
1.02017
1.02054
1.02051
1.01992
1.01884
1.01728
1.01535
1.01315
1.0108
1.00844
1.00621
1.0042
1.00256
1.00131
1.01946
1.02043
1.02081
1.02077
1.02016
1.01905
1.01746
1.01549
1.01322
1.01082
1.0084
1.00612
1.00408
1.0024
1.00113
1.01971
1.0207
1.02108
1.02103
1.02041
1.01927
1.01764
1.01562
1.0133
1.01084
1.00837
1.00604
1.00395
1.00224
1.00094
1.01997
1.02097
1.02135
1.0213
1.02066
1.01949
1.01782
1.01575
1.01338
1.01086
1.00833
1.00595
1.00382
1.00207
1.00074
1.02024
1.02125
1.02163
1.02157
1.02091
1.01972
1.01801
1.01588
1.01345
1.01087
1.00829
1.00586
1.00368
1.0019
1.00055
1.02051
1.02153
1.02192
1.02185
1.02117
1.01994
1.01819
1.01601
1.01352
1.01089
1.00825
1.00576
1.00354
1.00173
1.00034
1.02079
1.02182
1.02221
1.02213
1.02143
1.02017
1.01837
1.01614
1.0136
1.0109
1.0082
1.00567
1.0034
1.00155
1.00014
1.02107
1.02212
1.0225
1.02242
1.0217
1.02041
1.01856
1.01627
1.01367
1.01091
1.00816
1.00557
1.00325
1.00136
0.999927
1.02136
1.02242
1.02281
1.02272
1.02197
1.02065
1.01876
1.01641
1.01375
1.01093
1.00811
1.00546
1.00311
1.00118
0.999712
1.02165
1.02273
1.02311
1.02302
1.02225
1.02089
1.01896
1.01656
1.01383
1.01094
1.00806
1.00536
1.00295
1.00099
0.99949
1.02195
1.02304
1.02343
1.02333
1.02254
1.02115
1.01916
1.0167
1.01391
1.01096
1.00802
1.00526
1.0028
1.00079
0.999264
1.02225
1.02336
1.02375
1.02364
1.02284
1.02141
1.01937
1.01685
1.01399
1.01097
1.00797
1.00515
1.00264
1.00059
0.999031
1.02256
1.02369
1.02408
1.02397
1.02314
1.02167
1.01959
1.01701
1.01408
1.01099
1.00791
1.00503
1.00247
1.00038
0.998793
1.02288
1.02402
1.02442
1.0243
1.02345
1.02194
1.01981
1.01716
1.01417
1.011
1.00786
1.00492
1.0023
1.00017
0.998548
1.0232
1.02436
1.02476
1.02463
1.02376
1.02222
1.02003
1.01732
1.01425
1.01102
1.0078
1.0048
1.00213
0.999951
0.998297
1.02353
1.0247
1.02511
1.02498
1.02408
1.0225
1.02026
1.01748
1.01434
1.01103
1.00774
1.00467
1.00194
0.999725
0.998039
1.02386
1.02506
1.02547
1.02533
1.02441
1.02279
1.02049
1.01765
1.01443
1.01104
1.00767
1.00454
1.00176
0.999493
0.997775
1.0242
1.02542
1.02583
1.02568
1.02474
1.02308
1.02072
1.01781
1.01451
1.01104
1.0076
1.0044
1.00156
0.999254
0.997503
1.02455
1.02578
1.0262
1.02605
1.02508
1.02338
1.02096
1.01797
1.0146
1.01104
1.00753
1.00425
1.00136
0.999009
0.997225
1.02491
1.02615
1.02658
1.02642
1.02543
1.02368
1.0212
1.01814
1.01468
1.01104
1.00745
1.0041
1.00115
0.998756
0.996939
1.02527
1.02653
1.02696
1.0268
1.02578
1.02399
1.02145
1.01831
1.01476
1.01104
1.00736
1.00395
1.00094
0.998497
0.996646
1.02564
1.02692
1.02736
1.02718
1.02614
1.0243
1.02169
1.01847
1.01484
1.01103
1.00727
1.00379
1.00072
0.998229
0.996346
1.02601
1.02732
1.02776
1.02757
1.0265
1.02461
1.02194
1.01864
1.01492
1.01102
1.00718
1.00362
1.00049
0.997956
0.996039
1.02639
1.02772
1.02817
1.02797
1.02687
1.02493
1.02219
1.01881
1.01499
1.011
1.00708
1.00344
1.00025
0.997674
0.995724
1.02678
1.02813
1.02858
1.02838
1.02725
1.02526
1.02245
1.01898
1.01507
1.01099
1.00697
1.00326
1.00001
0.997386
0.995402
1.02718
1.02855
1.02901
1.0288
1.02764
1.02559
1.02271
1.01915
1.01514
1.01096
1.00686
1.00308
0.999764
0.997089
0.995072
1.02759
1.02898
1.02944
1.02922
1.02803
1.02593
1.02297
1.01932
1.01522
1.01094
1.00675
1.00288
0.999508
0.996786
0.994734
1.028
1.02942
1.02989
1.02966
1.02843
1.02628
1.02324
1.01949
1.01529
1.01091
1.00663
1.00268
0.999244
0.996474
0.994388
1.02842
1.02986
1.03034
1.0301
1.02884
1.02663
1.02351
1.01967
1.01536
1.01088
1.0065
1.00248
0.998973
0.996154
0.994034
1.02886
1.03032
1.0308
1.03055
1.02926
1.02699
1.02379
1.01984
1.01543
1.01084
1.00637
1.00226
0.998693
0.995825
0.993671
1.0293
1.03079
1.03127
1.03102
1.02969
1.02736
1.02407
1.02002
1.01549
1.0108
1.00623
1.00204
0.998405
0.995488
0.9933
1.02974
1.03126
1.03176
1.03149
1.03012
1.02773
1.02435
1.0202
1.01556
1.01075
1.00608
1.00181
0.998108
0.995142
0.992919
1.0302
1.03174
1.03225
1.03197
1.03057
1.02811
1.02464
1.02038
1.01562
1.0107
1.00593
1.00157
0.997803
0.994787
0.99253
1.03067
1.03224
1.03275
1.03246
1.03102
1.0285
1.02493
1.02056
1.01568
1.01065
1.00577
1.00133
0.997488
0.994422
0.992131
1.03115
1.03274
1.03327
1.03297
1.03149
1.02889
1.02523
1.02074
1.01574
1.01059
1.0056
1.00107
0.997165
0.994048
0.991723
1.03163
1.03326
1.03379
1.03348
1.03196
1.02929
1.02553
1.02092
1.01579
1.01052
1.00543
1.00081
0.99683
0.993664
0.991305
1.03213
1.03379
1.03433
1.03401
1.03244
1.0297
1.02583
1.0211
1.01585
1.01045
1.00525
1.00053
0.996487
0.99327
0.990878
1.03263
1.03432
1.03488
1.03454
1.03294
1.03012
1.02614
1.02128
1.01589
1.01037
1.00505
1.00025
0.996132
0.992865
0.990439
1.03315
1.03487
1.03544
1.03509
1.03344
1.03054
1.02646
1.02146
1.01594
1.01028
1.00485
0.999955
0.995768
0.99245
0.989992
1.03368
1.03543
1.03601
1.03565
1.03395
1.03097
1.02677
1.02164
1.01597
1.01018
1.00464
0.99965
0.995392
0.992024
0.989533
1.03422
1.03601
1.03659
1.03622
1.03448
1.03141
1.02709
1.02182
1.01601
1.01008
1.00442
0.999335
0.995005
0.991587
0.989064
1.03477
1.03659
1.03719
1.03681
1.03501
1.03185
1.02741
1.022
1.01604
1.00997
1.00419
0.999008
0.994606
0.991138
0.988583
1.03533
1.03719
1.0378
1.03741
1.03556
1.03231
1.02774
1.02218
1.01606
1.00985
1.00395
0.99867
0.994196
0.990679
0.988093
1.03591
1.0378
1.03842
1.03802
1.03612
1.03277
1.02807
1.02235
1.01608
1.00972
1.0037
0.998319
0.993773
0.990206
0.987589
1.03649
1.03843
1.03906
1.03864
1.03668
1.03324
1.0284
1.02252
1.01609
1.00959
1.00343
0.997956
0.993338
0.989722
0.987076
1.03709
1.03907
1.03972
1.03928
1.03726
1.03371
1.02873
1.02269
1.01609
1.00944
1.00316
0.99758
0.992889
0.989225
0.98655
1.0377
1.03972
1.04038
1.03993
1.03786
1.0342
1.02907
1.02286
1.01609
1.00928
1.00287
0.997191
0.992428
0.988716
0.986013
1.03833
1.04039
1.04107
1.0406
1.03846
1.03469
1.02941
1.02303
1.01608
1.00911
1.00257
0.996788
0.991952
0.988193
0.985462
1.03897
1.04107
1.04177
1.04129
1.03908
1.03519
1.02975
1.02319
1.01606
1.00893
1.00225
0.996372
0.991464
0.987658
0.9849
1.03962
1.04177
1.04248
1.04198
1.03971
1.0357
1.0301
1.02335
1.01603
1.00873
1.00192
0.99594
0.99096
0.987108
0.984325
1.04029
1.04248
1.04321
1.0427
1.04036
1.03622
1.03044
1.0235
1.01599
1.00853
1.00158
0.995493
0.990442
0.986545
0.983737
1.04097
1.04322
1.04396
1.04343
1.04101
1.03675
1.03079
1.02365
1.01595
1.00831
1.00122
0.995031
0.989909
0.985966
0.983136
1.04167
1.04396
1.04473
1.04418
1.04168
1.03728
1.03114
1.02379
1.01589
1.00807
1.00085
0.994553
0.98936
0.985375
0.982522
1.04238
1.04473
1.04552
1.04494
1.04237
1.03782
1.03149
1.02393
1.01582
1.00782
1.00045
0.994057
0.988795
0.984767
0.981893
1.04311
1.04551
1.04632
1.04573
1.04307
1.03837
1.03184
1.02405
1.01573
1.00756
1.00005
0.993546
0.988214
0.984145
0.981252
1.04385
1.04631
1.04714
1.04653
1.04378
1.03893
1.03219
1.02418
1.01564
1.00727
0.99962
0.993015
0.987616
0.983507
0.980596
1.04462
1.04713
1.04799
1.04735
1.04451
1.0395
1.03254
1.02429
1.01553
1.00698
0.999175
0.992467
0.987001
0.982854
0.979926
1.0454
1.04797
1.04885
1.04819
1.04526
1.04007
1.03289
1.02439
1.0154
1.00666
0.998711
0.9919
0.986367
0.982183
0.979241
1.0462
1.04883
1.04974
1.04905
1.04602
1.04065
1.03324
1.02449
1.01526
1.00632
0.998227
0.991314
0.985717
0.981498
0.978542
1.04701
1.04972
1.05064
1.04993
1.04679
1.04124
1.03358
1.02457
1.0151
1.00597
0.997722
0.990707
0.985047
0.980794
0.977827
1.04785
1.05062
1.05157
1.05084
1.04758
1.04184
1.03392
1.02464
1.01493
1.00559
0.997196
0.99008
0.984359
0.980075
0.977098
1.04871
1.05154
1.05253
1.05176
1.04839
1.04244
1.03426
1.0247
1.01473
1.00519
0.996646
0.989431
0.98365
0.979337
0.976352
1.04958
1.05249
1.0535
1.05271
1.04922
1.04305
1.03459
1.02474
1.01452
1.00477
0.996075
0.988761
0.982923
0.978582
0.975592
1.05048
1.05346
1.05451
1.05368
1.05006
1.04366
1.03492
1.02477
1.01428
1.00432
0.995478
0.988068
0.982175
0.977809
0.974815
1.0514
1.05446
1.05554
1.05467
1.05091
1.04428
1.03524
1.02478
1.01402
1.00385
0.994858
0.987352
0.981406
0.977018
0.974023
1.05234
1.05548
1.05659
1.05569
1.05179
1.04491
1.03555
1.02477
1.01373
1.00335
0.99421
0.986612
0.980616
0.976208
0.973213
1.05331
1.05653
1.05768
1.05674
1.05268
1.04553
1.03585
1.02475
1.01342
1.00282
0.993537
0.985848
0.979804
0.975379
0.972389
1.0543
1.05761
1.05879
1.05781
1.05359
1.04617
1.03614
1.0247
1.01309
1.00227
0.992836
0.985058
0.97897
0.974531
0.971546
1.05531
1.05871
1.05993
1.05891
1.05451
1.0468
1.03642
1.02462
1.01272
1.00169
0.992106
0.984243
0.978114
0.973664
0.970688
1.05635
1.05984
1.0611
1.06003
1.05545
1.04743
1.03668
1.02453
1.01232
1.00107
0.991346
0.983401
0.977234
0.972776
0.969812
1.05742
1.06101
1.06231
1.06118
1.05641
1.04807
1.03693
1.0244
1.0119
1.00042
0.990557
0.982532
0.976332
0.971869
0.96892
1.05851
1.0622
1.06354
1.06237
1.05739
1.04871
1.03716
1.02425
1.01143
0.999738
0.989735
0.981635
0.975405
0.970941
0.968009
1.05963
1.06343
1.06482
1.06358
1.05838
1.04934
1.03737
1.02407
1.01093
0.99902
0.988881
0.980711
0.974454
0.969993
0.967082
1.06078
1.06469
1.06613
1.06482
1.05939
1.04997
1.03756
1.02385
1.0104
0.998264
0.987993
0.979756
0.973478
0.969024
0.966136
1.06197
1.06598
1.06747
1.0661
1.06041
1.05059
1.03773
1.0236
1.00982
0.997471
0.987072
0.978773
0.972478
0.968035
0.965174
1.06318
1.06731
1.06885
1.0674
1.06145
1.05121
1.03787
1.02331
1.00921
0.996637
0.986114
0.977759
0.971452
0.967023
0.964193
1.06442
1.06868
1.07028
1.06874
1.06251
1.05182
1.03798
1.02298
1.00854
0.995762
0.98512
0.976714
0.970401
0.965991
0.963195
1.0657
1.07009
1.07174
1.07011
1.06358
1.05241
1.03805
1.0226
1.00784
0.994844
0.984089
0.975637
0.969322
0.964937
0.962177
1.06702
1.07154
1.07325
1.07152
1.06466
1.05299
1.03809
1.02218
1.00708
0.993882
0.983019
0.974529
0.968219
0.963861
0.961143
1.06837
1.07303
1.0748
1.07296
1.06575
1.05356
1.03809
1.02171
1.00627
0.992873
0.98191
0.973388
0.967088
0.962763
0.960089
1.06975
1.07456
1.0764
1.07444
1.06685
1.0541
1.03805
1.02118
1.00542
0.991817
0.98076
0.972214
0.96593
0.961644
0.959018
1.07118
1.07614
1.07805
1.07596
1.06796
1.05462
1.03796
1.0206
1.0045
0.990712
0.979569
0.971006
0.964745
0.960501
0.957927
1.07265
1.07777
1.07975
1.07751
1.06907
1.05511
1.03782
1.01996
1.00353
0.989556
0.978337
0.969764
0.963533
0.959337
0.95682
1.07415
1.07945
1.0815
1.0791
1.07019
1.05557
1.03763
1.01925
1.0025
0.988348
0.977061
0.968487
0.962292
0.95815
0.955692
1.07571
1.08118
1.08331
1.08072
1.07131
1.05599
1.03737
1.01848
1.0014
0.987086
0.975742
0.967176
0.961024
0.956941
0.954548
1.0773
1.08297
1.08517
1.08238
1.07243
1.05637
1.03705
1.01764
1.00024
0.985769
0.974377
0.965829
0.959728
0.955709
0.953384
1.07895
1.08482
1.08709
1.08408
1.07354
1.05671
1.03666
1.01672
0.99901
0.984396
0.972968
0.964447
0.958404
0.954455
0.952202
1.08064
1.08672
1.08907
1.08581
1.07464
1.05699
1.03619
1.01572
0.99771
0.982964
0.971513
0.963029
0.957052
0.953178
0.951002
1.08239
1.08869
1.09112
1.08758
1.07573
1.05721
1.03564
1.01464
0.996338
0.981474
0.970012
0.961575
0.955671
0.95188
0.949784
1.08419
1.09073
1.09323
1.08938
1.0768
1.05736
1.035
1.01347
0.994891
0.979923
0.968463
0.960084
0.954262
0.950558
0.948546
1.08604
1.09283
1.09541
1.09122
1.07784
1.05744
1.03426
1.01221
0.993366
0.978311
0.966867
0.958557
0.952826
0.949214
0.947292
1.08796
1.09501
1.09767
1.09309
1.07885
1.05744
1.03343
1.01085
0.991761
0.976636
0.965223
0.956993
0.95136
0.947848
0.946018
1.08993
1.09727
1.09999
1.09498
1.07982
1.05735
1.03248
1.0094
0.990075
0.974897
0.963531
0.955394
0.949867
0.94646
0.944728
1.09197
1.09961
1.1024
1.09689
1.08074
1.05715
1.03142
1.00784
0.988305
0.973095
0.961791
0.953758
0.948346
0.94505
0.943419
1.09407
1.10203
1.10488
1.09883
1.0816
1.05684
1.03024
1.00617
0.986448
0.971227
0.960003
0.952086
0.946798
0.943619
0.942094
1.09625
1.10455
1.10744
1.10078
1.08239
1.05641
1.02892
1.00439
0.984505
0.969294
0.958166
0.950377
0.945222
0.942166
0.94075
1.0985
1.10716
1.11008
1.10274
1.08311
1.05585
1.02747
1.00249
0.982472
0.967296
0.956282
0.948634
0.943619
0.940692
0.93939
1.10082
1.10988
1.1128
1.1047
1.08373
1.05515
1.02587
1.00047
0.980349
0.965231
0.954349
0.946855
0.94199
0.939197
0.938013
1.10323
1.1127
1.11561
1.10666
1.08424
1.05428
1.02412
0.998332
0.978135
0.963101
0.952369
0.945041
0.940334
0.937682
0.93662
1.10572
1.11564
1.1185
1.10859
1.08463
1.05325
1.0222
0.996065
0.975829
0.960905
0.950342
0.943193
0.938653
0.936146
0.93521
1.1083
1.1187
1.12148
1.1105
1.08488
1.05202
1.02012
0.99367
0.97343
0.958644
0.948269
0.941313
0.936947
0.934592
0.933786
1.11098
1.12189
1.12454
1.11237
1.08498
1.0506
1.01787
0.991143
0.970939
0.956318
0.946151
0.939398
0.935215
0.933018
0.932345
1.11376
1.12522
1.12768
1.11418
1.08489
1.04897
1.01543
0.988484
0.968356
0.953928
0.943988
0.937453
0.933461
0.931425
0.930889
1.11665
1.12869
1.13089
1.11591
1.08461
1.04711
1.0128
0.98569
0.965681
0.951476
0.941782
0.935476
0.931683
0.929814
0.929419
1.11965
1.13231
1.13418
1.11755
1.08411
1.045
1.00998
0.982763
0.962916
0.948963
0.939535
0.93347
0.929883
0.928186
0.927935
1.12278
1.13609
1.13753
1.11907
1.08336
1.04264
1.00696
0.979701
0.960062
0.94639
0.937247
0.931434
0.928061
0.926541
0.926436
1.12603
1.14005
1.14093
1.12044
1.08234
1.04001
1.00373
0.976505
0.957121
0.94376
0.93492
0.929371
0.926218
0.92488
0.924925
1.12943
1.14418
1.14437
1.12164
1.08101
1.03709
1.00031
0.973178
0.954095
0.941075
0.932556
0.927282
0.924356
0.923203
0.9234
1.13298
1.14849
1.14784
1.12264
1.07937
1.03387
0.996673
0.969722
0.950987
0.938336
0.930158
0.925168
0.922476
0.921512
0.921864
1.13669
1.153
1.15132
1.12339
1.07736
1.03034
0.992833
0.966139
0.947801
0.935548
0.927725
0.923031
0.920578
0.919806
0.920315
1.14058
1.15771
1.15478
1.12387
1.07497
1.02649
0.988789
0.962435
0.944539
0.932712
0.925263
0.920872
0.918663
0.918087
0.918755
1.14466
1.16262
1.1582
1.12402
1.07216
1.02231
0.984544
0.958614
0.941207
0.929832
0.922771
0.918693
0.916734
0.916356
0.917184
1.14894
1.16774
1.16155
1.1238
1.06891
1.0178
0.980102
0.954683
0.937809
0.926912
0.920254
0.916496
0.91479
0.914614
0.915604
1.15346
1.17307
1.16477
1.12315
1.06517
1.01294
0.975472
0.950648
0.93435
0.923955
0.917714
0.914282
0.912834
0.91286
0.914013
1.15822
1.17862
1.16784
1.12203
1.06094
1.00775
0.970661
0.946517
0.930835
0.920965
0.915152
0.912054
0.910867
0.911097
0.912414
1.16325
1.18436
1.17069
1.12038
1.05617
1.00222
0.965681
0.942298
0.92727
0.917945
0.912573
0.909813
0.908889
0.909326
0.910805
1.16858
1.1903
1.17327
1.11814
1.05086
0.996365
0.960546
0.938001
0.923661
0.914902
0.909979
0.907562
0.906904
0.907547
0.909189
1.17424
1.19642
1.1755
1.11523
1.04497
0.990192
0.95527
0.933634
0.920015
0.911838
0.907373
0.905301
0.904911
0.90576
0.907565
1.18025
1.20269
1.17731
1.11161
1.03849
0.983718
0.94987
0.929209
0.916337
0.908758
0.904758
0.903035
0.902913
0.903968
0.905935
1.18665
1.20908
1.17862
1.10721
1.03143
0.976966
0.944364
0.924736
0.912635
0.905668
0.902137
0.900765
0.900911
0.902172
0.904297
1.19349
1.21555
1.17932
1.10196
1.02377
0.969962
0.938773
0.920225
0.908915
0.902571
0.899514
0.898493
0.898907
0.900371
0.902654
1.20079
1.22205
1.17931
1.0958
1.01553
0.962738
0.933118
0.915688
0.905185
0.899473
0.896892
0.896221
0.896902
0.898568
0.901006
1.20861
1.22849
1.17847
1.08868
1.00672
0.955331
0.927419
0.911135
0.901452
0.896379
0.894274
0.893953
0.894898
0.896762
0.899352
1.21699
1.23481
1.17668
1.08054
0.997382
0.947783
0.921697
0.906577
0.897722
0.893294
0.891663
0.89169
0.892896
0.894956
0.897695
1.22598
1.24089
1.1738
1.07136
0.987555
0.94014
0.915976
0.902024
0.894004
0.890222
0.889063
0.889435
0.890899
0.89315
0.896033
1.23561
1.2466
1.1697
1.0611
0.977297
0.932448
0.910273
0.897486
0.890305
0.887168
0.886478
0.887191
0.888907
0.891345
0.894369
1.24595
1.2518
1.16422
1.04975
0.966681
0.924758
0.904609
0.892975
0.886632
0.884139
0.883912
0.88496
0.886924
0.889542
0.892702
1.25701
1.25629
1.15722
1.03733
0.955791
0.91712
0.899
0.888498
0.882992
0.881139
0.881368
0.882744
0.884949
0.887741
0.891033
1.26885
1.25988
1.14855
1.02388
0.944727
0.909582
0.893462
0.884065
0.879393
0.878174
0.87885
0.880548
0.882984
0.885945
0.889364
1.28146
1.26231
1.13807
1.00946
0.933602
0.902187
0.888007
0.879686
0.875843
0.875249
0.876362
0.878372
0.881032
0.884153
0.887694
1.29485
1.26329
1.12564
0.994189
0.922532
0.894975
0.882645
0.875371
0.872351
0.872372
0.87391
0.876221
0.879094
0.882368
0.886026
1.30899
1.26248
1.11115
0.978205
0.911641
0.887975
0.877383
0.871126
0.868923
0.869546
0.871497
0.874097
0.877171
0.88059
0.884361
1.32378
1.25951
1.0945
0.961706
0.901048