1.45 	0 	0 	-0.00812016 	-0.00258514 	1.65401e-20
2.35 	0 	0 	0.0622512 	-0.00662291 	9.89438e-21
