1.45 	0 	0 	-0.302652
2.35 	0 	0 	-0.134496
