1.45 	0 	0 	-0.00159547 	-0.0031319 	3.97281e-21
2.35 	0 	0 	0.0858692 	-0.00748237 	2.29783e-21
