1.275 	2.15223e-18 	-2.76991e-20 	-0.0325356 	-0.000472435 	-2.05145e-22
1.825 	2.15223e-18 	-1.39322e-20 	-0.00695663 	-0.00310955 	1.80296e-21
2.375 	2.15223e-18 	-2.66896e-23 	0.139572 	-0.00410752 	-7.38464e-22
