1.275 	2.15223e-18 	-2.76991e-20 	-0.0327623 	-0.000491643 	-2.06038e-22
1.825 	2.15223e-18 	-1.39322e-20 	-0.00516625 	-0.00332396 	1.78159e-21
2.375 	2.15223e-18 	-2.66896e-23 	0.15167 	-0.00452099 	-7.21214e-22
