1.45 	0 	0 	-0.00438652 	-0.00283729 	3.95382e-21
2.35 	0 	0 	0.0729638 	-0.00699129 	2.43345e-21
