1.45 	0 	0 	-0.0072969 	-0.00261867 	3.86605e-21
2.35 	0 	0 	0.0635055 	-0.00670381 	2.3959e-21
