1.45 	0 	0 	-0.00819841 	-0.00256725 	3.77898e-21
2.35 	0 	0 	0.0613191 	-0.00662605 	2.27791e-21
