1.45 	0 	0 	-0.298187
2.35 	0 	0 	-0.132291
