1.275 	2.15223e-18 	-2.76991e-20 	-0.0344589 	-0.000434411 	-1.91107e-22
1.825 	2.15223e-18 	-1.39322e-20 	-0.00945604 	-0.00275438 	1.6887e-21
2.375 	2.15223e-18 	-2.66896e-23 	0.115334 	-0.00324103 	-7.04412e-22
