1.45 	0 	0 	-0.297722
2.35 	0 	0 	-0.131984
