1.45 	0 	0 	-0.00592713 	-0.00271843 	3.92508e-21
2.35 	0 	0 	0.0678395 	-0.0068187 	2.44444e-21
