1.275 	2.15223e-18 	-2.76991e-20 	-0.0344331 	-0.00043589 	-1.91953e-22
1.825 	2.15223e-18 	-1.39322e-20 	-0.00940978 	-0.00276298 	1.69979e-21
2.375 	2.15223e-18 	-2.66896e-23 	0.115462 	-0.00325425 	-7.09146e-22
