1.275 	2.15223e-18 	-2.76991e-20 	-0.0334302 	-0.000468205 	-2.00982e-22
1.825 	2.15223e-18 	-1.39322e-20 	-0.00772209 	-0.00285286 	1.80707e-21
2.375 	2.15223e-18 	-2.66896e-23 	0.120256 	-0.00339463 	-7.53658e-22
