1.45 	0 	0 	-0.00813522 	-0.00258589 	1.65342e-20
2.35 	0 	0 	0.0621202 	-0.00662786 	9.88732e-21
