/*--------------------------------*- C++ -*----------------------------------*\
  =========                 |
  \\      /  F ield         | OpenFOAM: The Open Source CFD Toolbox
   \\    /   O peration     | Website:  https://openfoam.org
    \\  /    A nd           | Version:  6.0
     \\/     M anipulation  |
\*---------------------------------------------------------------------------*/
FoamFile
{
    version     2.0;
    format      ascii;
    class       volVectorField;
    location    "15";
    object      U;
}
// * * * * * * * * * * * * * * * * * * * * * * * * * * * * * * * * * * * * * //

dimensions      [0 1 -1 0 0 0 0];

internalField   nonuniform List<vector> 
62000
(
(1 4.22378e-05 -1.77491e-20)
(0.999995 6.33523e-05 6.52259e-20)
(0.999984 8.23931e-05 -2.29827e-19)
(0.999966 9.77144e-05 -4.5429e-20)
(0.999943 0.00010722 -3.65533e-19)
(0.999913 0.000108875 1.13098e-19)
(0.999877 0.000100975 2.51067e-19)
(0.999837 8.23558e-05 3.7202e-19)
(0.999793 5.25665e-05 -6.47962e-19)
(0.999746 1.18855e-05 -3.62129e-19)
(0.999697 -3.8697e-05 -9.33449e-20)
(0.999646 -9.76342e-05 -1.40844e-19)
(0.999596 -0.000162972 4.77832e-20)
(0.999546 -0.000232576 3.59228e-19)
(0.999498 -0.000304343 8.15596e-19)
(0.999452 -0.000376402 -9.19386e-19)
(0.999408 -0.0004472 3.47339e-19)
(0.999367 -0.000515657 -7.35543e-19)
(0.999328 -0.000581115 3.93108e-21)
(0.999292 -0.000643326 3.32574e-19)
(0.999259 -0.000702381 -6.43389e-19)
(0.999228 -0.000758564 -2.81453e-19)
(0.999201 -0.000812314 4.43938e-19)
(0.999176 -0.000864074 -9.54515e-19)
(0.999153 -0.000914294 6.01808e-19)
(0.999133 -0.000963369 -6.67762e-19)
(0.999115 -0.00101169 6.11513e-19)
(0.999099 -0.00105967 -1.19743e-19)
(0.999084 -0.00110782 4.27697e-19)
(0.999069 -0.00115678 2.11813e-19)
(0.999054 -0.00120744 8.24855e-19)
(0.999037 -0.00126091 2.71592e-19)
(0.999019 -0.00131862 -8.15899e-20)
(0.998998 -0.00138223 -5.4217e-19)
(0.998974 -0.00145364 4.18376e-19)
(0.998947 -0.00153497 3.07735e-19)
(0.998916 -0.00162845 1.72665e-20)
(0.998882 -0.00173639 2.68159e-20)
(0.998844 -0.00186112 -6.45786e-19)
(0.998804 -0.00200494 -6.64131e-20)
(0.998761 -0.00217008 -2.17407e-19)
(0.998718 -0.00235873 -1.89129e-19)
(0.998674 -0.00257305 4.11764e-19)
(0.998631 -0.00281527 -2.74319e-19)
(0.99859 -0.00308772 -1.73741e-19)
(0.998552 -0.00339308 1.24102e-19)
(0.998518 -0.00373449 2.19787e-19)
(0.998488 -0.00411593 -2.25567e-20)
(0.998463 -0.00454247 7.68983e-20)
(0.998444 -0.00502086 2.69911e-19)
(0.99843 -0.00556013 3.00382e-19)
(0.998421 -0.00617256 1.0506e-19)
(0.998416 -0.00687506 1.05302e-19)
(0.998413 -0.00769109 -1.15752e-20)
(0.998411 -0.00865404 1.34889e-19)
(0.99839 -0.00981395 2.49102e-20)
(0.998385 -0.0112366 -8.73934e-20)
(0.998116 -0.0130667 -1.04095e-19)
(0.997941 -0.0154466 6.94926e-20)
(0.994185 -0.0186885 -5.6039e-21)
(1.00003 0.000205009 3.13721e-20)
(1 0.000233944 -2.76475e-20)
(0.999971 0.000245296 -7.83414e-20)
(0.999926 0.000235124 -6.30296e-20)
(0.999872 0.000202563 9.71081e-20)
(0.999809 0.000147435 1.96191e-19)
(0.99974 7.05683e-05 -2.3067e-19)
(0.999666 -2.59544e-05 5.70849e-20)
(0.999589 -0.000138846 -5.06576e-19)
(0.999512 -0.00026384 6.51569e-19)
(0.999436 -0.000396119 1.58679e-19)
(0.999363 -0.000530779 -1.345e-20)
(0.999294 -0.000663293 -7.90511e-20)
(0.999229 -0.00078985 1.36065e-19)
(0.999169 -0.000907679 -1.29347e-19)
(0.999113 -0.00101513 2.2854e-19)
(0.999064 -0.0011115 9.85069e-19)
(0.999019 -0.00119706 1.23996e-18)
(0.998981 -0.00127261 -8.17391e-19)
(0.998948 -0.00133928 -8.50927e-19)
(0.998921 -0.0013982 2.19941e-19)
(0.998901 -0.00145025 -1.8567e-19)
(0.998887 -0.00149604 -7.22819e-19)
(0.99888 -0.00153573 1.56907e-18)
(0.998879 -0.00156916 -8.45182e-20)
(0.998883 -0.00159602 9.12015e-20)
(0.998892 -0.00161594 -1.07848e-18)
(0.998904 -0.00162883 4.86531e-19)
(0.998919 -0.0016349 -5.07093e-19)
(0.998934 -0.00163495 -8.50974e-19)
(0.998947 -0.00163036 -2.00623e-19)
(0.998959 -0.00162315 -5.45819e-19)
(0.998966 -0.00161588 7.05999e-19)
(0.998969 -0.00161155 3.22962e-19)
(0.998967 -0.00161347 -8.48022e-19)
(0.998959 -0.00162502 -7.54551e-19)
(0.998947 -0.00164951 5.90079e-20)
(0.998932 -0.00168995 2.32305e-19)
(0.998914 -0.00174892 7.68697e-19)
(0.998895 -0.00182841 -4.36212e-19)
(0.998878 -0.00192976 -1.23428e-20)
(0.998864 -0.00205357 1.38303e-19)
(0.998856 -0.00219974 2.63098e-19)
(0.998856 -0.00236741 3.05414e-19)
(0.998865 -0.00255507 -2.4421e-19)
(0.998887 -0.00276054 -1.0669e-19)
(0.998923 -0.00298105 5.6979e-20)
(0.998974 -0.00321328 1.67878e-20)
(0.999042 -0.00345332 -1.31486e-19)
(0.999129 -0.00369663 -4.54415e-20)
(0.999234 -0.00393781 -5.41988e-20)
(0.999359 -0.00417024 -1.03373e-19)
(0.999504 -0.00438557 -2.54385e-19)
(0.999667 -0.0045727 1.12479e-19)
(0.999848 -0.00471526 -1.55701e-19)
(1.00004 -0.00479357 -7.39282e-20)
(1.00022 -0.00475955 1.67782e-20)
(1.00038 -0.00454959 -5.48227e-20)
(1.00026 -0.00406436 -5.62254e-20)
(1.00201 -0.00242891 4.88848e-21)
(1.00004 0.000268064 4.53453e-20)
(1 0.000242864 -9.4171e-20)
(0.999956 0.000198965 1.93329e-19)
(0.999903 0.000128511 8.32834e-20)
(0.999842 3.30786e-05 2.60581e-19)
(0.999777 -8.4271e-05 -5.85492e-20)
(0.999708 -0.00021954 2.17162e-19)
(0.999638 -0.000367814 -1.82576e-19)
(0.999569 -0.000523552 1.34334e-19)
(0.999502 -0.000680935 3.97316e-19)
(0.999438 -0.000834459 -1.13994e-19)
(0.999378 -0.000979374 1.89748e-19)
(0.999322 -0.00111211 -4.6028e-19)
(0.999271 -0.00123039 -1.27707e-19)
(0.999225 -0.0013334 -9.51698e-20)
(0.999184 -0.00142156 -2.0328e-19)
(0.999147 -0.0014961 -4.19519e-19)
(0.999116 -0.0015589 -1.10366e-18)
(0.99909 -0.00161187 1.34769e-18)
(0.999071 -0.00165665 1.11133e-19)
(0.999058 -0.00169438 3.72635e-19)
(0.999053 -0.00172536 3.77605e-19)
(0.999056 -0.00174932 5.03343e-19)
(0.999066 -0.00176524 -1.87168e-18)
(0.999083 -0.00177183 9.15967e-19)
(0.999107 -0.0017676 -1.45988e-19)
(0.999136 -0.00175134 3.9104e-20)
(0.999169 -0.00172226 1.78247e-19)
(0.999204 -0.00168037 2.79191e-19)
(0.99924 -0.00162648 6.86538e-19)
(0.999274 -0.00156238 5.55592e-19)
(0.999306 -0.00149067 2.03511e-19)
(0.999334 -0.00141478 -3.67046e-19)
(0.999357 -0.00133859 -2.89011e-19)
(0.999376 -0.00126648 1.00148e-18)
(0.99939 -0.0012027 -3.86995e-19)
(0.999401 -0.00115155 7.56258e-20)
(0.999409 -0.00111682 -4.00492e-19)
(0.999417 -0.00110181 -7.68544e-20)
(0.999425 -0.00110912 1.25049e-19)
(0.999436 -0.00114059 2.66577e-19)
(0.999452 -0.00119734 1.27895e-20)
(0.999475 -0.00127965 -3.38751e-19)
(0.999507 -0.00138726 1.59014e-19)
(0.999549 -0.00151927 3.28852e-19)
(0.999604 -0.0016744 -3.06326e-20)
(0.999672 -0.00185118 1.8951e-20)
(0.999755 -0.00204802 -1.8665e-19)
(0.999851 -0.00226369 2.48132e-19)
(0.999962 -0.00249733 -1.8906e-19)
(1.00009 -0.00274892 -1.45841e-19)
(1.00022 -0.00301968 -1.41672e-19)
(1.00037 -0.00331243 1.62535e-20)
(1.00051 -0.00363269 -7.93886e-20)
(1.00065 -0.00398885 1.07313e-19)
(1.00077 -0.00439594 -5.096e-20)
(1.00085 -0.00486578 -3.36994e-20)
(1.00085 -0.00539537 1.14739e-19)
(1.00079 -0.00608371 4.35071e-21)
(1.00003 -0.00710254 1.47798e-20)
(1.00002 0.000271277 2.1281e-20)
(0.999966 0.000183041 1.22906e-20)
(0.999909 8.34539e-05 -3.73204e-20)
(0.999847 -3.86129e-05 -7.6765e-20)
(0.999782 -0.00018069 -1.06754e-20)
(0.999714 -0.000338084 9.96661e-20)
(0.999645 -0.000505569 -1.61188e-19)
(0.999575 -0.000677627 1.03885e-19)
(0.999506 -0.000848786 1.86718e-19)
(0.999439 -0.00101394 -5.07015e-19)
(0.999375 -0.00116886 -6.58262e-19)
(0.999313 -0.00131049 2.83633e-19)
(0.999254 -0.00143721 2.8201e-19)
(0.999197 -0.00154864 3.32709e-19)
(0.999144 -0.00164575 -5.17121e-19)
(0.999093 -0.00173045 9.54614e-20)
(0.999045 -0.0018049 3.41747e-19)
(0.999001 -0.00187158 5.84736e-19)
(0.998962 -0.00193247 -4.36717e-19)
(0.998927 -0.00198888 5.8695e-19)
(0.998898 -0.00204145 2.15816e-19)
(0.998876 -0.00208962 -5.22331e-19)
(0.99886 -0.00213245 -6.18151e-19)
(0.998851 -0.0021681 7.55216e-19)
(0.998848 -0.00219476 1.24745e-19)
(0.998851 -0.00221049 9.09846e-19)
(0.998859 -0.00221394 -1.60576e-19)
(0.998872 -0.00220432 -4.2843e-19)
(0.998887 -0.00218186 -1.63087e-19)
(0.998903 -0.00214765 3.17477e-19)
(0.99892 -0.00210398 -6.8254e-19)
(0.998938 -0.00205379 -1.20685e-20)
(0.998954 -0.0020011 2.99042e-19)
(0.998971 -0.00195004 7.32904e-20)
(0.998987 -0.00190548 -2.5239e-20)
(0.999003 -0.00187182 3.52447e-19)
(0.999022 -0.00185368 4.18414e-19)
(0.999043 -0.00185493 -1.55988e-19)
(0.999069 -0.00187899 1.79514e-19)
(0.999102 -0.0019286 -9.17618e-19)
(0.999142 -0.00200562 4.97695e-20)
(0.999193 -0.00211138 1.59131e-19)
(0.999256 -0.0022462 2.57689e-20)
(0.999332 -0.00241012 -2.107e-20)
(0.999422 -0.00260247 -2.1018e-19)
(0.999527 -0.00282231 -1.65491e-19)
(0.999648 -0.00306856 -3.1727e-19)
(0.999785 -0.00333994 2.26448e-19)
(0.999938 -0.00363554 -9.73924e-20)
(1.00011 -0.00395454 -1.35348e-19)
(1.00029 -0.00429649 2.82503e-19)
(1.00048 -0.00466135 -1.13257e-19)
(1.00068 -0.00504907 4.18787e-20)
(1.00088 -0.00545948 1.62225e-19)
(1.00108 -0.00589073 5.5562e-20)
(1.00127 -0.00633937 1.56114e-20)
(1.00144 -0.00678647 -6.20167e-20)
(1.00159 -0.00718162 -9.97228e-20)
(1.00168 -0.00756013 3.13945e-20)
(1.00191 -0.00792611 -1.89982e-20)
(0.999965 0.00026728 9.60859e-22)
(0.999897 0.000132177 6.10514e-20)
(0.99983 -4.10052e-06 1.21516e-19)
(0.99976 -0.000156272 1.04617e-19)
(0.999689 -0.000322786 -4.66745e-19)
(0.999616 -0.000498901 1.6657e-19)
(0.999543 -0.000679621 -1.55242e-21)
(0.99947 -0.00086005 -2.27329e-19)
(0.999399 -0.00103565 -6.18005e-20)
(0.999329 -0.00120246 2.65875e-19)
(0.999262 -0.00135752 -9.14396e-20)
(0.999197 -0.00149902 2.14728e-20)
(0.999134 -0.00162642 5.50854e-19)
(0.999073 -0.00174018 -8.92227e-19)
(0.999014 -0.0018418 3.4986e-19)
(0.998957 -0.00193338 -7.9813e-20)
(0.998903 -0.00201692 1.16256e-19)
(0.998852 -0.00209463 5.14006e-20)
(0.998804 -0.00216803 -8.47441e-20)
(0.99876 -0.00223785 -9.45585e-19)
(0.998719 -0.00230439 1.64308e-20)
(0.998684 -0.00236673 -3.4361e-20)
(0.998653 -0.00242391 2.98135e-19)
(0.998626 -0.00247415 -1.96046e-19)
(0.998605 -0.00251597 -2.9881e-19)
(0.998589 -0.00254789 -1.57972e-18)
(0.998576 -0.00256913 5.46782e-20)
(0.998568 -0.00257945 1.13479e-18)
(0.998564 -0.00257966 -2.47054e-19)
(0.998563 -0.00257124 7.17128e-19)
(0.998565 -0.00255676 -1.49322e-19)
(0.998572 -0.00253922 -3.31895e-19)
(0.998583 -0.0025225 2.61766e-19)
(0.9986 -0.00251041 -6.58469e-19)
(0.998622 -0.00250725 -8.13517e-20)
(0.998653 -0.00251676 -1.44091e-19)
(0.998693 -0.00254268 -7.41769e-19)
(0.998743 -0.00258799 6.1079e-19)
(0.998806 -0.00265513 -5.98046e-19)
(0.998883 -0.00274582 9.7808e-19)
(0.998976 -0.00286093 -3.52692e-19)
(0.999085 -0.00300081 -5.12026e-19)
(0.999212 -0.00316484 -1.10178e-19)
(0.999358 -0.00335213 6.77824e-20)
(0.999522 -0.00356113 5.14009e-19)
(0.999706 -0.00378995 -1.81283e-19)
(0.999908 -0.00403656 3.02994e-19)
(1.00013 -0.00429859 -2.43395e-19)
(1.00036 -0.00457386 -1.79717e-19)
(1.00062 -0.00486006 1.5084e-19)
(1.00088 -0.00515486 5.56725e-21)
(1.00116 -0.00545595 -2.11898e-19)
(1.00144 -0.00576049 -9.31937e-20)
(1.00172 -0.00606513 2.84175e-20)
(1.00199 -0.00636487 -1.79979e-19)
(1.00226 -0.00665454 1.57783e-19)
(1.0025 -0.00692071 5.01706e-20)
(1.00273 -0.00712243 3.97669e-20)
(1.00292 -0.00731991 9.46881e-21)
(1.0031 -0.00775109 1.01052e-20)
(0.999882 0.000272607 -4.74152e-20)
(0.999809 0.000107051 -3.18294e-20)
(0.999737 -5.12451e-05 -2.0013e-19)
(0.999666 -0.000219607 -2.42173e-19)
(0.999596 -0.000397856 3.75226e-19)
(0.999527 -0.000581718 6.60666e-20)
(0.999461 -0.00076682 1.94339e-19)
(0.999398 -0.000949031 1.19372e-19)
(0.999338 -0.00112457 3.99708e-19)
(0.999282 -0.00129016 -9.66392e-20)
(0.99923 -0.0014434 6.80593e-19)
(0.999183 -0.00158277 -1.39066e-18)
(0.999139 -0.00170782 4.68568e-20)
(0.999099 -0.0018188 8.17683e-19)
(0.999062 -0.00191676 -1.93475e-19)
(0.999028 -0.00200324 6.87032e-19)
(0.998996 -0.00207963 -7.69914e-19)
(0.998968 -0.0021475 -4.14409e-19)
(0.998941 -0.002208 5.66887e-19)
(0.998916 -0.00226167 6.73288e-19)
(0.998894 -0.00230891 3.33419e-19)
(0.998873 -0.00234933 -1.00026e-18)
(0.998855 -0.00238263 -3.66712e-19)
(0.998838 -0.00240814 3.67239e-19)
(0.998822 -0.0024255 4.67621e-19)
(0.998809 -0.00243455 4.39562e-19)
(0.998798 -0.00243574 3.26896e-19)
(0.998789 -0.00243002 -2.78022e-19)
(0.998783 -0.0024191 5.25856e-19)
(0.998781 -0.0024052 -2.69136e-19)
(0.998783 -0.00239125 -2.08344e-19)
(0.998791 -0.0023804 -3.59458e-19)
(0.998807 -0.00237624 -3.99828e-19)
(0.998832 -0.00238219 -6.37921e-19)
(0.998867 -0.00240174 -2.47512e-19)
(0.998915 -0.00243784 5.0849e-19)
(0.998977 -0.00249318 6.55562e-19)
(0.999055 -0.00256974 -1.42794e-19)
(0.999151 -0.00266889 5.69619e-19)
(0.999264 -0.00279137 -2.05688e-19)
(0.999398 -0.00293718 5.77539e-19)
(0.999551 -0.00310588 1.20304e-20)
(0.999725 -0.0032963 -3.8073e-19)
(0.99992 -0.00350706 -3.39214e-19)
(1.00013 -0.00373643 9.24781e-20)
(1.00037 -0.00398243 3.78213e-20)
(1.00062 -0.00424315 -6.09326e-20)
(1.00089 -0.00451655 -1.7927e-19)
(1.00117 -0.00480093 -3.34137e-20)
(1.00146 -0.00509477 1.73752e-19)
(1.00176 -0.00539667 4.58551e-20)
(1.00206 -0.00570562 1.34347e-19)
(1.00236 -0.00602046 -6.50683e-21)
(1.00265 -0.00634008 -2.27181e-19)
(1.00293 -0.00666258 1.40524e-19)
(1.00319 -0.00698674 -1.51109e-19)
(1.00342 -0.0073072 -1.95738e-21)
(1.00362 -0.00759097 -1.70631e-21)
(1.00381 -0.00788235 -1.94418e-20)
(1.00385 -0.0085195 -2.83104e-21)
(0.999783 0.00029364 4.32355e-20)
(0.999709 0.000102006 1.5302e-20)
(0.99964 -7.18895e-05 1.45479e-19)
(0.999575 -0.000251503 -2.57334e-20)
(0.999514 -0.000437786 5.11203e-21)
(0.999459 -0.000626852 -3.87941e-19)
(0.99941 -0.000814871 -4.92329e-19)
(0.999367 -0.000998281 3.50106e-19)
(0.999331 -0.00117371 -9.47876e-19)
(0.999302 -0.00133813 3.33594e-19)
(0.999279 -0.00148909 -6.10968e-19)
(0.999262 -0.00162486 2.0088e-19)
(0.999252 -0.00174446 2.6466e-19)
(0.999246 -0.00184751 4.89184e-19)
(0.999246 -0.00193428 -2.92131e-19)
(0.999249 -0.00200557 -1.88567e-19)
(0.999254 -0.00206217 -1.65132e-19)
(0.999262 -0.00210525 -6.45322e-20)
(0.99927 -0.00213592 -1.17547e-19)
(0.999278 -0.00215506 3.6671e-19)
(0.999286 -0.00216373 -1.1108e-18)
(0.999292 -0.00216271 1.02226e-18)
(0.999296 -0.00215303 6.78836e-19)
(0.999298 -0.00213572 -1.16916e-18)
(0.999297 -0.00211212 1.41276e-19)
(0.999295 -0.00208389 -1.24512e-19)
(0.999291 -0.0020531 2.60833e-19)
(0.999286 -0.00202217 -1.76391e-19)
(0.999283 -0.00199397 -1.99343e-19)
(0.999281 -0.0019716 -3.52836e-19)
(0.999284 -0.00195843 1.77477e-19)
(0.999293 -0.0019578 6.72093e-19)
(0.99931 -0.00197306 6.99524e-19)
(0.999337 -0.00200718 1.01693e-18)
(0.999377 -0.00206292 -5.97646e-19)
(0.999432 -0.00214236 6.48747e-20)
(0.999504 -0.00224719 2.52615e-19)
(0.999594 -0.00237836 -2.34866e-19)
(0.999704 -0.00253623 -7.04417e-20)
(0.999835 -0.00272056 -5.37423e-19)
(0.999987 -0.00293047 -1.57016e-19)
(1.00016 -0.00316477 2.68592e-19)
(1.00036 -0.00342159 5.90892e-20)
(1.00057 -0.00369906 5.4457e-19)
(1.00081 -0.00399499 -5.88151e-20)
(1.00106 -0.00430703 -2.74763e-19)
(1.00133 -0.00463296 -1.72276e-19)
(1.00162 -0.00497031 2.90745e-19)
(1.00191 -0.00531698 -6.69424e-20)
(1.00222 -0.00567079 -1.68542e-19)
(1.00252 -0.0060294 -7.65156e-21)
(1.00283 -0.00639049 2.39287e-20)
(1.00313 -0.0067509 1.92628e-19)
(1.00343 -0.00710675 -2.4557e-20)
(1.00371 -0.0074525 -1.0455e-19)
(1.00397 -0.00778158 3.31278e-19)
(1.0042 -0.00808294 -8.35351e-20)
(1.00441 -0.00831888 6.76109e-20)
(1.00461 -0.00850971 -2.57449e-20)
(1.00477 -0.00893961 -1.43485e-20)
(0.999679 0.000322287 -5.21811e-20)
(0.9996 0.000112068 3.31967e-20)
(0.999535 -7.62031e-05 -6.99928e-20)
(0.999477 -0.00026683 1.44002e-19)
(0.999427 -0.000461936 1.37345e-19)
(0.999386 -0.000657999 2.94505e-20)
(0.999352 -0.000851672 4.75201e-19)
(0.999326 -0.00103985 -3.30099e-19)
(0.999309 -0.00121941 4.17237e-19)
(0.999299 -0.00138733 -8.05421e-19)
(0.999298 -0.001541 7.01559e-19)
(0.999304 -0.00167824 1.70703e-19)
(0.999317 -0.00179746 -2.78375e-20)
(0.999336 -0.00189758 -7.48026e-19)
(0.999359 -0.00197823 1.44344e-20)
(0.999387 -0.00203957 3.01392e-19)
(0.999417 -0.00208197 2.33983e-19)
(0.999447 -0.0021066 -8.84187e-20)
(0.999477 -0.00211476 8.21031e-20)
(0.999505 -0.00210801 2.21209e-19)
(0.99953 -0.00208843 2.73805e-19)
(0.999551 -0.00205802 -8.06464e-19)
(0.999567 -0.00201954 1.53377e-19)
(0.999578 -0.00197558 2.47283e-20)
(0.999584 -0.00192934 3.64842e-19)
(0.999585 -0.00188404 -5.87487e-19)
(0.999583 -0.00184332 -6.11594e-19)
(0.999579 -0.00181075 -4.78599e-19)
(0.999575 -0.00179016 4.97312e-20)
(0.999573 -0.00178512 -2.29384e-19)
(0.999576 -0.00179925 -1.59171e-19)
(0.999585 -0.00183561 -6.46698e-19)
(0.999604 -0.00189714 -8.36895e-19)
(0.999636 -0.00198587 -9.93642e-20)
(0.999683 -0.00210372 4.1011e-20)
(0.999747 -0.0022514 3.23984e-19)
(0.999831 -0.00242944 -4.91786e-19)
(0.999936 -0.00263736 -3.43355e-19)
(1.00006 -0.00287416 -3.27836e-19)
(1.00021 -0.00313827 1.59606e-19)
(1.00039 -0.00342739 -1.23376e-19)
(1.00059 -0.00373916 -1.90439e-19)
(1.00081 -0.0040703 1.07499e-20)
(1.00105 -0.0044178 -6.39906e-20)
(1.00131 -0.00477822 -3.80727e-19)
(1.00159 -0.00514784 -1.29965e-19)
(1.00189 -0.00552317 5.59603e-19)
(1.00221 -0.00590014 -4.63318e-19)
(1.00253 -0.00627499 2.1258e-19)
(1.00286 -0.0066437 4.74315e-19)
(1.00319 -0.00700177 -1.64908e-19)
(1.00352 -0.00734454 1.26959e-20)
(1.00385 -0.00766641 7.05818e-20)
(1.00417 -0.00796094 2.36649e-19)
(1.00447 -0.00822066 -2.34398e-21)
(1.00476 -0.00843781 -1.37563e-19)
(1.00501 -0.00860209 2.02479e-20)
(1.00524 -0.00868229 5.09854e-20)
(1.00546 -0.00870244 -1.7859e-20)
(1.00573 -0.00891166 -1.03649e-20)
(0.999568 0.00036146 1.82879e-20)
(0.999482 0.000136159 1.59281e-20)
(0.999418 -6.78412e-05 9.73235e-20)
(0.999363 -0.000270452 4.91199e-20)
(0.999316 -0.000476065 -1.34204e-19)
(0.999278 -0.000681742 6.42688e-19)
(0.999247 -0.000884686 -8.46578e-19)
(0.999224 -0.00108228 3.85285e-19)
(0.999209 -0.00127161 -2.4791e-19)
(0.999201 -0.00144969 4.40302e-20)
(0.9992 -0.00161375 2.07427e-19)
(0.999206 -0.00176126 -2.9255e-19)
(0.999219 -0.00189012 -2.58361e-19)
(0.999237 -0.00199863 -5.6309e-19)
(0.999261 -0.00208608 -6.60972e-19)
(0.999287 -0.00215222 -2.4033e-19)
(0.999317 -0.00219702 1.52338e-19)
(0.999346 -0.00222203 2.90931e-19)
(0.999375 -0.00222876 -9.36609e-19)
(0.999402 -0.00221939 6.24268e-19)
(0.999426 -0.00219717 8.00643e-20)
(0.999445 -0.00216479 6.64488e-19)
(0.999459 -0.00212675 4.99905e-19)
(0.999469 -0.00208654 6.33781e-19)
(0.999474 -0.00204891 -6.89892e-19)
(0.999476 -0.00201792 -4.93231e-19)
(0.999476 -0.00199827 4.12779e-19)
(0.999475 -0.00199396 4.92462e-19)
(0.999477 -0.00200925 -3.97705e-19)
(0.999484 -0.00204747 -1.76966e-19)
(0.999498 -0.00211202 1.163e-18)
(0.999523 -0.00220504 -2.08846e-19)
(0.999561 -0.00232876 2.59502e-19)
(0.999616 -0.00248372 -2.26478e-19)
(0.99969 -0.00267078 -6.68821e-20)
(0.999785 -0.00288887 1.31767e-19)
(0.999903 -0.0031372 3.79527e-19)
(1.00005 -0.00341358 -1.91293e-20)
(1.00021 -0.0037155 3.11284e-19)
(1.00041 -0.00403988 9.42828e-20)
(1.00063 -0.00438289 1.42948e-19)
(1.00088 -0.00474088 -5.48648e-20)
(1.00115 -0.00510913 -2.97982e-19)
(1.00144 -0.00548344 -2.17247e-19)
(1.00175 -0.00585921 7.04313e-19)
(1.00208 -0.00623159 -1.71274e-19)
(1.00243 -0.0065961 -1.39975e-19)
(1.00279 -0.00694773 -1.36652e-19)
(1.00316 -0.00728191 -9.72508e-20)
(1.00353 -0.00759413 2.49254e-20)
(1.0039 -0.00787953 -1.48624e-19)
(1.00427 -0.00813367 -1.41328e-19)
(1.00463 -0.00835179 -1.17612e-19)
(1.00497 -0.00852914 -6.8362e-20)
(1.00529 -0.00866139 1.23604e-19)
(1.00558 -0.00874547 -5.93809e-20)
(1.00585 -0.0087776 -6.81023e-20)
(1.00608 -0.00873603 5.90784e-20)
(1.00627 -0.00865647 2.25506e-21)
(1.00656 -0.00877647 1.3639e-20)
(0.999442 0.000403004 -1.59655e-20)
(0.999352 0.000171751 -1.32478e-19)
(0.999285 -4.75494e-05 -1.47202e-19)
(0.999226 -0.000262134 -4.3354e-20)
(0.999174 -0.00047869 -2.27692e-19)
(0.999127 -0.000695054 -5.30532e-19)
(0.999086 -0.000909121 3.38725e-19)
(0.999049 -0.00111883 8.00736e-21)
(0.999018 -0.00132155 -1.09311e-20)
(0.998993 -0.00151438 6.11501e-20)
(0.998973 -0.00169448 -5.84185e-19)
(0.998959 -0.00185918 2.00572e-19)
(0.998951 -0.00200602 -2.3217e-19)
(0.998949 -0.00213283 9.10877e-19)
(0.998951 -0.00223886 1.4768e-18)
(0.998958 -0.00232363 1.94002e-19)
(0.998968 -0.00238671 1.56651e-20)
(0.99898 -0.00243017 -1.34465e-20)
(0.998993 -0.00245566 1.93838e-19)
(0.999006 -0.00246573 -6.43019e-19)
(0.999019 -0.00246456 -7.36823e-20)
(0.99903 -0.00245504 5.99477e-19)
(0.99904 -0.00244289 -1.14605e-18)
(0.999048 -0.00243189 1.60882e-19)
(0.999056 -0.00242763 -2.35879e-19)
(0.999066 -0.0024343 1.44958e-18)
(0.999077 -0.00245696 -2.63109e-19)
(0.999094 -0.00249936 -2.03799e-19)
(0.999119 -0.00256552 2.06667e-20)
(0.999153 -0.00265802 5.03806e-19)
(0.999201 -0.00277956 -2.52772e-19)
(0.999264 -0.00293103 -4.56461e-19)
(0.999347 -0.00311364 2.32247e-19)
(0.99945 -0.00332634 -5.76658e-19)
(0.999577 -0.00356881 7.96666e-19)
(0.999729 -0.00383837 2.6147e-19)
(0.999908 -0.00413291 -4.36755e-19)
(1.00011 -0.0044489 1.06845e-19)
(1.00035 -0.00478255 4.57892e-19)
(1.00061 -0.00512971 2.37036e-20)
(1.0009 -0.00548551 -3.71661e-19)
(1.00121 -0.00584554 5.26226e-19)
(1.00155 -0.00620445 -5.33155e-19)
(1.0019 -0.0065575 5.32776e-19)
(1.00228 -0.00689996 -5.60526e-19)
(1.00267 -0.00722689 3.92976e-20)
(1.00307 -0.00753404 1.10627e-19)
(1.00348 -0.00781697 4.24333e-19)
(1.00389 -0.00807183 2.86564e-19)
(1.00429 -0.00829541 -5.04642e-19)
(1.00469 -0.0084845 5.84348e-20)
(1.00508 -0.00863676 1.20788e-19)
(1.00545 -0.00875023 -4.96103e-19)
(1.0058 -0.0088234 3.29175e-19)
(1.00611 -0.0088559 -1.53223e-20)
(1.00639 -0.00884901 2.44579e-20)
(1.00664 -0.00880327 7.75056e-20)
(1.00684 -0.00870128 -1.73702e-19)
(1.00699 -0.00858491 3.83106e-20)
(1.00724 -0.00868918 1.13393e-20)
(0.999302 0.000449546 5.85342e-20)
(0.99921 0.000216572 7.90503e-20)
(0.999139 -1.53324e-05 -1.10429e-19)
(0.99907 -0.000240119 8.16902e-20)
(0.999006 -0.000466088 2.1544e-19)
(0.998943 -0.000691853 2.406e-19)
(0.998882 -0.000916134 -8.14207e-20)
(0.998823 -0.00113751 -2.17041e-20)
(0.998767 -0.00135368 2.59165e-19)
(0.998714 -0.0015619 -6.08553e-20)
(0.998666 -0.00175941 5.22122e-19)
(0.998622 -0.00194353 -1.70812e-19)
(0.998585 -0.00211171 3.19364e-19)
(0.998553 -0.00226145 -3.93669e-19)
(0.998528 -0.00239212 -3.56271e-19)
(0.998508 -0.00250323 -2.1791e-19)
(0.998495 -0.00259397 8.93925e-19)
(0.998486 -0.00266687 6.85397e-20)
(0.998482 -0.00272363 -4.10023e-19)
(0.998483 -0.00276688 7.43273e-19)
(0.998487 -0.00280139 1.64863e-19)
(0.998495 -0.0028298 -9.01608e-19)
(0.998507 -0.00285846 8.37083e-19)
(0.998524 -0.00289092 4.80392e-19)
(0.998547 -0.00293291 6.25942e-19)
(0.998577 -0.00298826 -7.59981e-19)
(0.998617 -0.00306172 -3.4131e-20)
(0.998668 -0.00315634 -8.69561e-19)
(0.998733 -0.00327548 9.38734e-19)
(0.998815 -0.00342068 -4.1305e-19)
(0.998916 -0.00359368 6.16207e-20)
(0.999038 -0.00379411 -3.02141e-19)
(0.999183 -0.00402213 -3.49688e-19)
(0.999354 -0.00427539 6.50551e-19)
(0.999551 -0.00455247 -1.95457e-19)
(0.999776 -0.00484965 -5.08724e-19)
(1.00003 -0.00516381 -1.50988e-19)
(1.00031 -0.00549072 4.73091e-19)
(1.00062 -0.00582587 2.61016e-19)
(1.00095 -0.00616476 -9.84563e-20)
(1.00131 -0.00650225 3.89902e-19)
(1.00169 -0.00683389 -4.95038e-19)
(1.00209 -0.00715464 2.98349e-19)
(1.00251 -0.00746004 1.06547e-19)
(1.00294 -0.00774614 1.12727e-19)
(1.00337 -0.00800883 -4.51584e-19)
(1.00381 -0.00824499 3.27847e-19)
(1.00425 -0.00845159 -6.56734e-19)
(1.00469 -0.00862626 -1.61691e-20)
(1.00511 -0.00876767 3.89308e-19)
(1.00552 -0.00887457 1.20129e-19)
(1.0059 -0.00894674 1.97932e-19)
(1.00626 -0.00898444 3.6275e-19)
(1.00659 -0.0089883 -3.83864e-19)
(1.00687 -0.00895993 1.41497e-19)
(1.00712 -0.00890223 7.43738e-20)
(1.00733 -0.00881676 -7.76911e-21)
(1.00749 -0.00868632 5.5859e-20)
(1.00759 -0.00855501 -7.63078e-20)
(1.00779 -0.00865962 -3.6067e-21)
(0.999153 0.000492931 -7.78755e-20)
(0.999061 0.000268519 -5.29952e-20)
(0.998982 2.85362e-05 1.73061e-19)
(0.998903 -0.00020336 1.27207e-19)
(0.998824 -0.000435748 -8.46964e-20)
(0.998744 -0.000667816 -9.24128e-20)
(0.998663 -0.000899247 2.84781e-19)
(0.99858 -0.00112935 6.8274e-20)
(0.998499 -0.00135618 1.58399e-19)
(0.99842 -0.0015772 1.87886e-19)
(0.998344 -0.00178985 -5.80266e-19)
(0.998274 -0.00199164 1.04603e-18)
(0.99821 -0.00218008 -2.57567e-19)
(0.998153 -0.00235257 7.15373e-19)
(0.998105 -0.00250867 -6.41622e-19)
(0.998065 -0.00264807 5.29927e-19)
(0.998035 -0.00276964 -1.01972e-18)
(0.998013 -0.00287619 6.58816e-19)
(0.998 -0.00296948 -1.39657e-19)
(0.997997 -0.00305192 -1.2181e-18)
(0.998003 -0.00312853 6.13609e-19)
(0.998019 -0.00320148 -1.61555e-19)
(0.998045 -0.00327708 -2.09167e-19)
(0.998083 -0.00335845 9.70298e-21)
(0.998134 -0.00345084 -8.45051e-19)
(0.998198 -0.00355745 -3.60424e-20)
(0.998279 -0.00368227 1.06357e-19)
(0.998377 -0.00382748 6.60958e-19)
(0.998496 -0.00399549 -1.04022e-18)
(0.998636 -0.00418683 3.45696e-19)
(0.9988 -0.00440222 -3.47494e-19)
(0.998989 -0.00464028 -3.84818e-20)
(0.999205 -0.00490017 -1.7595e-19)
(0.999448 -0.00517878 3.80351e-19)
(0.999719 -0.00547379 -1.52492e-19)
(1.00002 -0.00578107 3.61976e-19)
(1.00034 -0.0060969 -1.59369e-20)
(1.0007 -0.00641696 -3.40115e-19)
(1.00107 -0.00673661 2.90854e-21)
(1.00147 -0.00705155 7.36676e-20)
(1.00189 -0.00735702 -2.02737e-19)
(1.00233 -0.00764903 -5.00006e-21)
(1.00277 -0.00792341 1.08667e-19)
(1.00323 -0.00817645 6.01314e-19)
(1.00369 -0.00840537 -1.80054e-19)
(1.00415 -0.00860722 2.61878e-20)
(1.00461 -0.00878012 9.51766e-20)
(1.00506 -0.00892249 1.0985e-19)
(1.0055 -0.00903327 -2.0682e-19)
(1.00591 -0.00911257 -3.51501e-20)
(1.0063 -0.00916042 -1.38946e-19)
(1.00667 -0.00917776 -2.55723e-19)
(1.007 -0.00916584 -6.27733e-20)
(1.00729 -0.00912593 3.27951e-19)
(1.00754 -0.00905998 -8.01645e-20)
(1.00775 -0.00897082 -1.02344e-19)
(1.00792 -0.00885965 -1.56281e-21)
(1.00804 -0.00870849 -1.48709e-20)
(1.0081 -0.0085621 4.07849e-20)
(1.00824 -0.00866096 5.496e-21)
(0.998996 0.000543034 8.92452e-20)
(0.998905 0.000326986 8.44235e-20)
(0.998822 8.28674e-05 -1.6258e-20)
(0.998733 -0.000152716 -1.50166e-19)
(0.998643 -0.000388123 -1.56628e-19)
(0.998549 -0.000622811 -1.85802e-19)
(0.998452 -0.000857562 -7.56214e-20)
(0.998352 -0.00109253 -1.89454e-19)
(0.998252 -0.00132611 2.26127e-19)
(0.998155 -0.00155605 -2.16402e-19)
(0.998061 -0.00178007 7.84475e-19)
(0.997974 -0.001996 -7.36324e-19)
(0.997895 -0.00220163 -1.64335e-19)
(0.997825 -0.00239441 1.86411e-19)
(0.997765 -0.00257411 2.99405e-19)
(0.997717 -0.00274074 -4.36917e-19)
(0.997682 -0.00289299 6.02912e-19)
(0.997659 -0.0030337 2.69245e-19)
(0.99765 -0.00316469 -2.13075e-19)
(0.997655 -0.00328801 5.62296e-19)
(0.997675 -0.00340854 4.66852e-19)
(0.99771 -0.00352797 -5.45482e-19)
(0.997761 -0.003652 -4.93084e-19)
(0.99783 -0.00378325 6.24634e-19)
(0.997917 -0.00392607 8.64844e-19)
(0.998024 -0.00408294 -4.97089e-20)
(0.998152 -0.00425679 5.08717e-19)
(0.998303 -0.00444897 1.53028e-20)
(0.998478 -0.00466082 -2.28832e-19)
(0.998678 -0.00489201 -1.49315e-19)
(0.998905 -0.00514227 1.05238e-18)
(0.999159 -0.00540956 -2.38829e-19)
(0.999441 -0.00569219 5.67387e-19)
(0.99975 -0.00598671 1.41461e-19)
(1.00009 -0.00629019 -7.7497e-19)
(1.00045 -0.00659857 4.77782e-19)
(1.00083 -0.00690783 -1.03181e-19)
(1.00124 -0.00721404 2.06972e-19)
(1.00167 -0.00751273 -1.981e-19)
(1.00212 -0.00780016 -9.32065e-19)
(1.00258 -0.00807223 -3.34402e-19)
(1.00305 -0.00832565 2.67039e-19)
(1.00352 -0.00855726 2.32928e-19)
(1.004 -0.00876415 1.24584e-19)
(1.00447 -0.00894467 -1.01474e-19)
(1.00494 -0.00909686 3.95957e-19)
(1.00539 -0.00921984 -2.1876e-19)
(1.00583 -0.00931304 3.71669e-19)
(1.00625 -0.00937623 -8.53874e-20)
(1.00665 -0.00941027 -2.07971e-19)
(1.00701 -0.00941577 2.50534e-19)
(1.00735 -0.00939404 -7.41515e-20)
(1.00764 -0.00934645 -1.75115e-19)
(1.0079 -0.00927419 -1.44239e-19)
(1.00811 -0.00917897 1.38752e-20)
(1.00828 -0.00906317 1.34208e-20)
(1.00841 -0.0089276 3.47124e-20)
(1.00849 -0.00875359 5.49561e-20)
(1.00852 -0.00858631 -1.95865e-20)
(1.00861 -0.00866993 1.41955e-20)
(0.998833 0.000589252 -3.69385e-20)
(0.998747 0.00038922 -6.71338e-20)
(0.998661 0.000145266 1.28374e-20)
(0.998567 -9.09759e-05 5.90515e-20)
(0.998471 -0.000326613 8.19075e-20)
(0.99837 -0.000560859 2.89432e-19)
(0.998264 -0.000795718 -3.09734e-19)
(0.998157 -0.00103229 -8.92921e-20)
(0.998049 -0.00126936 -3.80044e-19)
(0.997945 -0.00150495 2.34174e-19)
(0.997846 -0.00173712 -3.969e-19)
(0.997755 -0.00196414 5.78625e-19)
(0.997673 -0.00218423 -4.66851e-19)
(0.997602 -0.00239501 -4.76121e-19)
(0.997545 -0.00259644 -1.30823e-19)
(0.997502 -0.00278895 4.86027e-19)
(0.997474 -0.00297112 -8.26303e-19)
(0.997462 -0.00314563 -3.25567e-19)
(0.997468 -0.00331437 -5.57528e-20)
(0.997492 -0.00347886 1.43532e-19)
(0.997534 -0.0036436 -5.83342e-19)
(0.997596 -0.00380979 3.60781e-19)
(0.997679 -0.00398213 4.3238e-19)
(0.997783 -0.00416277 3.2861e-19)
(0.99791 -0.00435486 -4.27769e-19)
(0.998061 -0.00456015 -6.97194e-19)
(0.998236 -0.00478045 -5.7382e-19)
(0.998438 -0.00501629 3.91384e-20)
(0.998666 -0.00526798 5.6298e-19)
(0.998921 -0.00553448 2.37492e-19)
(0.999204 -0.00581468 -2.31394e-19)
(0.999513 -0.00610609 1.98167e-19)
(0.99985 -0.00640641 2.45138e-19)
(1.00021 -0.00671212 -7.15145e-19)
(1.0006 -0.00701993 2.69303e-19)
(1.00101 -0.00732608 -3.71639e-19)
(1.00144 -0.00762652 4.37557e-19)
(1.00188 -0.00791785 5.17651e-20)
(1.00235 -0.00819601 -2.21248e-20)
(1.00282 -0.00845788 5.87072e-19)
(1.0033 -0.00870009 -2.01296e-19)
(1.00378 -0.00892002 9.33989e-20)
(1.00427 -0.00911541 -8.39568e-20)
(1.00475 -0.00928408 9.01795e-20)
(1.00522 -0.00942521 -1.48667e-19)
(1.00567 -0.00953757 -3.79003e-19)
(1.00612 -0.00962096 9.37723e-20)
(1.00654 -0.00967536 6.04832e-20)
(1.00693 -0.00970098 2.70962e-19)
(1.0073 -0.00969899 -6.66117e-20)
(1.00763 -0.00967015 -2.43193e-19)
(1.00793 -0.00961581 8.48741e-20)
(1.00819 -0.00953719 8.87624e-21)
(1.00841 -0.00943528 2.23735e-19)
(1.00859 -0.00931155 -1.22055e-19)
(1.00873 -0.00916812 1.30454e-19)
(1.00882 -0.00900566 -3.67585e-20)