1.45 	0 	0 	-0.00813107 	-0.00258807 	1.65357e-20
2.35 	0 	0 	0.0621768 	-0.00663069 	9.88849e-21
