/*--------------------------------*- C++ -*----------------------------------*\
  =========                 |
  \\      /  F ield         | OpenFOAM: The Open Source CFD Toolbox
   \\    /   O peration     | Website:  https://openfoam.org
    \\  /    A nd           | Version:  6.0
     \\/     M anipulation  |
\*---------------------------------------------------------------------------*/
FoamFile
{
    version     2.0;
    format      ascii;
    class       volScalarField;
    location    "2";
    object      p;
}
// * * * * * * * * * * * * * * * * * * * * * * * * * * * * * * * * * * * * * //

dimensions      [0 2 -2 0 0 0 0];

internalField   nonuniform List<scalar> 
47000
(
0.095042
0.0940733
0.0915131
0.0874535
0.0820649
0.0756266
0.068491
0.0610396
0.0536379
0.0465812
0.0400862
0.0342691
0.0291788
0.0247945
0.0210683
0.0179233
0.0152852
0.0130736
0.0112232
0.00967014
0.00836665
0.00726814
0.00634245
0.00555987
0.00489936
0.00434147
0.00387333
0.00348582
0.0031838
0.00308002
0.0951941
0.0944437
0.0922941
0.0887986
0.0840719
0.0783309
0.071866
0.0650076
0.0580855
0.0513781
0.0451014
0.0393837
0.0342926
0.0298284
0.0259643
0.0226407
0.0197983
0.0173675
0.0152911
0.0135109
0.0119834
0.0106663
0.00952995
0.00854557
0.00769348
0.00695452
0.00631702
0.00577376
0.00533441
0.00508987
0.0954758
0.0948729
0.0929987
0.089888
0.0856249
0.0803878
0.0744244
0.0680264
0.061493
0.0550846
0.0490113
0.0434054
0.038346
0.0338476
0.029899
0.0264539
0.0234653
0.0208725
0.0186259
0.016672
0.0149718
0.0134853
0.0121855
0.011045
0.0100461
0.00917119
0.00841128
0.00776277
0.00723782
0.00691568
0.0958708
0.0953814
0.0937164
0.0909013
0.0870002
0.0821651
0.0766112
0.0705993
0.0644016
0.058261
0.0523794
0.0468902
0.0418789
0.0373713
0.0333674
0.0298331
0.0267307
0.0240083
0.0216226
0.0195254
0.0176811
0.0160532
0.0146166
0.0133464
0.0122268
0.0112422
0.0103861
0.00965791
0.00906871
0.00867956
0.0963717
0.0959737
0.0944747
0.0918959
0.0882886
0.083786
0.078578
0.0728998
0.0669999
0.0611047
0.0554066
0.0500376
0.0450872
0.040589
0.0365524
0.0329528
0.0297615
0.0269337
0.0244324
0.0222141
0.020247
0.0184976
0.0169435
0.0155619
0.0143391
0.0132617
0.0123252
0.0115305
0.0108849
0.0104435
0.0969679
0.0966455
0.0952836
0.092901
0.0895402
0.0853211
0.080413
0.0750299
0.0693989
0.0637311
0.0582088
0.0529612
0.0480795
0.0436036
0.0395497
0.0359022
0.032639
0.0297231
0.0271222
0.0247982
0.0227224
0.020865
0.0192056
0.0177242
0.0164088
0.0152481
0.0142392
0.0133839
0.0126854
0.0121908
0.0976594
0.0974013
0.0961581
0.0939451
0.0907992
0.0868294
0.0821886
0.0770722
0.0716886
0.0662341
0.0608811
0.0557553
0.0509481
0.0465037
0.0424446
0.0387617
0.03544
0.0324485
0.0297603
0.0273415
0.0251674
0.023211
0.0214547
0.0198808
0.0184794
0.0172409
0.0161638
0.01525
0.0144984
0.0139589
0.0984343
0.098235
0.0970983
0.0950371
0.0920834
0.0883382
0.0839399
0.0790681
0.073914
0.0686608
0.0634705
0.0584651
0.0537349
0.049328
0.0452709
0.0415615
0.0381898
0.0351313
0.0323634
0.0298572
0.0275907
0.0255411
0.0236924
0.0220301
0.0205457
0.0192317
0.0180872
0.0171148
0.0163099
0.0157212
0.099294
0.0991513
0.098114
0.0961928
0.093416
0.0898775
0.0857035
0.0810594
0.0761209
0.0710587
0.0660256
0.0611389
0.0564875
0.0521221
0.048073
0.0443434
0.0409288
0.0378097
0.0349681
0.0323796
0.0300256
0.0278862
0.0259485
0.0242
0.0226341
0.0212453
0.0200335
0.0190016
0.0181415
0.0175092
0.100231
0.100143
0.0992008
0.0974118
0.0948007
0.0914554
0.0874911
0.0830606
0.0783254
0.0734452
0.0685631
0.0637922
0.0592194
0.0548976
0.0508595
0.0471139
0.0436601
0.0404844
0.0375725
0.0349048
0.0324652
0.030238
0.028212
0.0263779
0.0247305
0.0232662
0.0219856
0.0208922
0.0199758
0.0192944
0.101249
0.101216
0.100366
0.0987044
0.0962513
0.0930891
0.0893232
0.085095
0.0805535
0.0758471
0.0711109
0.0664532
0.0619587
0.0576816
0.0536574
0.0498987
0.0464093
0.0431801
0.0402009
0.037456
0.0349328
0.0326188
0.0305053
0.0285854
0.0268561
0.0253152
0.0239643
0.0228076
0.0218325
0.0211064
0.10234
0.102362
0.101604
0.100066
0.0977649
0.0947778
0.0912011
0.0871656
0.0828085
0.0782687
0.0736726
0.0691247
0.0647067
0.0604744
0.0564646
0.0526944
0.0491708
0.0458897
0.0428441
0.0400229
0.0374161
0.0350152
0.0328133
0.0308068
0.0289938
0.0273745
0.025951
0.0247287
0.0236934
0.0229162
0.10351
0.103588
0.102921
0.101505
0.0993515
0.0965333
0.0931382
0.0892874
0.0851072
0.0807275
0.076267
0.0718257
0.0674831
0.0632953
0.0593009
0.0555203
0.0519641
0.0486323
0.0455215
0.0426246
0.0399347
0.0374465
0.0351557
0.0330614
0.0311634
0.0294637
0.0279657
0.0266756
0.0255776
0.0247529
0.104751
0.104885
0.10431
0.103014
0.101005
0.0983511
0.0951311
0.091458
0.0874477
0.083222
0.0788919
0.0745538
0.0702839
0.0661395
0.0621598
0.0583691
0.0547802
0.0513979
0.0482215
0.0452485
0.0424744
0.0398977
0.0375163
0.0353322
0.0333468
0.0315645
0.0299892
0.0286286
0.0274662
0.0265872
0.106068
0.10626
0.105777
0.104601
0.102735
0.10024
0.0971904
0.0936888
0.0898427
0.0857656
0.0815619
0.0773238
0.0731251
0.0690231
0.0650581
0.0612571
0.0576361
0.0542033
0.0509616
0.047912
0.0450532
0.042387
0.0399137
0.0376381
0.0355635
0.0336962
0.0320413
0.0306079
0.0293783
0.0284483
0.107454
0.107704
0.107314
0.106258
0.104533
0.102195
0.0993105
0.0959754
0.0922878
0.0883542
0.0842723
0.0801307
0.0760004
0.071939
0.0679873
0.0641754
0.0605212
0.0570373
0.053729
0.0506017
0.0476563
0.0448987
0.0423311
0.0399617
0.0377951
0.03584
0.0341025
0.0325935
0.0312948
0.0303066
0.108914
0.109224
0.108929
0.107993
0.106407
0.104224
0.101501
0.0983273
0.0947938
0.0909994
0.0870357
0.0829879
0.078924
0.0749019
0.0709628
0.0671392
0.0634516
0.0599159
0.0565405
0.0533343
0.0503013
0.0474507
0.0447872
0.0423216
0.0400607
0.0380153
0.0361928
0.0346056
0.033235
0.0321915
0.11044
0.11081
0.110612
0.109797
0.108351
0.106319
0.103755
0.100739
0.0973553
0.0936958
0.0898464
0.0858891
0.0818888
0.0779039
0.0739755
0.070139
0.0664163
0.0628274
0.0593829
0.0560962
0.0529732
0.0500272
0.0472648
0.0447004
0.042342
0.0402033
0.0382923
0.0366241
0.0351792
0.0340731
0.112038
0.112471
0.112372
0.111677
0.11037
0.108489
0.106081
0.10322
0.0999823
0.0964543
0.0927162
0.0888467
0.0849082
0.0809589
0.0770401
0.0731893
0.0694308
0.0657875
0.062273
0.058904
0.0556894
0.0526459
0.0497826
0.0471166
0.0446584
0.0424233
0.0404214
0.0386694
0.0371472
0.0359811
0.1137
0.114197
0.114198
0.113627
0.112459
0.110727
0.108473
0.105764
0.102669
0.099269
0.0956387
0.0918541
0.0879745
0.0840586
0.0801472
0.0762805
0.0724839
0.0687844
0.0651974
0.0617439
0.0584348
0.055291
0.0523234
0.0495529
0.046991
0.0446565
0.0425599
0.0407209
0.0391189
0.0378852
0.115432
0.115996
0.116098
0.115652
0.114624
0.113041
0.110939
0.10838
0.105425
0.10215
0.0986254
0.0949233
0.091101
0.0872165
0.0833113
0.079427
0.0755912
0.0718336
0.0681726
0.0646324
0.0612269
0.0579802
0.0549059
0.0520278
0.0493597
0.0469224
0.0447285
0.0427995
0.0411144
0.0398157
0.117225
0.117857
0.118065
0.117744
0.116857
0.115423
0.113473
0.111061
0.108244
0.105092
0.10167
0.0980474
0.0942795
0.0904243
0.0865227
0.0826187
0.0787411
0.0749233
0.0711853
0.0675558
0.0640504
0.0606978
0.057513
0.0545238
0.0517455
0.0492019
0.0469066
0.0448842
0.0431133
0.0417415
0.119086
0.119788
0.120104
0.119912
0.119166
0.117882
0.116082
0.113817
0.111136
0.108104
0.104783
0.101238
0.0975232
0.0936953
0.0897958
0.0858703
0.0819493
0.0780689
0.0742521
0.0705306
0.0669231
0.0634614
0.0601634
0.0570598
0.0541682
0.0515149
0.0491153
0.0469963
0.0451361
0.0436937
0.121005
0.121781
0.122207
0.122146
0.121545
0.12041
0.118761
0.116641
0.114094
0.111181
0.107958
0.104489
0.100824
0.0970211
0.0931211
0.0891716
0.0852043
0.0812588
0.0773597
0.0735431
0.0698296
0.0662553
0.06284
0.0596181
0.0566089
0.053842
0.0513338
0.0491145
0.0471619
0.0456403
0.12299
0.123842
0.124381
0.124455
0.123998
0.123015
0.121517
0.119542
0.117129
0.114333
0.111206
0.107811
0.104195
0.100415
0.0965127
0.0925371
0.0885215
0.0845083
0.0805246
0.07661
0.0727877
0.0690973
0.0655615
0.0622177
0.0590876
0.0562034
0.0535834
0.0512603
0.0492117
0.0476135
0.125032
0.125961
0.126618
0.126829
0.126521
0.12569
0.124344
0.122514
0.120233
0.117553
0.114521
0.111198
0.107627
0.103868
0.0999611
0.0959568
0.0918897
0.0878057
0.0837337
0.0797174
0.0757821
0.0719717
0.0683108
0.0648409
0.0615853
0.0585796
0.0558429
0.0534121
0.0512639
0.0495801
0.127137
0.128147
0.128925
0.129276
0.12912
0.128444
0.12725
0.125565
0.123417
0.120852
0.117913
0.11466
0.111135
0.107395
0.103481
0.099445
0.0953241
0.0911664
0.0870033
0.082882
0.0788305
0.0748964
0.0711069
0.0675068
0.064122
0.0609907
0.0581343
0.0555919
0.0533404
0.0515733
0.129295
0.13039
0.131293
0.131789
0.131787
0.131268
0.130228
0.12869
0.126673
0.124223
0.121377
0.118192
0.114709
0.110985
0.107061
0.102992
0.0988136
0.0945788
0.0903205
0.0860902
0.0819178
0.0778556
0.0739325
0.0701978
0.0666786
0.0634173
0.0604358
0.0577777
0.0554188
0.053559
0.131514
0.132697
0.133729
0.134374
0.13453
0.134172
0.133288
0.131897
0.130013
0.127676
0.124922
0.121805
0.118363
0.114654
0.110718
0.106612
0.102374
0.0980583
0.0937017
0.0893585
0.0850618
0.0808671
0.0768066
0.0729328
0.0692755
0.0658797
0.0627697
0.0599919
0.0575217
0.0555715
0.133785
0.135058
0.136225
0.137024
0.137343
0.137147
0.136423
0.13518
0.133429
0.131206
0.128542
0.125491
0.122088
0.118391
0.114441
0.110295
0.105993
0.101593
0.0971339
0.0926735
0.0882472
0.0839154
0.0797122
0.0756944
0.0718933
0.0683584
0.0651142
0.0622119
0.0596262
0.0575753
0.136115
0.137482
0.138788
0.139746
0.140231
0.140203
0.13964
0.138547
0.13693
0.134821
0.132248
0.129262
0.125897
0.122211
0.118243
0.114055
0.109686
0.105199
0.100633
0.0960515
0.0914918
0.0870182
0.0826679
0.0785013
0.0745525
0.0708736
0.0674917
0.0644609
0.0617554
0.0596063
0.138494
0.139959
0.14141
0.142533
0.14319
0.143333
0.142934
0.141994
0.140512
0.138517
0.136034
0.133112
0.129783
0.126105
0.122117
0.117883
0.113444
0.108865
0.104188
0.0994795
0.0947808
0.0901603
0.0856571
0.0813365
0.0772338
0.0734059
0.0698802
0.0667158
0.0638859
0.0616275
0.140929
0.142497
0.144099
0.145391
0.146225
0.146544
0.146313
0.145528
0.144183
0.142304
0.139911
0.137052
0.133757
0.130085
0.126076
0.121793
0.11728
0.112605
0.107812
0.102973
0.0981315
0.0933589
0.0886983
0.0842184
0.0799575
0.0759757
0.0723024
0.0690001
0.0660415
0.0636762
0.143412
0.145087
0.146845
0.148314
0.149331
0.149829
0.14977
0.149143
0.147937
0.146174
0.143871
0.141075
0.137813
0.134145
0.13011
0.125775
0.121184
0.116408
0.111495
0.106521
0.101529
0.0965993
0.091775
0.0871302
0.0827047
0.0785634
0.074736
0.0712905
0.0681984
0.0657142
0.145951
0.147737
0.149658
0.15131
0.152514
0.153198
0.153315
0.152849
0.151784
0.150139
0.147926
0.145192
0.141963
0.138297
0.134234
0.129843
0.12517
0.12029
0.115253
0.110137
0.104991
0.0998983
0.0949053
0.0900901
0.0854954
0.0811894
0.0772041
0.073611
0.0703808
0.0677799
0.148534
0.150438
0.152529
0.154369
0.155768
0.156643
0.156941
0.156639
0.155718
0.154191
0.15207
0.149397
0.146198
0.142532
0.138439
0.133988
0.129229
0.12424
0.119072
0.113809
0.108504
0.103242
0.0980734
0.0930817
0.0883108
0.0838343
0.0796841
0.075938
0.0725648
0.0698351
0.151172
0.153199
0.155465
0.157501
0.159102
0.160173
0.160656
0.160523
0.159749
0.158343
0.156313
0.153702
0.150533
0.146864
0.142738
0.138224
0.133375
0.128272
0.122969
0.117554
0.112083
0.106646
0.101297
0.0961226
0.0911708
0.0865184
0.0821995
0.0782956
0.0747749
0.0719185
0.153852
0.156008
0.158458
0.160698
0.162506
0.16378
0.164454
0.164494
0.163869
0.162586
0.160649
0.158099
0.154958
0.151285
0.147122
0.142542
0.137599
0.132376
0.126931
0.121359
0.115716
0.110097
0.10456
0.0991972
0.0940568
0.0892222
0.0847272
0.0806601
0.0769869
0.0739929
0.156585
0.158877
0.161517
0.163967
0.165991
0.167475
0.168345
0.168562
0.16809
0.166932
0.16509
0.162601
0.159487
0.155808
0.151606
0.146955
0.141912
0.136565
0.130975
0.125238
0.119417
0.113611
0.10788
0.102322
0.0969884
0.091966
0.087291
0.0830559
0.0792261
0.0760979
0.159358
0.161791
0.16463
0.1673
0.169547
0.171247
0.172321
0.172721
0.172405
0.171375
0.169627
0.1672
0.164112
0.160425
0.15618
0.151455
0.146308
0.140831
0.135088
0.129181
0.123176
0.117175
0.111243
0.105483
0.0999475
0.0947307
0.0898676
0.0854589
0.0814677
0.0781965
0.162181
0.164763
0.167809
0.170707
0.173185
0.175109
0.176391
0.176979
0.176825
0.175924
0.174274
0.171908
0.168846
0.165148
0.160858
0.156055
0.150799
0.145187
0.139286
0.133202
0.127005
0.120803
0.114664
0.108695
0.102953
0.097536
0.0924811
0.0878937
0.083737
0.0803267
0.165042
0.167779
0.171041
0.174176
0.176895
0.17905
0.180549
0.18133
0.181342
0.180575
0.179023
0.176719
0.173681
0.16997
0.165632
0.160746
0.155377
0.149623
0.143558
0.13729
0.130895
0.124485
0.118129
0.111945
0.105988
0.100363
0.0951078
0.0903358
0.0860085
0.0824487
0.167952
0.17085
0.174338
0.177719
0.180687
0.183083
0.184805
0.185785
0.185967
0.185337
0.183885
0.181644
0.17863
0.174904
0.170514
0.165541
0.160053
0.154153
0.147916
0.141458
0.134858
0.128232
0.121655
0.115248
0.10907
0.103232
0.0977719
0.0928101
0.0883076
0.0846011
0.170895
0.173963
0.177686
0.181324
0.184551
0.187196
0.18915
0.190337
0.190694
0.190204
0.188855
0.186677
0.183686
0.179943
0.175497
0.170433
0.164821
0.158768
0.152354
0.145699
0.138886
0.132037
0.125227
0.11859
0.112182
0.106123
0.10045
0.0952916
0.0906082
0.0867437
0.173885
0.177129
0.181097
0.185002
0.188499
0.191402
0.193595
0.194995
0.195533
0.195187
0.193944
0.19183
0.188861
0.185098
0.180594
0.175434
0.169692
0.163479
0.156881
0.150021
0.142988
0.135908
0.128861
0.121986
0.115342
0.109056
0.103165
0.0978055
0.0929363
0.0889156
0.176905
0.180333
0.184557
0.188741
0.192519
0.195691
0.198132
0.199753
0.200478
0.20028
0.199144
0.197095
0.194147
0.190364
0.185797
0.180537
0.174659
0.168281
0.161492
0.15442
0.147159
0.13984
0.132545
0.125423
0.118534
0.112013
0.105894
0.100326
0.0952652
0.0910758
0.179968
0.183589
0.18808
0.192554
0.196623
0.200073
0.202773
0.204621
0.205539
0.205494
0.204468
0.202485
0.199558
0.195751
0.191118
0.185752
0.179733
0.173183
0.166194
0.158903
0.151406
0.14384
0.136291
0.128915
0.121775
0.115012
0.108662
0.10288
0.0976213
0.0932651
0.183059
0.186879
0.191649
0.196427
0.2008
0.20454
0.207507
0.209592
0.210709
0.210822
0.20991
0.207993
0.205086
0.201253
0.196552
0.191075
0.18491
0.17818
0.170986
0.163467
0.155726
0.147904
0.140089
0.13245
0.125049
0.118035
0.111443
0.10544
0.0999774
0.0954417
0.18619
0.190219
0.195279
0.200373
0.205062
0.209104
0.212348
0.214677
0.216001
0.216276
0.21548
0.213631
0.210744
0.206882
0.202107
0.196514
0.190196
0.183279
0.175872
0.168116
0.160123
0.152037
0.14395
0.136041
0.128373
0.121101
0.114264
0.108032
0.102361
0.0976473
0.189344
0.19359
0.198954
0.204377
0.209397
0.213752
0.217285
0.219869
0.221406
0.221849
0.221172
0.219392
0.216525
0.212632
0.207781
0.202068
0.19559
0.18848
0.180852
0.172852
0.164598
0.156238
0.147867
0.139677
0.13173
0.124193
0.117097
0.110631
0.104743
0.0998383
0.192534
0.197007
0.202688
0.208455
0.213817
0.218499
0.222331
0.225178
0.226936
0.227553
0.226999
0.225289
0.22244
0.218514
0.213582
0.207741
0.201097
0.193786
0.185928
0.177675
0.169151
0.160508
0.151847
0.143369
0.135138
0.127327
0.119971
0.113263
0.107153
0.102059
0.195743
0.200453
0.206464
0.21259
0.218311
0.223332
0.227477
0.230597
0.232585
0.23338
0.232953
0.231315
0.228484
0.224522
0.219507
0.213534
0.206718
0.199198
0.191103
0.182589
0.173785
0.164851
0.155885
0.147108
0.138581
0.130487
0.122857
0.1159
0.109561
0.104263
0.198984
0.20394
0.210298
0.216797
0.222891
0.228265
0.232734
0.236138
0.238363
0.239343
0.239046
0.237482
0.234667
0.230667
0.225562
0.219451
0.212456
0.204718
0.196377
0.187592
0.178499
0.169263
0.159987
0.150904
0.142074
0.13369
0.125783
0.11857
0.111996
0.106497
0.202239
0.207452
0.21417
0.221061
0.227544
0.233287
0.238093
0.241792
0.244264
0.245435
0.245273
0.243784
0.240986
0.236945
0.231748
0.225494
0.218313
0.210351
0.201756
0.19269
0.183299
0.173751
0.164149
0.154748
0.145604
0.13692
0.128721
0.121245
0.114428
0.108714
0.205522
0.211003
0.218098
0.225396
0.232284
0.23841
0.243566
0.247572
0.250298
0.251667
0.251644
0.250231
0.247449
0.243364
0.238069
0.231664
0.224289
0.216093
0.207234
0.197878
0.188179
0.178309
0.168377
0.15865
0.149185
0.140192
0.1317
0.123953
0.116887
0.11096
0.208813
0.214574
0.222062
0.229785
0.237097
0.243623
0.249144
0.253468
0.25646
0.258034
0.258154
0.256819
0.254053
0.249922
0.244527
0.237966
0.230391
0.221954
0.212823
0.203168
0.193149
0.182946
0.172666
0.162601
0.152801
0.143492
0.134691
0.126664
0.119343
0.113187
0.212127
0.218179
0.226078
0.234246
0.241998
0.24894
0.25484
0.259494
0.262761
0.264546
0.264813
0.263558
0.260806
0.256626
0.251123
0.244399
0.236614
0.227926
0.218512
0.208548
0.1982
0.187654
0.177021
0.16661
0.15647
0.146834
0.137722
0.129409
0.121825
0.115445
0.215444
0.2218
0.230128
0.238759
0.246972
0.254347
0.260643
0.265641
0.269192
0.271197
0.271617
0.270443
0.267707
0.263475
0.257863
0.25097
0.24297
0.234023
0.224318
0.214034
0.203345
0.192445
0.181439
0.170669
0.160176
0.150203
0.140764
0.132157
0.124303
0.117681
0.218777
0.225451
0.234227
0.243342
0.252034
0.259861
0.266566
0.271921
0.275768
0.277999
0.278575
0.277485
0.274762
0.270474
0.264746
0.257676
0.24945
0.240234
0.230226
0.21961
0.208571
0.197305
0.185924
0.174786
0.163933
0.153616
0.143847
0.134938
0.126808
0.119948
0.222108
0.229113
0.238356
0.247977
0.257169
0.265467
0.2726
0.278325
0.28248
0.284945
0.285684
0.284679
0.28197
0.277624
0.271779
0.264526
0.256069
0.246574
0.236255
0.225298
0.213895
0.202252
0.190473
0.178955
0.167727
0.157055
0.14694
0.13772
0.129305
0.122193
0.225449
0.2328
0.242532
0.25268
0.262393
0.27118
0.278757
0.284867
0.28934
0.292048
0.292952
0.292034
0.289338
0.28493
0.278958
0.271514
0.262813
0.253029
0.242387
0.231077
0.2193
0.207267
0.195089
0.183181
0.171574
0.160536
0.150074
0.140536
0.131831
0.124468
0.228781
0.236493
0.246735
0.257433
0.26769
0.276987
0.285028
0.291538
0.296341
0.2993
0.300377
0.299549
0.296865
0.292393
0.286294
0.278653
0.269703
0.259621
0.248646
0.236971
0.224807
0.212373
0.199771
0.18746
0.175457
0.164045
0.153217
0.143351
0.134348
0.126719
0.232116
0.240206
0.250981
0.262252
0.273075
0.282904
0.291425
0.29835
0.303495
0.306713
0.307966
0.307229
0.304556
0.300015
0.293779
0.285931
0.27672
0.266328
0.255008
0.242956
0.230394
0.217546
0.204519
0.191796
0.179392
0.167596
0.156401
0.146201
0.136893
0.129001
0.235435
0.243919
0.255251
0.267121
0.278534
0.288916
0.297938
0.305295
0.310795
0.314281
0.315718
0.315075
0.312414
0.307802
0.301429
0.293368
0.283887
0.273176
0.261501
0.249061
0.236087
0.222812
0.209333
0.196183
0.183364
0.171173
0.159592
0.149049
0.139428
0.131257
0.238752
0.247649
0.259561
0.272055
0.284083
0.29504
0.304581
0.312385
0.318253
0.322015
0.32364
0.323092
0.320439
0.315752
0.309231
0.300946
0.291184
0.280141
0.268097
0.255255
0.241859
0.228144
0.214214
0.200629
0.187387
0.174792
0.162825
0.15193
0.14199
0.133544
0.242047
0.251374
0.263893
0.277036
0.289705
0.30126
0.311342
0.319612
0.325862
0.329911
0.331731
0.33128
0.328638
0.323873
0.317205
0.308689
0.298638
0.287252
0.274829
0.261574
0.247739
0.233572
0.21916
0.205125
0.191447
0.178437
0.166064
0.154808
0.144541
0.135803
0.245336
0.255111
0.268261
0.282081
0.295416
0.307595
0.318237
0.326989
0.333633
0.337978
0.339996
0.339645
0.33701
0.332161
0.325332
0.316575
0.306221
0.294479
0.281664
0.267981
0.253696
0.239062
0.224173
0.209679
0.195557
0.182122
0.169343
0.15772
0.147119
0.138092
0.248596
0.258839
0.272647
0.287172
0.301201
0.314028
0.325254
0.334507
0.341562
0.346212
0.348437
0.348187
0.345562
0.340626
0.333639
0.324633
0.313968
0.30186
0.288641
0.274518
0.259767
0.244653
0.229253
0.214286
0.199703
0.185833
0.172626
0.160626
0.149684
0.140351
0.251846
0.262575
0.277067
0.292325
0.307077
0.320577
0.332408
0.342179
0.349658
0.354623
0.357058
0.356911
0.354291
0.349262
0.3421
0.332833
0.321843
0.309354
0.295716
0.281139
0.26591
0.250303
0.234397
0.218946
0.203897
0.189582
0.17595
0.163565
0.152275
0.142642
0.255062
0.266296
0.281501
0.297523
0.313026
0.327227
0.339687
0.349997
0.357915
0.363207
0.36586
0.365819
0.363206
0.358081
0.350748
0.341212
0.329893
0.317013
0.302946
0.287901
0.272177
0.256061
0.239613
0.223664
0.208124
0.193352
0.179274
0.166494
0.154848
0.144895
0.258263
0.270022
0.285964
0.302779
0.319065
0.333993
0.347104
0.357972
0.366345
0.371972
0.374847
0.374912
0.372302
0.367074
0.359551
0.349733
0.338067
0.324779
0.310267
0.294739
0.278508
0.26187
0.244887
0.22843
0.212399
0.197161
0.182637
0.169457
0.157448
0.147182
0.261422
0.273725
0.290437
0.308077
0.325177
0.340862
0.354651
0.366098
0.374943
0.380918
0.384022
0.384198
0.38159
0.376255
0.368548
0.358441
0.346431
0.332728
0.317762
0.301737
0.284978
0.267802
0.250244
0.233261
0.216702
0.200983
0.185994
0.172402
0.160022
0.149424
0.26456
0.277427
0.294933
0.313429
0.331377
0.347847
0.362338
0.374383
0.383715
0.390047
0.393385
0.39367
0.391061
0.385612
0.377699
0.367288
0.354913
0.340777
0.325338
0.308801
0.291502
0.273777
0.255649
0.238135
0.221051
0.204845
0.18939
0.175381
0.162623
0.151701
0.267647
0.281098
0.299432
0.31882
0.33765
0.354938
0.370159
0.382826
0.392663
0.399365
0.402943
0.403342
0.400729
0.395161
0.387047
0.376339
0.363605
0.349034
0.333116
0.316053
0.298195
0.279893
0.261163
0.243075
0.225425
0.208706
0.19277
0.178331
0.165187
0.15392
0.270705
0.284761
0.303948
0.324262
0.344007
0.362141
0.378118
0.391428
0.401786
0.408866
0.412691
0.413203
0.410583
0.404887
0.396551
0.385527
0.37241
0.357384
0.340966
0.32336
0.304931
0.286045
0.266714
0.248054
0.229843
0.212609
0.196189
0.181316
0.16778
0.156179
0.2737
0.288385
0.308462
0.329741
0.350439
0.369452
0.386217
0.400193
0.411093
0.418566
0.422641
0.423268
0.420635
0.414805
0.406253
0.394927
0.381437
0.365957
0.349033
0.330873
0.311853
0.292351
0.272386
0.2531
0.234284
0.216502
0.199586
0.184265
0.170331
0.158374
0.276659
0.291994
0.312992
0.33527
0.35695
0.376875
0.394453
0.409118
0.420573
0.42845
0.432782
0.433526
0.430876
0.424904
0.416117
0.404463
0.390571
0.374614
0.357159
0.338427
0.318802
0.298681
0.27808
0.258181
0.238768
0.220443
0.203026
0.187254
0.172915
0.160614
0.279543
0.295555
0.317513
0.340832
0.363536
0.384408
0.402833
0.418216
0.430248
0.438542
0.443133
0.443989
0.441313
0.435194
0.426174
0.414218
0.399934
0.383503
0.365513
0.346199
0.325952
0.305175
0.28391
0.263325
0.243272
0.224365
0.20644
0.190202
0.175453
0.162784
0.282381
0.299095
0.322048
0.346445
0.370202
0.392053
0.411353
0.427476
0.440099
0.448821
0.453679
0.454651
0.451945
0.445671
0.436401
0.424108
0.409401
0.392469
0.373919
0.354003
0.333118
0.311685
0.28975
0.268505
0.24782
0.22834
0.209897
0.193192
0.178026
0.165002
0.285134
0.302578
0.326569
0.35209
0.376943
0.399815
0.420025
0.436919
0.450156
0.459321
0.464445
0.465521
0.462773
0.456339
0.446819
0.43422
0.419093
0.401664
0.382544
0.362018
0.340481
0.318353
0.295728
0.273738
0.252388
0.232294
0.213331
0.196142
0.180556
0.167153
0.287833
0.306036
0.331105
0.357788
0.383771
0.407695
0.428843
0.446531
0.460396
0.470014
0.475413
0.476601
0.473808
0.467205
0.457414
0.444466
0.428885
0.410927
0.391211
0.370051
0.347845
0.325024
0.301703
0.279004
0.257
0.236306
0.216813
0.19914
0.183125
0.169355
0.290434
0.309428
0.335621
0.363516
0.390674
0.415696
0.437821
0.456335
0.470852
0.480939
0.48661
0.487891
0.485039
0.478262
0.4682
0.45493
0.438897
0.420411
0.40009
0.378289
0.355401
0.331852
0.307811
0.284321
0.261628
0.240296
0.220268
0.202099
0.185652
0.171489
0.292972
0.312788
0.340149
0.369298
0.397669
0.423825
0.446955
0.466319
0.481503
0.492068
0.49802
0.499403
0.496491
0.489527
0.479172
0.465529
0.449008
0.429958
0.409005
0.386538
0.362949
0.338676
0.313907
0.289671
0.2663
0.244345
0.223771
0.205103
0.188216
0.173673
0.295402
0.316073
0.34465
0.375106
0.404741
0.432081
0.456256
0.476504
0.492377
0.503437
0.509668
0.511128
0.50814
0.500986
0.490335
0.476345
0.459337
0.439723
0.41813
0.394989
0.370686
0.345655
0.320132
0.295066
0.270982
0.248368
0.227244
0.208066
0.190735
0.175786
0.297758
0.319319
0.349161
0.38097
0.411914
0.440476
0.465726
0.486882
0.503459
0.515022
0.521538
0.523091
0.520024
0.512664
0.50169
0.487295
0.46976
0.449545
0.427282
0.40344
0.378403
0.352615
0.326335
0.30049
0.275706
0.25245
0.230764
0.211074
0.19329
0.177949
0.299994
0.322479
0.353636
0.386855
0.419164
0.448999
0.475367
0.497465
0.51477
0.526852
0.533653
0.535267
0.532106
0.524535
0.513234
0.498461
0.480404
0.459585
0.436644
0.412095
0.386311
0.359737
0.332667
0.305956
0.280433
0.2565
0.234247
0.214035
0.195796
0.180035
0.302148
0.325591
0.358115
0.392795
0.426519
0.457667
0.485186
0.508249
0.526298
0.538907
0.545998
0.54769
0.544433
0.536629
0.524973
0.509759
0.491137
0.469677
0.446028
0.420742
0.394191
0.36683
0.338969
0.311447
0.285199
0.260605
0.237773
0.217037
0.198332
0.182168
0.304167
0.328606
0.362551
0.398752
0.433948
0.466464
0.495177
0.519241
0.538059
0.551211
0.55859
0.560328
0.556956
0.548912
0.536899
0.521273
0.502092
0.479989
0.455625
0.429596
0.402264
0.374086
0.345399
0.316974
0.28996
0.264671
0.241255
0.219986
0.200813
0.18422
0.306093
0.331566
0.366985
0.404763
0.441484
0.475412
0.505353
0.530442
0.550045
0.563744
0.571417
0.573219
0.569729
0.561423
0.549018
0.532913
0.513126
0.490339
0.465229
0.438427
0.410294
0.381297
0.351787
0.32252
0.294758
0.26879
0.24478
0.222974
0.203325
0.186317
0.307871
0.334415
0.371367
0.410784
0.449092
0.484486
0.515701
0.541852
0.562265
0.576529
0.584493
0.586322
0.582695
0.574116
0.56132
0.544769
0.524384
0.500913
0.475047
0.447467
0.41852
0.388676
0.358303
0.328098
0.299541
0.272863
0.248251
0.225902
0.205775
0.188326
0.309544
0.337201
0.37574
0.416857
0.456807
0.493712
0.526239
0.553475
0.574714
0.589547
0.597806
0.599681
0.595911
0.587037
0.573812
0.556744
0.535712
0.511515
0.484864
0.456473
0.426692
0.395998
0.364768
0.333688
0.304359
0.276985
0.251764
0.228867
0.208252
0.190379
0.311052
0.339863
0.380052
0.422934
0.46459
0.503065
0.536949
0.565309
0.5874
0.602818
0.611367
0.61325
0.609315
0.600133
0.586481
0.568933
0.547263
0.522339
0.494894
0.465691
0.435062
0.40349
0.37136
0.339304
0.309155
0.281054
0.255215
0.231765
0.210663
0.19234
0.312445
0.342452
0.384352
0.429061
0.472481
0.512572
0.547852
0.577359
0.600318
0.616323
0.625166
0.627077
0.622971
0.613456
0.599337
0.58123
0.55887
0.533176
0.504905
0.474855
0.443358
0.410906
0.377887
0.344927
0.313982
0.285169
0.258708
0.2347
0.213102
0.194345
0.313657
0.344904
0.38858
0.435186
0.480436
0.522203
0.558928
0.589621
0.613473
0.630083
0.639214
0.641108
0.636807
0.626945
0.612361
0.593739
0.570699
0.544235
0.51513
0.484232
0.451855
0.418495
0.384543
0.350567
0.318777
0.289224
0.262132
0.237563
0.215469
0.196253
0.314741
0.347273
0.392788
0.441358
0.488498
0.53199
0.570199
0.602104
0.626863
0.644078
0.653498
0.655398
0.650893
0.640658
0.625566
0.606346
0.582572
0.555294
0.525323
0.493542
0.460264
0.425994
0.391122
0.356209
0.323602
0.293322
0.265595
0.240459
0.217862
0.198206
0.315627
0.349493
0.396917
0.447523
0.496623
0.541902
0.581645
0.614799
0.640491
0.658329
0.668031
0.669887
0.665152
0.65453
0.638931
0.619161
0.594664
0.566572
0.535727
0.503065
0.468874
0.433668
0.397829
0.36186
0.328386
0.297351
0.268983
0.243278
0.220178
0.200058
0.316372
0.35162
0.40102
0.453733
0.504856
0.551973
0.593289
0.627718
0.654356
0.672814
0.682799
0.684633
0.67966
0.668621
0.652471
0.632059
0.606782
0.577832
0.546079
0.512498
0.477375
0.441231
0.404443
0.367508
0.333197
0.301424
0.27241
0.24613
0.222521
0.201955
0.316903
0.353583
0.405034
0.459931
0.513148
0.562168
0.605108
0.640851
0.668461
0.687556
0.697814
0.699573
0.694331
0.68286
0.666159
0.645162
0.619117
0.589308
0.55664
0.522144
0.486078
0.448971
0.411187
0.373155
0.337957
0.305419
0.275754
0.248899
0.224783
0.203747
0.31728
0.355443
0.409016
0.46617
0.521549
0.572524
0.617128
0.65421
0.682803
0.702531
0.713061
0.714767
0.709247
0.697313
0.680014
0.658335
0.631463
0.60075
0.567134
0.531686
0.494657
0.456585
0.417824
0.378794
0.342742
0.309454
0.279134
0.251699
0.227069
0.205583
0.317424
0.357125
0.412898
0.472392
0.530007
0.583004
0.629325
0.667785
0.697386
0.717765
0.728553
0.730147
0.724317
0.711903
0.694007
0.671706
0.64402
0.612403
0.577833
0.541438
0.503436
0.464376
0.424591
0.384423
0.347465
0.313403
0.282425
0.254411
0.229269
0.20731
0.317402
0.358695
0.416745
0.478655
0.538576
0.59365
0.641728
0.681589
0.712208
0.733228
0.744273
0.74578
0.739627
0.726701
0.708158
0.68513
0.656569
0.624002
0.588443
0.551063
0.512069
0.472019
0.431233
0.390039
0.352213
0.317392
0.285753
0.257154
0.231494
0.20908
0.317129
0.360071
0.420481
0.484895
0.547201
0.60442
0.654307
0.695609
0.727269
0.74895
0.760238
0.76159
0.75508
0.741622
0.722432
0.698747
0.669323
0.635806
0.599252
0.560894
0.520901
0.479841
0.438007
0.395633
0.356887
0.321286
0.288984
0.259804
0.233629
0.210739
0.316675
0.361324
0.424175
0.491174
0.555937
0.615357
0.667096
0.709861
0.742571
0.764899
0.776423
0.777647
0.770766
0.756744
0.736854
0.712399
0.682053
0.647539
0.609957
0.570584
0.529571
0.487499
0.444641
0.401211
0.361583
0.325217
0.29225
0.262481
0.235786
0.212439
0.315951
0.362369
0.42775
0.497425
0.564727
0.626419
0.680062
0.72433
0.758111
0.781105
0.792848
0.793871
0.786582
0.771973
0.751384
0.726235
0.694979
0.65947
0.620854
0.580475
0.538438
0.495335
0.451406
0.406757
0.366194
0.329046
0.295412
0.265061
0.23785
0.214025
0.315033
0.363281
0.431277
0.503715
0.573631
0.637653
0.693241
0.739032
0.77389
0.797532
0.809487
0.810336
0.802625
0.787395
0.766052
0.740087
0.707858
0.671308
0.631624
0.5902
0.547118
0.502985
0.458012
0.41228
0.370828
0.33291
0.298609
0.267668
0.239936
0.215653
0.313826
0.363968
0.434674
0.50997
0.582587
0.649012
0.706598
0.75395
0.789905
0.814214
0.826363
0.826957
0.818782
0.802907
0.780809
0.754115
0.720926
0.683335
0.642578
0.600122
0.555993
0.510812
0.464752
0.417759
0.375365
0.336663
0.301696
0.270173
0.241925
0.217163
0.312411
0.364513
0.438017
0.516263
0.591658
0.660544
0.720169
0.769103
0.806158
0.831112
0.843442
0.843811
0.835157
0.818601
0.795693
0.768139
0.733928
0.69525
0.65339
0.609861
0.564666