/*--------------------------------*- C++ -*----------------------------------*\
  =========                 |
  \\      /  F ield         | OpenFOAM: The Open Source CFD Toolbox
   \\    /   O peration     | Website:  https://openfoam.org
    \\  /    A nd           | Version:  6.0
     \\/     M anipulation  |
\*---------------------------------------------------------------------------*/
FoamFile
{
    version     2.0;
    format      ascii;
    class       surfaceScalarField;
    location    "2";
    object      phi;
}
// * * * * * * * * * * * * * * * * * * * * * * * * * * * * * * * * * * * * * //

dimensions      [0 3 -1 0 0 0 0];

internalField   nonuniform List<scalar> 
93586
(
2.32431e-05
0.00154671
9.80816e-08
4.69321e-05
0.00154184
7.08264e-05
0.00153262
9.47364e-05
0.00151909
0.000118533
0.00150129
0.000142068
0.00147931
0.00016526
0.00145326
0.000187993
0.00142328
0.000210214
0.0013895
0.000231838
0.00135205
0.000252822
0.00131103
0.000273101
0.00126655
0.000292633
0.00121871
0.00031136
0.0011676
0.000329238
0.00111334
0.000346213
0.00105605
0.000362241
0.000995858
0.000377274
0.000932927
0.00039127
0.000867405
0.000404188
0.000799466
0.000415992
0.000729281
0.000426647
0.000657037
0.000436122
0.000582916
0.00044439
0.000507112
0.000451427
0.00042981
0.00045721
0.000351202
0.000461724
0.000271461
0.000464945
0.000190747
0.000466796
0.000109166
2.60077e-05
0.000467004
2.30529e-05
0.00152354
9.75149e-08
4.65211e-05
0.00151835
7.01522e-05
0.00150897
9.37533e-05
0.00149545
0.000117199
0.00147781
0.000140354
0.00145611
0.000163147
0.00143042
0.000185476
0.0014009
0.000207297
0.00136763
0.000228533
0.00133076
0.000249143
0.00129038
0.000269064
0.00124659
0.000288257
0.00119947
0.000306663
0.00114915
0.000324239
0.00109573
0.000340929
0.00103932
0.000356692
0.000980064
0.000371477
0.00091811
0.000385245
0.000853609
0.000397952
0.00078673
0.000409566
0.000717643
0.000420048
0.00064653
0.000429371
0.00057357
0.000437505
0.000498954
0.000444428
0.000422865
0.000450119
0.000345489
0.000454558
0.000266999
0.000457722
0.000187559
0.000459552
0.000107311
2.56001e-05
0.000459925
2.27572e-05
0.00150069
9.76646e-08
4.59136e-05
0.00149519
6.92148e-05
0.00148567
9.24694e-05
0.00147219
0.000115556
0.00145472
0.000138344
0.0014333
0.000160769
0.00140799
0.000182734
0.00137892
0.000204198
0.00134616
0.000225087
0.00130986
0.000245362
0.0012701
0.000264961
0.00122698
0.000283844
0.00118059
0.000301954
0.00113104
0.000319248
0.00107843
0.000335671
0.00102289
0.000351183
0.000964554
0.000365732
0.00090356
0.000379282
0.000840062
0.000391787
0.000774225
0.000403216
0.000706217
0.000413532
0.000636216
0.000422708
0.000564399
0.000430713
0.000490952
0.000437526
0.000416056
0.000443125
0.000339894
0.000447492
0.000262638
0.000450602
0.000184455
0.000452412
0.000105509
2.51411e-05
0.000452887
2.24397e-05
0.00147814
9.7857e-08
4.52667e-05
0.00147235
6.82259e-05
0.00146269
9.11293e-05
0.00144926
0.000113858
0.00143197
0.000136287
0.00141084
0.000158355
0.0013859
0.00017997
0.00135726
0.000201091
0.00132501
0.000221647
0.00128927
0.0002416
0.00125012
0.000260888
0.00120766
0.000279473
0.00116198
0.000297296
0.00111318
0.000314317
0.00106138
0.000330481
0.0010067
0.000345748
0.000949264
0.000360067
0.000889215
0.000373404
0.000826704
0.000385712
0.000761894
0.000396961
0.000694948
0.000407115
0.000626042
0.000416146
0.00055535
0.000424024
0.000483054
0.00043073
0.000409332
0.00043624
0.000334365
0.000440536
0.000258323
0.000443594
0.000181376
0.000445385
0.000103696
2.45944e-05
0.000445902
2.21097e-05
0.00145593
9.89188e-08
4.45973e-05
0.00144986
6.72089e-05
0.00144008
8.97599e-05
0.0014267
0.000112134
0.0014096
0.000134211
0.00138876
0.000155931
0.00136418
0.000177206
0.00133598
0.000197996
0.00130423
0.000218229
0.00126903
0.00023787
0.00123048
0.000256857
0.00118867
0.000275152
0.00114369
0.000292696
0.00109564
0.000309451
0.00104464
0.000325362
0.000990794
0.00034039
0.000934243
0.000354485
0.000875124
0.000367612
0.000813584
0.000379728
0.000749784
0.000390801
0.000683882
0.000400795
0.000616053
0.000409684
0.000546467
0.000417439
0.000475305
0.000424039
0.00040274
0.000429461
0.00032895
0.000433688
0.000254104
0.000436697
0.000178374
0.000438469
0.000101934
2.40779e-05
0.000439003
2.17734e-05
0.00143405
1.00701e-07
4.39171e-05
0.0014277
6.61794e-05
0.00141781
8.83794e-05
0.00140448
0.000110403
0.00138756
0.000132135
0.00136699
0.000153515
0.00134278
0.000174457
0.00131501
0.000194924
0.00128373
0.000214844
0.00124908
0.000234181
0.00121112
0.000252874
0.00116995
0.000270886
0.00112565
0.000288158
0.00107834
0.000304653
0.00102812
0.000320316
0.000975106
0.00033511
0.000919429
0.000348985
0.000861227
0.000361908
0.000800644
0.000373835
0.000737837
0.000384735
0.000672965
0.000394572
0.000606196
0.000403323
0.000537701
0.000410956
0.000467654
0.000417452
0.000396228
0.000422788
0.000323596
0.000426947
0.000249928
0.000429909
0.000175393
0.00043166
0.000100164
2.35109e-05
0.000432199
2.14351e-05
0.00141252
9.51035e-08
4.32339e-05
0.00140591
6.51477e-05
0.0013959
8.69997e-05
0.00138262
0.000108678
0.00136589
0.000130069
0.0013456
0.000151116
0.00132174
0.000171734
0.00129439
0.000191885
0.00126359
0.000211498
0.00122947
0.000230538
0.00119209
0.000248944
0.00115155
0.000266678
0.00110793
0.000283684
0.00106134
0.000299924
0.00101189
0.000315345
0.000959692
0.00032991
0.000904874
0.000343569
0.000847573
0.000356291
0.000787931
0.000368032
0.000726103
0.000378762
0.000662244
0.000388446
0.000596518
0.00039706
0.000529096
0.000404573
0.000460148
0.000410968
0.000389842
0.000416219
0.000318351
0.000420313
0.000245843
0.000423229
0.000172485
0.000424957
9.8446e-05
2.29904e-05
0.000425496
2.10974e-05
0.00139131
9.38425e-08
4.25527e-05
0.00138443
6.41209e-05
0.00137432
8.56287e-05
0.00136109
0.000106966
0.00134453
0.000128023
0.00132452
0.000148743
0.001301
0.000169042
0.00127406
0.000188883
0.00124373
0.000208196
0.00121013
0.000226945
0.00117332
0.000245068
0.0011334
0.00026253
0.00109045
0.000279275
0.00104457
0.000295265
0.00099588
0.000310448
0.000944487
0.000324787
0.000890516
0.000338235
0.000834105
0.00035076
0.00077539
0.000362318
0.000714526
0.000372882
0.000651665
0.000382415
0.000586968
0.000390894
0.000520602
0.00039829
0.000452735
0.000404584
0.000383533
0.000409753
0.000313166
0.000413782
0.000241798
0.000416653
0.000169596
0.000418359
9.67222e-05
2.24298e-05
0.000418893
2.07618e-05
0.00137046
9.35806e-08
4.18768e-05
0.00136332
6.31032e-05
0.0013531
8.42713e-05
0.00133993
0.000105273
0.00132354
0.000126001
0.00130379
0.000146399
0.00128061
0.000166386
0.00125408
0.000185922
0.0012242
0.00020494
0.00119112
0.000223402
0.00115487
0.000241248
0.00111556
0.000258444
0.00107326
0.000274931
0.00102809
0.000290676
0.000980147
0.000305625
0.000929546
0.000319743
0.000876409
0.000332983
0.000820872
0.000345314
0.00076307
0.000356693
0.000703155
0.000367092
0.000641275
0.000376477
0.00057759
0.000384825
0.000512264
0.000392105
0.000445461
0.000398301
0.000377346
0.000403388
0.000308085
0.000407354
0.000237841
0.000410181
0.000166777
0.000411863
9.50509e-05
2.19192e-05
0.000412391
2.04298e-05
0.00134993
9.3542e-08
4.12086e-05
0.00134253
6.20976e-05
0.00133219
8.29309e-05
0.00131907
0.000103602
0.00130285
0.000124007
0.00128336
0.000144089
0.00126051
0.000163767
0.00123438
0.000183004
0.00120495
0.000201731
0.00117237
0.000219911
0.00113668
0.000237486
0.00109796
0.000254418
0.00105631
0.000270653
0.00101183
0.000286157
0.000964627
0.000300875
0.000914806
0.000314776
0.000862492
0.000327811
0.000807817
0.000339952
0.000750915
0.000351154
0.000691934
0.000361393
0.000631022
0.000370631
0.000568334
0.000378849
0.000504032
0.000386016
0.000438278
0.000392115
0.000371233
0.000397122
0.000303061
0.000401027
0.000233921
0.00040381
0.000163976
0.000405468
9.33755e-05
2.13724e-05
0.000405989
2.01019e-05
0.00132974
9.37065e-08
4.05492e-05
0.00132209
6.11058e-05
0.00131165
8.16094e-05
0.00129857
0.000101956
0.00128251
0.000122042
0.00126328
0.000141812
0.00124075
0.000161187
0.00121501
0.000180129
0.00118602
0.00019857
0.00115393
0.000216474
0.00111879
0.00023378
0.00108066
0.000250454
0.00103965
0.00026644
0.000995857
0.000281706
0.000949375
0.000296199
0.000900322
0.000309886
0.000848817
0.00032272
0.00079499
0.000334673
0.000738974
0.000345701
0.000680913
0.000355782
0.000620952
0.000364877
0.000559245
0.000372967
0.000495952
0.000380022
0.00043123
0.000386026
0.000365238
0.000390955
0.000298138
0.000394798
0.000230087
0.000397539
0.000161244
0.000399172
9.17525e-05
2.08756e-05
0.000399686
1.97789e-05
0.00130985
9.37699e-08
3.98996e-05
0.00130195
6.01289e-05
0.0012914
8.0308e-05
0.00127838
0.000100334
0.00126247
0.000120107
0.00124348
0.00013957
0.00122127
0.000158647
0.00119591
0.000177299
0.00116735
0.000195458
0.00113575
0.000213088
0.00110114
0.00023013
0.0010636
0.00024655
0.00102322
0.000262292
0.000980093
0.000277324
0.000934327
0.000291594
0.000886033
0.000305071
0.000835326
0.000317706
0.000782335
0.000329475
0.000727192
0.000340333
0.000670037
0.000350257
0.000611014
0.000359211
0.000550274
0.000367176
0.000487974
0.000374121
0.000424269
0.000380032
0.000359314
0.000384884
0.000293269
0.000388668
0.000226289
0.000391366
0.000158527
0.000392975
9.01261e-05
2.03444e-05
0.00039348
1.94608e-05
0.00129031
9.38179e-08
3.92601e-05
0.00128216
5.91674e-05
0.00127151
7.90271e-05
0.00125852
9.87383e-05
0.00124277
0.000118202
0.00122403
0.000137364
0.00120212
0.000156147
0.00117713
0.000174513
0.001149
0.000192394
0.00111788
0.000209755
0.00108379
0.000226537
0.00104683
0.000242707
0.00100706
0.000258208
0.000964601
0.00027301
0.00091954
0.00028706
0.000871991
0.00030033
0.00082207
0.000312771
0.000769902
0.000324358
0.000715617
0.000335048
0.000659355
0.000344819
0.000601255
0.000353634
0.000541466
0.000361476
0.000480143
0.000368313
0.000417438
0.000374131
0.000353505
0.000378907
0.0002885
0.000382632
0.000222573
0.000385289
0.000155879
0.000386874
8.85514e-05
1.98623e-05
0.000387372
1.9148e-05
0.00127105
9.37323e-08
3.86311e-05
0.00126266
5.82217e-05
0.0012519
7.77672e-05
0.00123896
9.71684e-05
0.00122335
0.000116328
0.00120484
0.000135193
0.00118324
0.000153686
0.00115861
0.00017177
0.0011309
0.000189378
0.00110025
0.000206474
0.00106668
0.000223
0.00103028
0.000238922
0.000991126
0.000254186
0.000949317
0.000268762
0.00090495
0.000282597
0.000858137
0.000295662
0.00080899
0.000307912
0.000757634
0.000319321
0.000704195
0.000329846
0.000648812
0.000339465
0.000591622
0.000348144
0.000532771
0.000355864
0.000472411
0.000362594
0.000410692
0.000368322
0.000347763
0.000373024
0.000283781
0.000376692
0.000218892
0.000379307
0.000153246
0.000380868
8.69737e-05
1.9347e-05
0.000381358
1.88403e-05
0.00125213
9.36054e-08
3.80126e-05
0.0012435
5.72916e-05
0.00123264
7.65282e-05
0.00121973
9.56244e-05
0.00120427
0.000114485
0.00118599
0.000133057
0.00116468
0.000151265
0.00114041
0.000169071
0.00111311
0.00018641
0.00108292
0.000203245
0.00104987
0.000219518
0.00101402
0.000235197
0.000975464
0.000250227
0.000934296
0.00026458
0.000890613
0.000278202
0.000844524
0.000291067
0.000796139
0.000303128
0.000745581
0.000314361
0.000692975
0.000324724
0.000638458
0.000334195
0.000582162
0.000342739
0.000524233
0.000350339
0.000464821
0.000356965
0.000404072
0.000362605
0.000342134
0.000367233
0.000279158
0.000370844
0.000215291
0.000373418
0.000150678
0.000374955
8.54467e-05
1.88797e-05
0.000375438
1.85379e-05
0.00123348
9.33997e-08
3.74045e-05
0.00122462
5.63773e-05
0.00121365
7.53099e-05
0.00120078
9.4106e-05
0.00118546
0.000112672
0.0011674
0.000130956
0.00114638
0.000148883
0.00112247
0.000166415
0.00109556
0.000183488
0.00106583
0.000200066
0.00103327
0.00021609
0.000997974
0.00023153
0.00096001
0.00024633
0.000919476
0.000260463
0.000876468
0.000273876
0.000831092
0.000286544
0.000783458
0.000298419
0.000733688
0.000309479
0.000681903
0.000319681
0.000628238
0.000329006
0.000572825
0.000337418
0.000515805
0.000344901
0.000457326
0.000351424
0.000397532
0.000356976
0.000336569
0.000361532
0.000274585
0.000365087
0.000211722
0.000367622
0.000148126
0.000369135
8.39166e-05
1.83801e-05
0.00036961
1.82406e-05
0.00121516
9.31618e-08
3.68068e-05
0.00120606
5.54784e-05
0.00119499
7.4112e-05
0.00118215
9.26129e-05
0.00116697
0.000110889
0.00114914
0.000128889
0.0011284
0.000146539
0.00110482
0.000163802
0.00107832
0.000180613
0.00104903
0.000196937
0.00101697
0.000212716
0.000982206
0.00022792
0.000944824
0.000242493
0.000904913
0.000256409
0.000862568
0.000269617
0.000817894
0.00028209
0.000771
0.000293782
0.000722004
0.000304672
0.000671027
0.000314717
0.000618201
0.000323898
0.000563656
0.00033218
0.00050753
0.000339547
0.00044997
0.000345969
0.000391117
0.000351435
0.000331113
0.000355921
0.000270105
0.00035942
0.000208233
0.000361916
0.000145637
0.000363406
8.24361e-05
1.79273e-05
0.000363873
1.79485e-05
0.00119711
9.29099e-08
3.62192e-05
0.00118777
5.45948e-05
0.0011766
7.29344e-05
0.0011638
9.11446e-05
0.00114875
0.000109136
0.00113112
0.000126856
0.00111066
0.000144233
0.00108743
0.00016123
0.0010613
0.000177783
0.00103246
0.000193857
0.00100088
0.000209395
0.000966649
0.000224366
0.00092984
0.000238716
0.000890544
0.000252419
0.000848853
0.000265424
0.000804871
0.000277706
0.000758706
0.000289218
0.000710474
0.00029994
0.000660293
0.00030983
0.000608294
0.00031887
0.000554604
0.000327023
0.00049936
0.000334277
0.000442705
0.000340599
0.000384778
0.00034598
0.000325719
0.000350397
0.000265672
0.000353842
0.000204773
0.000356299
0.000143162
0.000357766
8.09524e-05
1.7443e-05
0.000358225
1.76613e-05
0.00117936
9.26373e-08
3.56416e-05
0.00116981
5.37261e-05
0.00115853
7.17764e-05
0.00114575
8.97009e-05
0.00113084
0.000107411
0.00111342
0.000124856
0.00109323
0.000141965
0.00107033
0.0001587
0.00104459
0.000174999
0.00101617
0.000190826
0.000985072
0.000206126
0.000951362
0.000220867
0.000915116
0.000234998
0.000876424
0.000248491
0.000835376
0.000261296
0.000792076
0.000273389
0.000746628
0.000284725
0.000699147
0.000295282
0.00064975
0.000305019
0.000598565
0.00031392
0.000545716
0.000321947
0.000491339
0.000329089
0.000435574
0.000335313
0.000378559
0.000340611
0.000320431
0.000344959
0.000261329
0.000348351
0.000201391
0.000350769
0.00014075
0.000352214
7.95172e-05
1.70044e-05
0.000352666
1.73791e-05
0.00116188
9.24036e-08
3.50739e-05
0.0011521
5.28721e-05
0.00114072
7.0638e-05
0.00112797
8.82811e-05
0.00111318
0.000105715
0.00109597
0.000122889
0.00107604
0.000139733
0.00105347
0.00015621
0.0010281
0.000172258
0.0010001
0.000187843
0.000969476
0.000202908
0.000936279
0.000217424
0.000900588
0.000231338
0.000862492
0.000244624
0.000822079
0.000257233
0.00077945
0.00026914
0.000734709
0.000280301
0.000687969
0.000290696
0.000639344
0.000300283
0.000588961
0.000309047
0.000536942
0.00031695
0.000483419
0.000323981
0.000428532
0.000330109
0.000372415
0.000335325
0.000315202
0.000339606
0.000257032
0.000342945
0.000198038
0.000345326
0.000138351
0.000346749
7.80786e-05
1.65348e-05
0.000347193
1.71016e-05
0.0011447
9.21513e-08
3.45158e-05
0.00113469
5.20325e-05
0.00112322
6.95186e-05
0.0011105
8.68849e-05
0.00109583
0.000104047
0.00107882
0.000120953
0.00105915
0.000137537
0.00103689
0.00015376
0.00101189
0.000169561
0.000984315
0.000184907
0.00095415
0.000199741
0.000921457
0.000214034
0.000886313
0.000227735
0.000848803
0.000240818
0.000809013
0.000253233
0.000767046
0.000264957
0.000723
0.000275947
0.000676988
0.000286182
0.000629123
0.000295621
0.000579529
0.00030425
0.000528326
0.000312031
0.000475644
0.000318954
0.00042162
0.000324987
0.000366387
0.000330122
0.000310076
0.000334336
0.000252823
0.000337624
0.000194759
0.000339969
0.000136012
0.000341368
7.66874e-05
1.611e-05
0.000341806
1.68289e-05
0.00112777
9.19744e-08
3.3967e-05
0.00111754
5.1207e-05
0.00110597
6.84178e-05
0.00109327
8.55119e-05
0.00107872
0.000102406
0.00106191
0.00011905
0.0010425
0.000135376
0.00102055
0.000151349
0.000995905
0.000166907
0.00096874
0.000182017
0.000939028
0.000196623
0.000906833
0.000210698
0.000872227
0.000224188
0.000835294
0.000237071
0.00079612
0.000249295
0.000754804
0.00026084
0.000711444
0.00027166
0.000666151
0.000281738
0.000619035
0.000291032
0.000570218
0.000299527
0.000519819
0.000307188
0.000467966
0.000314004
0.000414793
0.000319944
0.000360431
0.000325001
0.000305007
0.000329149
0.000248658
0.000332386
0.000191508
0.000334694
0.000133686
0.000336073
7.52925e-05
1.56547e-05
0.000336503
1.65606e-05
0.00111113
9.17763e-08
3.34275e-05
0.00110069
5.03953e-05
0.00108901
6.73354e-05
0.00107634
8.41615e-05
0.00106191
0.000100792
0.00104529
0.000117177
0.00102613
0.000133251
0.00100449
0.000148977
0.000980198
0.000164295
0.000953435
0.000179173
0.000924171
0.000193555
0.000892464
0.000207414
0.000858388
0.000220697
0.000822022
0.000233382
0.000783454
0.000245418
0.000742778
0.000256786
0.000700092
0.00026744
0.000655506
0.000277363
0.000609126
0.000286514
0.000561075
0.000294878
0.000511467
0.000302421
0.000460429
0.000309132
0.000408094
0.000314981
0.000354588
0.000319959
0.000300039
0.000324043
0.000244578
0.00032723
0.00018833
0.000329502
0.00013142
0.000330859
7.39439e-05
1.52433e-05
0.000331283
1.6297e-05
0.00109473
9.16795e-08
3.28971e-05
0.00108407
4.95972e-05
0.0010723
6.62709e-05
0.00105965
8.28333e-05
0.00104533
9.9204e-05
0.0010289
0.000115334
0.00100998
0.000131159
0.000988644
0.000146642
0.000964702
0.000161725
0.000938336
0.000176374
0.000909511
0.000190535
0.000878286
0.000204181
0.000844731
0.00021726
0.000808925
0.000229751
0.000770953
0.000241602
0.000730909
0.000252796
0.000688888
0.000263285
0.000644999
0.000273056
0.000599346
0.000282066
0.000552048
0.000290302
0.000503221
0.000297729
0.000452985
0.000304336
0.000401475
0.000310094
0.000348814
0.000314996
0.000295125
0.000319017
0.000240539
0.000322155
0.000185178
0.000324392
0.000129164
0.000325728
7.25913e-05
1.48018e-05
0.000326144
1.60376e-05
0.00107861
9.15527e-08
3.23755e-05
0.00106775
4.88123e-05
0.00105588
6.52239e-05
0.00104325
8.15269e-05
0.00102905
9.76421e-05
0.0010128
0.000113522
0.000994121
0.000129101
0.000973078
0.000144345
0.000949477
0.000159195
0.0009235
0.000173619
0.000895108
0.000187562
0.000864356
0.000200999
0.000831314
0.000213878
0.000796059
0.000226177
0.000758673
0.000237846
0.00071925
0.000248868
0.000677883
0.000259196
0.000634679
0.000268817
0.00058974
0.000277688
0.000543184
0.000285797
0.000495124
0.000293109
0.000445679
0.000299615
0.000394981
0.000305284
0.00034315
0.00031011
0.000290309
0.000314069
0.000236585
0.000317159
0.000182098
0.000319361
0.000126967
0.000320676
7.12841e-05
1.44034e-05
0.000321086
1.57827e-05
0.00106272
9.15435e-08
3.18625e-05
0.00105166
4.80404e-05
0.00103969
6.41943e-05
0.00102708
8.02419e-05
0.00101299
9.61057e-05
0.000996915
0.000111738
0.000978475
0.000127076
0.000957722
0.000142085
0.000934457
0.000156705
0.000908862
0.000170907
0.000880896
0.000184637
0.00085061
0.000197867
0.000818073
0.000210548
0.000783361
0.000222658
0.000746553
0.000234148
0.000707743
0.000245001
0.000667021
0.00025517
0.000624492
0.000264643
0.000580258
0.000273378
0.000534433
0.000281363
0.000487129
0.000288562
0.000438463
0.000294968
0.000388564
0.000300549
0.000337552
0.000305301
0.000285545
0.000309199
0.000232669
0.000312241
0.000179042
0.000314409
0.00012478
0.000315704
6.99725e-05
1.39754e-05
0.000316107
1.55318e-05
0.00104711
9.14954e-08
3.1358e-05
0.00103584
4.72812e-05
0.00102378
6.31814e-05
0.00101119
7.89779e-05
0.000997206
9.45942e-05
0.000981312
0.000109983
0.000963103
0.000125084
0.000942635
0.00013986
0.0009197
0.000154256
0.000894482
0.000168239
0.000866934
0.000181757
0.000837107
0.000194784
0.000805066
0.00020727
0.000770887
0.000219195
0.000734648
0.000230509
0.00069644
0.000241194
0.000656352
0.000251208
0.000614487
0.000260535
0.000570945
0.000269135
0.00052584
0.000276997
0.00047928
0.000284086
0.00043138
0.000290393
0.000382268
0.000295889
0.000332061
0.000300567
0.000280876
0.000304405
0.000228836
0.0003074
0.000176056
0.000309534
0.000122651
0.000310809
6.87054e-05
1.35896e-05
0.000311205
1.52852e-05
0.00103173
9.1577e-08
3.08618e-05
0.00102025
4.65345e-05
0.0010081
6.21852e-05
0.000995528
7.77345e-05
0.000981644
9.31071e-05
0.000965922
0.000108257
0.00094794
0.000123123
0.000927752
0.000137671
0.000905141
0.000151844
0.000880293
0.000165612
0.000853156
0.000178923
0.00082378
0.00019175
0.000792229
0.000204044
0.000758576
0.000215785
0.000722897
0.000226925
0.000685283
0.000237447
0.00064582
0.000247307
0.00060461
0.000256491
0.000561752
0.000264959
0.000517355
0.0002727
0.000471528
0.00027968
0.000424384
0.00028589
0.000376047
0.000291301
0.000326633
0.000295907
0.000276257
0.000299685
0.00022504
0.000302634
0.000173093
0.000304736
0.00012053
0.000305991
6.74336e-05
1.31746e-05
0.00030638
1.50425e-05
0.00101661
9.16075e-08
3.03737e-05
0.00100494
4.58e-05
0.000992688
6.12052e-05
0.000980137
7.65112e-05
0.000966355
9.16441e-05
0.000950803
0.000106558
0.000933044
0.000121194
0.000913131
0.000135517
0.000890838
0.000149471
0.000866354
0.000163028
0.000839621
0.000176133
0.00081069
0.000188763
0.000779619
0.000200868
0.000746483
0.00021243
0.000711356
0.000223399
0.000674325
0.000233759
0.000635477
0.000243467
0.000594911
0.00025251
0.000552724
0.000260848
0.000509025
0.00026847
0.000463919
0.000275342
0.000417517
0.000281457
0.000369944
0.000286784
0.000321311
0.00029132
0.000271731
0.00029504
0.000221323
0.000297943
0.000170198
0.000300012
0.000118466
0.000301248
6.62053e-05
1.28011e-05
0.000301631
1.48039e-05
0.0010017
9.17748e-08
2.98937e-05
0.000989834
4.50775e-05
0.000977491
6.02412e-05
0.000964958
7.53078e-05
0.000951275
9.02047e-05
0.000935889
0.000104887
0.000918348
0.000119296
0.000898705
0.000133397
0.000876725
0.000147136
0.000852598
0.000160483
0.000826265
0.000173387
0.00079777
0.000185823
0.000767173
0.000197742
0.000734547
0.000209126
0.000699963
0.000219927
0.000663507
0.000230128
0.000625266
0.000239687
0.000585335
0.000248591
0.00054381
0.000256801
0.000500799
0.000264306
0.000456403
0.000271072
0.000410734
0.000277093
0.000363912
0.000282339
0.000316048
0.000286805
0.000267253
0.000290467
0.000217643
0.000293326
0.000167325
0.000295363
0.00011641
0.000296579
6.49719e-05
1.23986e-05
0.000296956
1.4569e-05
0.000987054
9.18806e-08
2.94214e-05
0.000974997
4.43667e-05
0.000962564
5.92928e-05
0.000950046
7.41238e-05
0.000936461
8.87884e-05
0.000921238
0.000103242
0.000903912
0.000117428
0.000884535
0.000131311
0.000862862
0.000144838
0.000839088
0.000157979
0.000813145
0.000170684
0.00078508
0.00018293
0.00075495
0.000194666
0.000722824
0.000205875
0.000688774
0.000216509
0.000652884
0.000226554
0.000615238
0.000235966
0.000575932
0.000244734
0.000535058
0.000252817
0.000492722
0.000260208
0.000449026
0.000266869
0.000404077
0.000272798
0.000357995
0.000277962
0.000310888
0.00028236
0.000262865
0.000285966
0.00021404
0.000288781
0.000164519
0.000290786
0.000114408
0.000291984
6.37813e-05
1.20371e-05
0.000292355
1.43381e-05
0.000972612
9.21296e-08
2.89568e-05
0.000960364
4.36675e-05
0.00094784
5.83598e-05
0.000935338
7.29589e-05
0.000921849
8.73949e-05
0.000906786
0.000101624
0.00088967
0.000115589
0.000870553
0.000129258
0.000849182
0.000142576
0.000825754
0.000155515
0.000800197
0.000168024
0.000772555
0.000180081
0.000742883
0.000191637
0.000711251
0.000202674
0.000677728
0.000213145
0.000642396
0.000223036
0.000605338
0.000232303
0.000566647
0.000240937
0.000526416
0.000248896
0.000484747
0.000256173
0.000441739
0.000262732
0.0003975
0.00026857
0.000352147
0.000273655
0.000305786
0.000277985
0.000258523
0.000281535
0.000210471
0.000284307
0.000161733
0.000286281
0.000112415
0.00028746
6.25851e-05
1.16468e-05
0.000287825
1.41107e-05
0.000958425
9.2305e-08
2.84998e-05
0.000945992
4.29796e-05
0.000933379
5.74418e-05
0.000920891
7.18128e-05
0.000907496
8.60237e-05
0.000892589
0.000100032
0.000875681
0.00011378
0.00085682
0.000127237
0.000835747
0.00014035
0.000812658
0.00015309
0.00078748
0.000165406
0.000760254
0.000177278
0.000731034
0.000188656
0.000699886
0.000199524
0.00066688
0.000209834
0.000632097
0.000219573
0.000595616
0.000228698
0.000557531
0.000237199
0.00051793
0.000245036
0.000476917
0.000252201
0.000434587
0.00025866
0.000391046
0.000264408
0.000346411
0.000269415
0.000300783
0.000273678
0.000254269
0.000277174
0.000206978
0.000279903
0.000159012
0.000281846
0.000110474
0.000283008
6.1431e-05
1.12969e-05
0.000283366
1.38872e-05
0.000944434
9.26267e-08
2.80501e-05
0.000931815
4.23028e-05
0.000919113
5.65386e-05
0.00090664
7.06851e-05
0.000893336
8.46745e-05
0.000878583
9.84648e-05
0.000861877
0.000112
0.000843268
0.000125249
0.000822487
0.000138159
0.000799732
0.000150702
0.000774927
0.000162829
0.000748111
0.000174519
0.000719335
0.000185722
0.000688666
0.000196423
0.000656171
0.000206575
0.000621928
0.000216165
0.000586017
0.000225149
0.000548529
0.00023352
0.000509551
0.000241236
0.000469183
0.000248292
0.000427522
0.000254651
0.00038467
0.000260311
0.00034074
0.000265241
0.000295836
0.000269439
0.000250059
0.000272881
0.000203517
0.000275568
0.000156311
0.000277481
0.000108541
0.000278625
6.02709e-05
1.09184e-05
0.000278977
1.36671e-05
0.00093069
9.28653e-08
2.76077e-05
0.000917891
4.16369e-05
0.000905102
5.565e-05
0.000892643
6.95754e-05
0.000879428
8.33469e-05
0.000864827
9.69228e-05
0.000848321
0.000110248
0.000829959
0.000123292
0.000809465
0.000136002
0.000787039
0.000148353
0.000762601
0.000160293
0.000736187
0.000171803
0.000707848
0.000182833
0.000677649
0.000193371
0.000645655
0.000203366
0.000611944
0.000212809
0.000576593
0.000221656
0.000539691
0.000229899
0.000501324
0.000237496
0.000461592
0.000244444
0.000420588
0.000250705
0.000378412
0.000256278
0.000335178
0.000261132
0.000290985
0.000265266
0.000245934
0.000268655
0.000200131
0.000271301
0.000153673
0.000273185
0.00010666
0.00027431
5.91522e-05
1.05798e-05
0.000274657
1.34506e-05
0.000917135
9.32542e-08
2.71724e-05
0.000904155
4.09817e-05
0.000891281
5.47756e-05
0.000878834
6.84836e-05
0.000865707
8.20405e-05
0.000851253
9.54053e-05
0.000834943
0.000108524
0.000816824
0.000121366
0.000796611
0.00013388
0.000774509
0.00014604
0.000750432
0.000157797
0.000724414
0.000169129
0.000696506
0.00017999
0.000666771
0.000190366
0.000635271
0.000200208
0.000602085
0.000209507
0.000567286
0.000218217
0.000530962
0.000226334
0.000493199
0.000233815
0.000454094
0.000240656
0.000413738
0.000246821
0.000372229
0.000252309
0.00032968
0.000257088
0.000286188
0.000261159
0.000241851
0.000264495
0.000196775
0.000267101
0.000151054
0.000268956
0.000104785
0.000270064
5.80271e-05
1.02129e-05
0.000270404
1.32375e-05
0.00090382
9.35495e-08
2.6744e-05
0.000890666
4.03371e-05
0.000877706
5.39152e-05
0.000865272
6.74091e-05
0.000852231
8.07549e-05
0.000837923
9.3912e-05
0.000821806
0.000106827
0.000803925
0.000119471
0.00078399
0.000131791
0.000762206
0.000143764
0.000738483
0.00015534
0.000712856
0.000166498
0.000685371
0.000177192
0.000656091
0.000187409
0.000625077
0.0001971
0.000592405
0.000206256
0.000558148
0.000214832
0.000522394
0.000222825
0.000485224
0.000230191
0.000446734
0.000236927
0.000407015
0.000242997
0.000366163
0.000248402
0.000324288
0.000253107
0.000281485
0.000257116
0.000237852
0.000260401
0.000193492
0.000262967
0.000148497
0.000264793
0.000102961
0.000265884
5.69427e-05
9.88528e-06
0.000266219
1.3028e-05
0.000890687
9.3996e-08
2.63226e-05
0.000877357
3.97027e-05
0.000864314
5.30686e-05
0.000851891
6.63519e-05
0.000838934
7.94898e-05
0.000824769
9.24424e-05
0.000808839
0.000105157
0.000791194
0.000117605
0.000771531
0.000129736
0.00075006
0.000141524
0.000726686
0.000152921
0.000701443
0.000163908
0.000674375
0.000174438
0.000645544
0.000184498
0.000615009
0.00019404
0.000582845
0.000203056
0.000549124
0.000211501
0.000513931
0.00021937
0.000477346
0.000226624
0.000439464
0.000233257
0.000400372
0.000239234
0.000360167
0.000244555
0.000318956
0.000249189
0.000276833
0.000253136
0.000233893
0.000256371
0.000190237
0.000258897
0.000145956
0.000260695
0.000101143
0.000261769
5.58514e-05
9.52943e-06
0.000262099
1.28216e-05
0.000877787
9.43423e-08
2.59078e-05
0.000864289
3.90785e-05
0.000851162
5.22354e-05
0.00083875
6.53114e-05
0.000825877
7.82448e-05
0.000811851
9.09962e-05
0.000796108
0.000103514
0.000778693
0.00011577
0.000759298
0.000127713
0.000738135
0.000139319
0.000715105
0.000150541
0.000690238
0.000161359
0.00066358
0.000171727
0.00063519
0.000181633
0.000605126
0.000191028
0.000573461
0.000199906
0.000540266
0.000208221
0.000505623
0.000215971
0.000469613
0.000223112
0.000432328
0.000229644
0.000393854
0.00023553
0.000354285
0.00024077
0.000313728
0.000245332
0.000272274
0.000249219
0.000230016
0.000252404
0.000187054
0.000254892
0.000143477
0.000256662
9.93746e-05
0.000257719
5.48002e-05
9.21254e-06
0.000258044
1.26186e-05
0.000865063
9.48422e-08
2.54997e-05
0.000851394
3.84642e-05
0.000838185
5.14156e-05
0.000825784
6.42876e-05
0.000812991
7.70196e-05
0.000799103
8.95729e-05
0.000783541
0.000101897
0.000766352
0.000113963
0.000747221
0.000125721
0.000726361
0.000137149
0.000703668
0.000148198
0.000679173
0.00015885
0.00065292
0.000169059
0.000624965
0.000178812
0.000595365
0.000188064
0.000564192
0.000196805
0.000531516
0.000204993
0.000497417
0.000212624
0.000461974
0.000219656
0.000425278
0.000226088
0.000387413
0.000231883
0.000348471
0.000237043
0.000308558
0.000241536
0.000267763
0.000245363
0.000226177
0.000248499
0.000183898
0.000250949
0.000141013
0.000252692
9.76111e-05
0.000253733
5.37418e-05
8.8675e-06
0.000254052
1.24187e-05
0.000852566
9.52372e-08
2.50981e-05
0.000838732
3.78597e-05
0.000825443
5.06088e-05
0.000813052
6.328e-05
0.000800339
7.58139e-05
0.000786585
8.81722e-05
0.000771204
0.000100305
0.000754237
0.000112184
0.000735366
0.000123761
0.000714802
0.000135014
0.000692442
0.000145892
0.000668312
0.000156381
0.000642455
0.000166432
0.000614927
0.000176036
0.000585783
0.000185146
0.000555095
0.000193754
0.000522927
0.000201816
0.000489363
0.00020933
0.000454477
0.000216254
0.00041836
0.000222588
0.000381093
0.000228294
0.000342768
0.000233375
0.000303489
0.000237799
0.000263342
0.000241568
0.000222417