1.45 	0 	0 	-0.00526037 	-0.0027669 	3.93996e-21
2.35 	0 	0 	0.0699159 	-0.00688282 	2.4466e-21
