/*--------------------------------*- C++ -*----------------------------------*\
  =========                 |
  \\      /  F ield         | OpenFOAM: The Open Source CFD Toolbox
   \\    /   O peration     | Website:  https://openfoam.org
    \\  /    A nd           | Version:  6.0
     \\/     M anipulation  |
\*---------------------------------------------------------------------------*/
FoamFile
{
    version     2.0;
    format      ascii;
    class       surfaceScalarField;
    location    "163";
    object      phi;
}
// * * * * * * * * * * * * * * * * * * * * * * * * * * * * * * * * * * * * * //

dimensions      [0 3 -1 0 0 0 0];

internalField   nonuniform List<scalar> 
68636
(
3.02279e-05
0.00310561
2.87621e-09
6.0842e-05
0.00307074
9.10906e-05
0.00300252
0.000120479
0.00290144
0.000148621
0.00276854
0.00017517
0.00260526
0.000199813
0.0024134
0.000222265
0.00219508
0.000242268
0.00195269
0.000259595
0.00168886
0.000274048
0.00140649
0.000285469
0.00110847
0.000293766
0.000798261
0.000298745
0.000478214
0.000143705
0.000296918
2.99467e-05
0.00307565
9.67639e-09
6.02826e-05
0.0030404
9.0256e-05
0.00297255
0.000119377
0.00287233
0.000147263
0.00274066
0.000173569
0.00257896
0.000197988
0.00238899
0.000220234
0.00217283
0.000240054
0.00193287
0.000257222
0.00167169
0.000271544
0.00139217
0.000282852
0.00109716
0.000291138
0.000789978
0.000295703
0.000473651
0.000145062
0.000294352
2.96676e-05
0.00304597
1.6625e-08
5.97276e-05
0.00301034
8.94287e-05
0.00294285
0.000118285
0.00284347
0.000145918
0.00271303
0.000171985
0.00255289
0.000196182
0.00236479
0.000218225
0.00215079
0.000237864
0.00191323
0.000254876
0.00165468
0.000269068
0.00137798
0.00028026
0.00108597
0.000288472
0.000781765
0.000293195
0.000468928
0.00014553
0.000292723
2.93909e-05
0.00301655
2.35619e-08
5.91778e-05
0.00298056
8.86092e-05
0.00291342
0.000117204
0.00281488
0.000144586
0.00268565
0.000170416
0.00252706
0.000194392
0.00234082
0.000216235
0.00212895
0.000235695
0.00189377
0.00025255
0.00163783
0.000266613
0.00136392
0.000277693
0.00107489
0.000285797
0.000773661
0.000290586
0.00046414
0.000145479
0.00029064
2.91168e-05
0.00298741
3.05036e-08
5.86331e-05
0.00295104
8.77972e-05
0.00288425
0.000116132
0.00278654
0.000143265
0.00265852
0.000168861
0.00250147
0.000192619
0.00231706
0.000214262
0.00210731
0.000233544
0.00187449
0.000250245
0.00162113
0.000264179
0.00134998
0.000275152
0.00106392
0.000283138
0.000765675
0.000287897
0.000459381
0.000145064
0.000288308
2.88451e-05
0.00295853
3.73598e-08
5.80933e-05
0.00292179
8.69926e-05
0.00285535
0.00011507
0.00275846
0.000141957
0.00263163
0.00016732
0.00247611
0.000190861
0.00229352
0.000212307
0.00208586
0.000231413
0.00185538
0.00024796
0.00160458
0.000261767
0.00133618
0.000272638
0.00105304
0.000280511
0.000757803
0.000285215
0.000454678
0.000144403
0.000285877
2.85759e-05
0.00292991
4.40863e-08
5.75584e-05
0.00289281
8.61952e-05
0.00282672
0.000114018
0.00273064
0.00014066
0.00260499
0.000165792
0.00245097
0.000189119
0.0022702
0.000210369
0.00206461
0.0002293
0.00183645
0.000245696
0.00158819
0.000259376
0.0013225
0.000270149
0.00104227
0.00027792
0.000750032
0.000282563
0.000450034
0.000143578
0.000283385
2.83092e-05
0.00290155
5.06564e-08
5.70283e-05
0.00286409
8.5405e-05
0.00279834
0.000112975
0.00270307
0.000139375
0.00257859
0.000164278
0.00242607
0.000187393
0.00224708
0.000208449
0.00204355
0.000227208
0.0018177
0.000243452
0.00157194
0.000257007
0.00130894
0.000267684
0.00103159
0.000275363
0.000742353
0.000279945
0.000445453
0.000142649
0.000280874
2.8045e-05
0.00287344
5.70051e-08
5.65032e-05
0.00283563
8.4622e-05
0.00277022
0.000111941
0.00267575
0.000138101
0.00255243
0.000162778
0.00240139
0.000185682
0.00222418
0.000206546
0.00202269
0.000225133
0.00179911
0.000241229
0.00155584
0.000254659
0.00129551
0.000265241
0.00102101
0.000272838
0.000734756
0.000277365
0.000440926
0.000141638
0.000278373
2.77833e-05
0.0028456
6.31113e-08
5.59828e-05
0.00280743
8.3846e-05
0.00274236
0.000110917
0.00264868
0.000136839
0.00252651
0.000161291
0.00237694
0.000183986
0.00220149
0.00020466
0.00200202
0.000223078
0.00178069
0.000239027
0.0015399
0.000252332
0.00128221
0.00026282
0.00101052
0.000270341
0.000727235
0.000274818
0.00043645
0.000140567
0.00027589
2.7524e-05
0.002818
6.89654e-08
5.54671e-05
0.00277949
8.30771e-05
0.00271475
0.000109902
0.00262186
0.000135588
0.00250082
0.000159818
0.00235271
0.000182306
0.002179
0.000202792
0.00198153
0.000221041
0.00176244
0.000236844
0.00152409
0.000250026
0.00126903
0.00026042
0.00100013
0.00026787
0.000719785
0.000272303
0.000432016
0.000139443
0.000273425
2.72671e-05
0.00279066
7.45745e-08
5.49562e-05
0.0027518
8.2315e-05
0.00268739
0.000108896
0.00259528
0.000134348
0.00247537
0.000158357
0.0023287
0.000180641
0.00215671
0.00020094
0.00196123
0.000219023
0.00174436
0.000234681
0.00150844
0.000247741
0.00125597
0.000258041
0.000989829
0.000265422
0.000712404
0.000269815
0.000427624
0.00013828
0.000270978
2.70126e-05
0.00276357
7.99862e-08
5.44499e-05
0.00272436
8.15599e-05
0.00266028
0.000107899
0.00256894
0.00013312
0.00245015
0.00015691
0.00230491
0.000178991
0.00213463
0.000199105
0.00194112
0.000217023
0.00172644
0.000232538
0.00149292
0.000245476
0.00124303
0.000255683
0.000979622
0.000262998
0.000705089
0.000267352
0.00042327
0.000137083
0.000268547
2.67605e-05
0.00273673
8.52578e-08
5.39481e-05
0.00269718
8.08115e-05
0.00263342
0.000106911
0.00254284
0.000131902
0.00242516
0.000155476
0.00228134
0.000177355
0.00211276
0.000197286
0.00192119
0.000215041
0.00170869
0.000230414
0.00147755
0.000243233
0.00123021
0.000253346
0.000969509
0.000260595
0.00069784
0.000264912
0.000418954
0.000135862
0.000266133
2.65107e-05
0.00271012
9.04561e-08
5.34509e-05
0.00267024
8.00698e-05
0.0026068
0.000105932
0.00251698
0.000130696
0.00240039
0.000154055
0.00225798
0.000175735
0.00209108
0.000195484
0.00190144
0.000213077
0.00169109
0.00022831
0.00146232
0.00024101
0.00121751
0.000251031
0.000959488
0.000258215
0.000690657
0.000262495
0.000414673
0.00013462
0.000263735
2.62631e-05
0.00268377
9.56519e-08
5.29581e-05
0.00264354
7.93347e-05
0.00258043
0.000104961
0.00249135
0.0001295
0.00237585
0.000152646
0.00223483
0.000174129
0.00206959
0.000193698
0.00188187
0.000211131
0.00167366
0.000226224
0.00144722
0.000238808
0.00120492
0.000248736
0.00094956
0.000255856
0.000683537
0.0002601
0.000410429
0.000133367
0.000261354
2.60177e-05
0.00265765
1.00899e-07
5.24698e-05
0.00261709
7.86063e-05
0.00255429
0.000103999
0.00246596
0.000128315
0.00235154
0.000151251
0.0022119
0.000172538
0.00204831
0.000191929
0.00186248
0.000209202
0.00165639
0.000224158
0.00143227
0.000236626
0.00119246
0.000246463
0.000939724
0.000253519
0.000676481
0.000257727
0.000406221
0.000132102
0.000258991
2.57746e-05
0.00263177
1.06239e-07
5.19858e-05
0.00259088
7.78844e-05
0.00252839
0.000103046
0.00244079
0.00012714
0.00232745
0.000149867
0.00218917
0.000170961
0.00202721
0.000190175
0.00184326
0.000207291
0.00163927
0.000222111
0.00141745
0.000234464
0.0011801
0.00024421
0.000929978
0.000251203
0.000669489
0.000255376
0.000402048
0.000130832
0.000256646
2.55336e-05
0.00260612
1.11693e-07
5.15062e-05
0.00256491
7.71689e-05
0.00250273
0.000102102
0.00241586
0.000125976
0.00230357
0.000148497
0.00216665
0.000169398
0.00200631
0.000188437
0.00182422
0.000205397
0.00162231
0.000220082
0.00140276
0.000232322
0.00116786
0.000241978
0.000920322
0.000248908
0.000662559
0.000253046
0.000397909
0.000129558
0.00025432
2.52947e-05
0.00258071
1.17263e-07
5.10308e-05
0.00253917
7.64598e-05
0.0024773
0.000101166
0.00239116
0.000124823
0.00227991
0.000147138
0.00214433
0.000167849
0.0019856
0.000186715
0.00180536
0.000203521
0.00160551
0.000218072
0.00138821
0.000230199
0.00115574
0.000239766
0.000910755
0.000246635
0.00065569
0.000250738
0.000393806
0.000128282
0.000252015
2.5058e-05
0.00255553
1.22935e-07
5.05597e-05
0.00251367
7.57571e-05
0.0024521
0.000100238
0.00236667
0.00012368
0.00225647
0.000145792
0.00212222
0.000166315
0.00196508
0.000185009
0.00178666
0.000201661
0.00158885
0.00021608
0.00137379
0.000228096
0.00114372
0.000237576
0.000901276
0.000244382
0.000648884
0.000248452
0.000389737
0.000127005
0.000249728
2.48233e-05
0.00253058
1.28679e-07
5.00927e-05
0.0024884
7.50607e-05
0.00242713
9.93189e-05
0.00234242
0.000122547
0.00223324
0.000144458
0.00210031
0.000164794
0.00194474
0.000183318
0.00176814
0.000199819
0.00157235
0.000214106
0.0013595
0.000226012
0.00113181
0.000235405
0.000891883
0.000242151
0.000642138
0.000246186
0.000385702
0.000125729
0.000247462
2.45907e-05
0.00250585
1.34462e-07
4.963e-05
0.00246336
7.43705e-05
0.00240239
9.84078e-05
0.00231838
0.000121425
0.00221023
0.000143136
0.0020786
0.000163287
0.00192459
0.000181643
0.00174978
0.000197993
0.001556
0.00021215
0.00134535
0.000223948
0.00112001
0.000233254
0.000882577
0.00023994
0.000635452
0.000243941
0.000381701
0.000124455
0.000245215
2.43601e-05
0.00248135
1.40247e-07
4.91713e-05
0.00243855
7.36865e-05
0.00237788
9.75049e-05
0.00229456
0.000120312
0.00218742
0.000141826
0.00205709
0.000161794
0.00190463
0.000179982
0.0017316
0.000196183
0.0015398
0.000210211
0.00133132
0.000221902
0.00110832
0.000231123
0.000873356
0.00023775
0.000628826
0.000241717
0.000377734
0.000123186
0.000242987
2.41315e-05
0.00245707
1.46007e-07
4.87167e-05
0.00241396
7.30086e-05
0.00235359
9.66102e-05
0.00227096
0.00011921
0.00216482
0.000140528
0.00203577
0.000160314
0.00188484
0.000178337
0.00171357
0.00019439
0.00152375
0.000208291
0.00131742
0.000219875
0.00109674
0.000229012
0.000864219
0.00023558
0.000622258
0.000239514
0.0003738
0.00012192
0.000240779
2.3905e-05
0.00243302
1.51716e-07
4.82662e-05
0.0023896
7.23368e-05
0.00232952
9.57234e-05
0.00224757
0.000118117
0.00214243
0.000139242
0.00201464
0.000158847
0.00186524
0.000176706
0.00169571
0.000192614
0.00150784
0.000206387
0.00130365
0.000217866
0.00108526
0.00022692
0.000855165
0.000233429
0.000615749
0.00023733
0.0003699
0.000120661
0.00023859
2.36804e-05
0.00240918
1.57361e-07
4.78197e-05
0.00236546
7.1671e-05
0.00230567
9.48447e-05
0.0022244
0.000117035
0.00212024
0.000137967
0.00199371
0.000157394
0.00184581
0.000175091
0.00167802
0.000190853
0.00149208
0.000204502
0.00129
0.000215876
0.00107389
0.000224847
0.000846194
0.000231299
0.000609298
0.000235167
0.000366032
0.000119408
0.00023642
2.34578e-05
0.00238556
1.62932e-07
4.73772e-05
0.00234155
7.10112e-05
0.00228203
9.39738e-05
0.00220144
0.000115962
0.00209825
0.000136704
0.00197297
0.000155954
0.00182656
0.000173489
0.00166048
0.000189109
0.00147646
0.000202633
0.00127647
0.000213904
0.00106262
0.000222794
0.000837304
0.000229188
0.000602903
0.000233024
0.000362197
0.000118162
0.00023427
2.32372e-05
0.00236215
1.68424e-07
4.69386e-05
0.00231784
7.03573e-05
0.00225861
9.31108e-05
0.00217868
0.000114899
0.00207646
0.000135452
0.00195242
0.000154527
0.00180748
0.000171903
0.00164311
0.00018738
0.00146098
0.000200781
0.00126307
0.000211949
0.00105145
0.000220759
0.000828495
0.000227097
0.000596566
0.0002309
0.000358394
0.000116922
0.000232139
2.30185e-05
0.00233896
1.73833e-07
4.65039e-05
0.00229436
6.97093e-05
0.00223541
9.22555e-05
0.00215614
0.000113845
0.00205487
0.000134211
0.00193205
0.000153113
0.00178858
0.000170331
0.00162589
0.000185667
0.00144565
0.000198946
0.00124979
0.000210013
0.00104038
0.000218743
0.000819765
0.000225025
0.000590284
0.000228795
0.000354623
0.000115691
0.000230027
2.28017e-05
0.00231598
1.79156e-07
4.60732e-05
0.00227109
6.90671e-05
0.00221241
9.1408e-05
0.0021338
0.000112801
0.00203348
0.000132982
0.00191187
0.000151711
0.00176985
0.000168773
0.00160883
0.000183969
0.00143045
0.000197128
0.00123664
0.000208094
0.00102942
0.000216745
0.000811115
0.000222971
0.000584058
0.00022671
0.000350885
0.000114466
0.000227935
2.25869e-05
0.00229321
1.84389e-07
4.56463e-05
0.00224803
6.84307e-05
0.00218963
9.05681e-05
0.00211166
0.000111766
0.00201228
0.000131763
0.00189187
0.000150323
0.00175129
0.000167229
0.00159192
0.000182287
0.00141539
0.000195326
0.0012236
0.000206193
0.00101855
0.000214765
0.000802543
0.000220937
0.000577887
0.000224644
0.000347177
0.00011325
0.000225861
2.2374e-05
0.00227065
1.8953e-07
4.52232e-05
0.00222518
6.78e-05
0.00216705
8.97358e-05
0.00208972
0.000110741
0.00199128
0.000130556
0.00187206
0.000148947
0.0017329
0.000165699
0.00157517
0.000180621
0.00140047
0.000193541
0.00121068
0.000204309
0.00100778
0.000212804
0.000794048
0.000218921
0.00057177
0.000222597
0.000343501
0.000112041
0.000223806
2.21631e-05
0.00224829
1.94578e-07
4.48039e-05
0.00220254
6.7175e-05
0.00214468
8.8911e-05
0.00206799
0.000109725
0.00197046
0.00012936
0.00185243
0.000147583
0.00171468
0.000164183
0.00155857
0.000178969
0.00138569
0.000191772
0.00119788
0.000202442
0.000997109
0.00021086
0.00078563
0.000216923
0.000565708
0.000220568
0.000339856
0.00011084
0.00022177
2.1954e-05
0.00222613
1.99541e-07
4.43885e-05
0.0021801
6.65556e-05
0.00212251
8.80936e-05
0.00204645
0.000108718
0.00194984
0.000128174
0.00183297
0.000146232
0.00169662
0.000162681
0.00154212
0.000177332
0.00137103
0.000190019
0.00118519
0.000200593
0.000986536
0.000208934
0.000777289
0.000214944
0.000559699
0.000218558
0.000336242
0.000109647
0.000219751
2.17468e-05
0.00220418
2.04428e-07
4.39767e-05
0.00215787
6.59418e-05
0.00210055
8.72836e-05
0.00202511
0.00010772
0.0019294
0.000126999
0.00181369
0.000144893
0.00167873
0.000161192
0.00152582
0.000175711
0.00135652
0.000188282
0.00117262
0.00019876
0.000976058
0.000207026
0.000769022
0.000212982
0.000553743
0.000216566
0.000332659
0.000108462
0.000217751
2.15414e-05
0.00218243
2.09259e-07
4.35687e-05
0.00213585
6.53336e-05
0.00207878
8.6481e-05
0.00200396
0.000106732
0.00190915
0.000125835
0.00179459
0.000143566
0.001661
0.000159717
0.00150967
0.000174104
0.00134213
0.00018656
0.00116016
0.000196944
0.000965675
0.000205136
0.000760831
0.000211039
0.00054784
0.000214592
0.000329106
0.000107285
0.000215769
2.13379e-05
0.00216088
2.14058e-07
4.31643e-05
0.00211402
6.47309e-05
0.00205722
8.56856e-05
0.00198301
0.000105752
0.00188908
0.000124682
0.00177566
0.000142251
0.00164343
0.000158256
0.00149366
0.000172511
0.00132787
0.000184855
0.00114782
0.000195144
0.000955386
0.000203262
0.000752713
0.000209113
0.000541989
0.000212636
0.000325583
0.000106116
0.000213805
2.11363e-05
0.00213953
2.18854e-07
4.27636e-05
0.00209239
6.41336e-05
0.00203585
8.48974e-05
0.00196224
0.000104781
0.0018692
0.000123539
0.0017569
0.000140948
0.00162602
0.000156807
0.0014778
0.000170933
0.00131375
0.000183165
0.00113559
0.000193361
0.00094519
0.000201406
0.000744668
0.000207205
0.00053619
0.000210698
0.000322091
0.000104957
0.000211858
2.09364e-05
0.00211837
2.23671e-07
4.23665e-05
0.00207096
6.35417e-05
0.00201467
8.41164e-05
0.00194167
0.000103819
0.0018495
0.000122406
0.00173831
0.000139657
0.00160877
0.000155372
0.00146209
0.00016937
0.00129975
0.000181491
0.00112347
0.000191594
0.000935087
0.000199567
0.000736696
0.000205315
0.000530443
0.000208777
0.000318628
0.000103806
0.000209929
2.07384e-05
0.0020974
2.28536e-07
4.1973e-05
0.00204973
6.29552e-05
0.00199369
8.33424e-05
0.00192128
0.000102866
0.00182997
0.000121283
0.0017199
0.000138377
0.00159167
0.00015395
0.00144652
0.000167821
0.00128588
0.000179831
0.00111146
0.000189844
0.000925075
0.000197744
0.000728795
0.000203441
0.000524746
0.000206874
0.000315195
0.000102663
0.000208017
2.05422e-05
0.00207662
2.33467e-07
4.15831e-05
0.00202869
6.2374e-05
0.0019729
8.25755e-05
0.00190108
0.000101921
0.00181063
0.000120171
0.00170165
0.00013711
0.00157473
0.000152541
0.00143109
0.000166285
0.00127214
0.000178187
0.00109955
0.000188109
0.000915153
0.000195938
0.000720966
0.000201585
0.0005191
0.000204989
0.000311791
0.00010153
0.000206123
2.03477e-05
0.00205604
2.38474e-07
4.11967e-05
0.00200784
6.17981e-05
0.0019523
8.18155e-05
0.00188106
0.000100985
0.00179146
0.000119069
0.00168356
0.000135854
0.00155795
0.000151144
0.0014158
0.000164764
0.00125852
0.000176558
0.00108776
0.00018639
0.000905321
0.000194149
0.000713207
0.000199746
0.000513504
0.00020312
0.000308417
0.000100405
0.000204246
2.0155e-05
0.00203564
2.43558e-07
4.08138e-05
0.00198718
6.12273e-05
0.00193188
8.10624e-05
0.00186123
0.000100057
0.00177247
0.000117977
0.00166564
0.000134609
0.00154132
0.000149761
0.00140064
0.000163257
0.00124502
0.000174944
0.00107607
0.000184687
0.000895578
0.000192376
0.000705518
0.000197923
0.000507957
0.000201269
0.000305072
9.92888e-05
0.000202385
1.9964e-05
0.00201543
2.48715e-07
4.04344e-05
0.00196671
6.06618e-05
0.00191166
8.03161e-05
0.00184157
9.91379e-05
0.00175364
0.000116894
0.00164789
0.000133375
0.00152484
0.000148389
0.00138563
0.000161763
0.00123165
0.000173344
0.00106449
0.000183
0.000885923
0.00019062
0.000697898
0.000196118
0.000502459
0.000199434
0.000301755
9.81818e-05
0.000200542
1.97747e-05
0.0019954
2.53931e-07
4.00584e-05
0.00194643
6.01014e-05
0.00189161
7.95766e-05
0.0018221
9.8227e-05
0.00173499
0.000115822
0.00163029
0.000132153
0.00150851
0.000147031
0.00137075
0.000160283
0.00121839
0.00017176
0.00105302
0.000181328
0.000876355
0.000188879
0.000690347
0.000194328
0.00049701
0.000197616
0.000298467
9.70826e-05
0.000198716
1.95871e-05
0.00197555
2.59194e-07
3.96858e-05
0.00192633
5.95461e-05
0.00187175
7.88438e-05
0.0018028
9.73244e-05
0.00171651
0.000114759
0.00161286
0.000130942
0.00149232
0.000145685
0.00135601
0.000158817
0.00120526
0.000170189
0.00104164
0.000179671
0.000866874
0.000187155
0.000682863
0.000192555
0.00049161
0.000195815
0.000295208
9.59928e-05
0.000196906
1.94012e-05
0.00195589
2.64483e-07
3.93166e-05
0.00190641
5.89957e-05
0.00185207
7.81177e-05
0.00178368
9.643e-05
0.0016982
0.000113706
0.00159558
0.000129742
0.00147629
0.000144351
0.0013414
0.000157364
0.00119225
0.000168633
0.00103037
0.000178029
0.000857478
0.000185446
0.000675447
0.000190799
0.000486257
0.000194031
0.000291976
9.49106e-05
0.000195113
1.92169e-05
0.0019364
2.69786e-07
3.89507e-05
0.00188668
5.84504e-05
0.00183257
7.73981e-05
0.00176473
9.55437e-05
0.00168005
0.000112663
0.00157846
0.000128553
0.0014604
0.000143029
0.00132692
0.000155924
0.00117935
0.000167092
0.00101921
0.000176403
0.000848167
0.000183753
0.000668097
0.000189058
0.000480952
0.000192262
0.000288773
9.38378e-05
0.000193336
1.90343e-05
0.00191709
2.75087e-07
3.85881e-05
0.00186713
5.791e-05
0.00181325
7.66851e-05
0.00174596
9.46655e-05
0.00166207
0.000111629
0.0015615
0.000127374
0.00144465
0.000141719
0.00131258
0.000154498
0.00116657
0.000165564
0.00100814
0.000174791
0.00083894
0.000182075
0.000660813
0.000187334
0.000475694
0.00019051
0.000285597
9.27724e-05
0.000191575
1.88533e-05
0.00189796
2.80378e-07
3.82288e-05
0.00184775
5.73746e-05
0.00179411
7.59786e-05
0.00172735
9.37952e-05
0.00164426
0.000110604
0.00154469
0.000126207
0.00142905
0.000140421
0.00129837
0.000153084
0.00115391
0.00016405
0.000997176
0.000173194
0.000829796
0.000180413
0.000653595
0.000185625
0.000470483
0.000188774
0.000282449
9.17165e-05
0.000189831
1.8674e-05
0.001879
2.85653e-07
3.78727e-05
0.00182855
5.68439e-05
0.00177514
7.52784e-05
0.00170892
9.29329e-05
0.0016266
0.000109589
0.00152803
0.00012505
0.00141359
0.000139135
0.00128428
0.000151683
0.00114136
0.00016255
0.000986309
0.000171612
0.000820735
0.000178766
0.000646441
0.000183932
0.000465317
0.000187053
0.000279327
9.06679e-05
0.000188102
1.84962e-05
0.00186021
2.90912e-07
3.75198e-05
0.00180953
5.63181e-05
0.00175634
7.45846e-05
0.00169065
9.20784e-05
0.00160911
0.000108583
0.00151153
0.000123903
0.00139827
0.000137861
0.00127032
0.000150296
0.00112893
0.000161064
0.00097554
0.000170044
0.000811755
0.000177134
0.000639352
0.000182254
0.000460198
0.000185348
0.000276233
8.96289e-05
0.000186389
1.832e-05
0.00184159
2.96153e-07
3.71701e-05
0.00179068
5.5797e-05
0.00173771
7.38971e-05
0.00167255
9.12317e-05
0.00159178
0.000107586
0.00149518
0.000122767
0.00138309
0.000136599
0.00125649
0.00014892
0.00111661
0.000159592
0.000964869
0.000168491
0.000802856
0.000175518
0.000632325
0.000180592
0.000455123
0.000183659
0.000273166
8.85971e-05
0.000184691
1.81453e-05
0.00182315
3.01384e-07
3.68236e-05
0.001772
5.52807e-05
0.00171925
7.32159e-05
0.00165462
9.03926e-05
0.0015746
0.000106599
0.00147897
0.000121642
0.00136805
0.000135348
0.00124279
0.000147558
0.0011044
0.000158133
0.000954294
0.000166952
0.000794037
0.000173916
0.000625362
0.000178945
0.000450094
0.000181986
0.000270126
8.75749e-05
0.000183009
1.79722e-05
0.00180487
3.06607e-07
3.64801e-05
0.00175349
5.4769e-05
0.00170096
7.25408e-05
0.00163684
8.95613e-05
0.00155758
0.00010562
0.00146291
0.000120527
0.00135314
0.000134108
0.0012292
0.000146208
0.0010923
0.000156687
0.000943815
0.000165427
0.000785297
0.000172328
0.000618461
0.000177313
0.000445109
0.000180328
0.000267111
8.65598e-05
0.000181343
1.78006e-05
0.00178675
3.11829e-07
3.61398e-05
0.00173515
5.42619e-05
0.00168284
7.18719e-05
0.00161923
8.87375e-05
0.00154071
0.00010465
0.001447
0.000119421
0.00133837
0.00013288
0.00121575
0.00014487
0.00108031
0.000155255
0.00093343
0.000163916
0.000776637
0.000170756
0.000611622
0.000175696
0.000440169
0.000178685
0.000264124
8.55544e-05
0.000179691
1.76306e-05
0.00176881
3.17055e-07
3.58026e-05
0.00171698
5.37595e-05
0.00166489
7.12091e-05
0.00160179
8.79212e-05
0.001524
0.000103689
0.00143123
0.000118327
0.00132373
0.000131663
0.00120241
0.000143545
0.00106843
0.000153836
0.000923139
0.000162419
0.000768053
0.000169197
0.000604844
0.000174094
0.000435272
0.000177057
0.000261161
8.45558e-05
0.000178055
1.7462e-05
0.00175102
3.22289e-07
3.54683e-05
0.00169898
5.32616e-05
0.00164709
7.05523e-05
0.00158449
8.71123e-05
0.00150744
0.000102737
0.00141561
0.000117242
0.00130923
0.000130457
0.00118919
0.000142232
0.00105665
0.00015243
0.000912941
0.000160936
0.000759548
0.000167653
0.000598127
0.000172507
0.000430419
0.000175444
0.000258225
8.35668e-05
0.000176434
1.7295e-05
0.0017334
3.27534e-07
3.51371e-05
0.00168113
5.27682e-05
0.00162946
6.99014e-05
0.00156736
8.63108e-05
0.00149103
0.000101794
0.00140012
0.000116167
0.00129485
0.000129262
0.0011761
0.00014093
0.00104498
0.000151037
0.000902835
0.000159466
0.000751118
0.000166124
0.00059147
0.000170934
0.000425609
0.000173845
0.000255314
8.25843e-05
0.000174828
1.71294e-05
0.00171594
3.32794e-07
3.48089e-05
0.00166345
5.22793e-05
0.00161199
6.92565e-05
0.00155038
8.55166e-05
0.00147477
0.000100859
0.00138478
0.000115101
0.00128061
0.000128079
0.00116312
0.000139641
0.00103342
0.000149656
0.00089282
0.00015801
0.000742765
0.000164608
0.000584872
0.000169376
0.000420841
0.000172262
0.000252429
8.16113e-05
0.000173236
1.69653e-05
0.00169863
3.38066e-07
3.44836e-05
0.00164594
5.17948e-05
0.00159468
6.86174e-05
0.00153356
8.47297e-05
0.00145866
9.99325e-05
0.00136958
0.000114046
0.0012665
0.000126906
0.00115026
0.000138364
0.00102196
0.000148289
0.000882895
0.000156567
0.000734486
0.000163106
0.000578333
0.000167832
0.000416115
0.000170693
0.000249568
8.06446e-05
0.00017166
1.68026e-05
0.00168149
3.43354e-07
3.41613e-05
0.00162858
5.13148e-05
0.00157753
6.79842e-05
0.00151689
8.39499e-05
0.00144269
9.90147e-05
0.00135451
0.000113
0.00125251
0.000125744
0.00113752
0.000137098
0.00101061
0.000146933
0.00087306
0.000155138
0.000726282
0.000161618
0.000571853
0.000166302
0.000411432
0.000169138
0.000246733
7.96872e-05
0.000170097
1.66414e-05
0.0016645
3.48651e-07
3.38418e-05
0.00161138
5.08391e-05
0.00156053
6.73567e-05
0.00150038
8.31773e-05
0.00142687
9.81053e-05
0.00133959
0.000111964
0.00123865
0.000124592
0.00112489
0.000135844
0.000999358
0.000145591
0.000863313
0.000153722
0.000718151
0.000160144
0.000565431
0.000164787
0.000406789
0.000167598
0.000243922
7.87359e-05
0.000168549
1.64816e-05
0.00164766
3.53959e-07
3.35253e-05
0.00159433
5.03677e-05
0.00154369
6.6735e-05
0.00148401
8.24117e-05
0.0014112
9.72042e-05
0.00132479
0.000110937
0.00122492
0.000123451
0.00111238
0.000134601
0.000988207
0.00014426
0.000853654
0.000152318
0.000710094
0.000158684
0.000559066
0.000163285
0.000402189
0.000166072
0.000241136
7.77939e-05
0.000167016
1.63232e-05
0.00163098
3.59271e-07
3.32116e-05
0.00157745
4.99005e-05
0.001527
6.61189e-05
0.00146779
8.16532e-05
0.00139566
9.63113e-05
0.00131014
0.00010992
0.00121131
0.000122321
0.00109998
0.00013337
0.000977158
0.000142942
0.000844082
0.000150928
0.000702108
0.000157236
0.000552757
0.000161797
0.000397628
0.00016456
0.000238373
7.68577e-05
0.000165496
1.61662e-05
0.00161445
3.64583e-07
3.29008e-05
0.00156071
4.94377e-05
0.00151046
6.55084e-05
0.00145172
8.09015e-05
0.00138027
9.54267e-05
0.00129561
0.000108912
0.00119783
0.0001212
0.00108769
0.00013215
0.000966208
0.000141636
0.000834596
0.00014955
0.000694194
0.000155803
0.000546505
0.000160323
0.000393108
0.000163062
0.000235635
7.59308e-05
0.00016399
1.60106e-05
0.00159807
3.69891e-07
3.25927e-05
0.00154413
4.8979e-05
0.00149407
6.49036e-05
0.00143579
8.01567e-05
0.00136502
9.45501e-05
0.00128122
0.000107913
0.00118446
0.000120091
0.00107551
0.000130942
0.000955357
0.000140343
0.000825196
0.000148186
0.000686351
0.000154382
0.000540309
0.000158863
0.000388627
0.000161578
0.00023292
7.50097e-05
0.000162498
1.58564e-05
0.00158184
3.75189e-07
3.22875e-05
0.0015277
4.85245e-05
0.00147784
6.43042e-05
0.00142001
7.94188e-05
0.0013499
9.36816e-05
0.00126696
0.000106924
0.00117122
0.000118991
0.00106344
0.000129744
0.000944604
0.000139061
0.00081588
0.000146833
0.000678579
0.000152975
0.000534168
0.000157416
0.000384187
0.000160107
0.00023023
7.40978e-05
0.00016102
1.57036e-05
0.00156575
3.80472e-07
3.1985e-05
0.00151142
4.80742e-05
0.00146175
6.37103e-05
0.00140438
7.86876e-05
0.00133492
9.2821e-05
0.00125282
0.000105943
0.0011581
0.000117902
0.00105148
0.000128558
0.000933948
0.00013779
0.000806647
0.000145494
0.000670876
0.00015158
0.000528081
0.000155982
0.000379785
0.00015865
0.000227562
7.31914e-05
0.000159556
1.55522e-05
0.00154981
3.85734e-07
3.16852e-05
0.00149528
4.76279e-05
0.0014458
6.31218e-05
0.00138888
7.79631e-05
0.00132008
9.19684e-05
0.00123882
0.000104972
0.0011451
0.000116822
0.00103963
0.000127382
0.000923387
0.000136532
0.000797498
0.000144166
0.000663242
0.000150199
0.00052205
0.000154561
0.000375423
0.000157206
0.000224918
7.22944e-05
0.000158105
1.54021e-05
0.00153402
3.90971e-07
3.13882e-05
0.0014793
4.71858e-05
0.00143001
6.25387e-05
0.00137353
7.72452e-05
0.00130538
9.11235e-05
0.00122494
0.000104009
0.00113221
0.000115753
0.00102789
0.000126218
0.000912922
0.000135285
0.000788431
0.000142851
0.000655676
0.00014883
0.000516071
0.000153154
0.000371099
0.000155776
0.000222296
7.14026e-05
0.000156667
1.52533e-05
0.00151837
3.96178e-07
3.10939e-05
0.00146346
4.67476e-05
0.00141435
6.1961e-05
0.00135832
7.65339e-05
0.0012908
9.02865e-05
0.00121119
0.000103056
0.00111944
0.000114693
0.00101625
0.000125064
0.000902552
0.00013405
0.000779446
0.000141548
0.000648178
0.000147474
0.000510146
0.00015176
0.000366813
0.000154359
0.000219698
7.05201e-05
0.000155243
1.51059e-05
0.00150287
4.0135e-07
3.08022e-05
0.00144776
4.63135e-05
0.00139884
6.13885e-05
0.00134324
7.58292e-05
0.00127636
8.94571e-05
0.00119756
0.000102111
0.00110679
0.000113643
0.00100472
0.000123921
0.000892274
0.000132826
0.00077054
0.000140257
0.000640747
0.00014613
0.000504273
0.000150378
0.000362565
0.000152955
0.000217121
6.96427e-05
0.000153832
1.49599e-05
0.0014875
4.06485e-07
3.05132e-05
0.00143221
4.58833e-05
0.00138347
6.08213e-05
0.00132831
7.51309e-05
0.00126205
8.86353e-05
0.00118405
0.000101175
0.00109425
0.000112603
0.000993293
0.000122788
0.000882089
0.000131613
0.000761716
0.000138978
0.000633383
0.000144799
0.000498453
0.00014901
0.000358354
0.000151564
0.000214568
6.87744e-05
0.000152434
1.48151e-05
0.00147227
4.11578e-07
3.02268e-05
0.0014168
4.54571e-05
0.00136824
6.02593e-05
0.0013135
7.4439e-05
0.00124787
8.78212e-05
0.00117067
0.000100247
0.00108182
0.000111572
0.000981968
0.000121666
0.000871996
0.000130412
0.000752969
0.000137711
0.000626084
0.00014348
0.000492684
0.000147654
0.000354181
0.000150186
0.000212035
6.79109e-05
0.000151049
1.46716e-05
0.00145718
4.1663e-07
2.99431e-05
0.00140152
4.50347e-05
0.00135315
5.97024e-05
0.00129884
7.37535e-05
0.00123382
8.70145e-05
0.00115741
9.93282e-05
0.00106951
0.000110551
0.000970745
0.000120554
0.000861993
0.000129222
0.000744302
0.000136456
0.000618851
0.000142173
0.000486967
0.00014631
0.000350044
0.000148821
0.000209526
6.70564e-05
0.000149677
1.45295e-05
0.00144223
4.21635e-07
2.96619e-05
0.00138639
4.46162e-05
0.0013382
5.91507e-05
0.0012843
7.30743e-05
0.0012199
8.62152e-05
0.00114427
9.84177e-05
0.00105731
0.00010954
0.000959623
0.000119453
0.00085208
0.000128043
0.000735712
0.000135212
0.000611681
0.000140879
0.0004813
0.000144979
0.000345943
0.000147468
0.000207037
6.62065e-05
0.000148318
1.43886e-05
0.00142742
4.26594e-07
2.93833e-05
0.0013714
4.42016e-05
0.00132338
5.8604e-05
0.0012699
7.24014e-05
0.0012061
8.54233e-05
0.00113125
9.75156e-05
0.00104521
0.000108537
0.000948601
0.000118361
0.000842257
0.000126874
0.000727199
0.000133979
0.000604577
0.000139596
0.000475684
0.000143661
0.000341879
0.000146128
0.000204571
6.53655e-05
0.000146971
1.4249e-05
0.00141274
4.31504e-07
2.91072e-05
0.00135654
4.37907e-05
0.00130869
5.80623e-05
0.00125563
7.17346e-05
0.00119243
8.46387e-05
0.00111835
9.66219e-05
0.00103323
0.000107544
0.000937679
0.00011728
0.000832521
0.000125717
0.000718763
0.000132759
0.000597535
0.000138325
0.000470117
0.000142354
0.000337851
0.0001448
0.000202125
6.45289e-05
0.000145636
1.41107e-05
0.00139819
4.36367e-07
2.88337e-05
0.00134182
4.33837e-05
0.00129414
5.75256e-05
0.00124149
7.1074e-05
0.00117888
8.38614e-05
0.00110556
9.57364e-05
0.00102136
0.000106561
0.000926855
0.000116209
0.000822873
0.00012457
0.000710402
0.000131549
0.000590556
0.000137067
0.0004646
0.00014106
0.000333858
0.000143485
0.000199701
6.3701e-05
0.000144315
1.39736e-05
0.00138378
4.4118e-07
2.85626e-05
0.00132723
4.29803e-05
0.00127973
5.69939e-05
0.00122747
7.04194e-05
0.00116546
8.30912e-05
0.00109289
9.48591e-05
0.00100959
0.000105586
0.000916128
0.000115147
0.000813312
0.000123434
0.000702115
0.000130351