1.45 	0 	0 	-0.202194
2.35 	0 	0 	0.0101147
