1.45 	0 	0 	0.711202 	-0.0208913 	9.5825e-22
2.35 	0 	0 	0.859233 	-0.00558162 	-1.00575e-21
