1.45 	0 	0 	-0.0684392
2.35 	0 	0 	0.0336526
