1.275 	2.15223e-18 	-2.76991e-20 	-0.0330875 	-0.000489079 	-2.01705e-22
1.825 	2.15223e-18 	-1.39322e-20 	-0.00736862 	-0.00288225 	1.81135e-21
2.375 	2.15223e-18 	-2.66896e-23 	0.121727 	-0.00342861 	-7.54884e-22
