1.45 	0 	0 	-0.291355
2.35 	0 	0 	-0.126584
