1.45 	0 	0 	-0.00810593 	-0.00257051 	3.78518e-21
2.35 	0 	0 	0.061371 	-0.00663224 	2.28919e-21
