1.275 	2.15223e-18 	-2.76991e-20 	-0.0344028 	-0.000440864 	-1.9289e-22
1.825 	2.15223e-18 	-1.39322e-20 	-0.00935516 	-0.00277229 	1.71204e-21
2.375 	2.15223e-18 	-2.66896e-23 	0.115615 	-0.00326138 	-7.14373e-22
