1.275 	2.15223e-18 	-2.76991e-20 	-0.0328711 	-0.000514173 	-2.06387e-22
1.825 	2.15223e-18 	-1.39322e-20 	-0.00372215 	-0.00345137 	1.76759e-21
2.375 	2.15223e-18 	-2.66896e-23 	0.158596 	-0.00473449 	-7.1091e-22
