1.45 	0 	0 	-0.291876
2.35 	0 	0 	-0.127203
