1.275 	2.15223e-18 	-2.76991e-20 	-0.0342819 	-0.000451546 	-1.95701e-22
1.825 	2.15223e-18 	-1.39322e-20 	-0.00913706 	-0.00277485 	1.7483e-21
2.375 	2.15223e-18 	-2.66896e-23 	0.116238 	-0.00324982 	-7.29785e-22
