/*--------------------------------*- C++ -*----------------------------------*\
  =========                 |
  \\      /  F ield         | OpenFOAM: The Open Source CFD Toolbox
   \\    /   O peration     | Website:  https://openfoam.org
    \\  /    A nd           | Version:  6.0
     \\/     M anipulation  |
\*---------------------------------------------------------------------------*/
FoamFile
{
    version     2.0;
    format      ascii;
    class       volScalarField;
    location    "0.1";
    object      p;
}
// * * * * * * * * * * * * * * * * * * * * * * * * * * * * * * * * * * * * * //

dimensions      [0 2 -2 0 0 0 0];

internalField   nonuniform List<scalar> 
800
(
2.46898e-08
-0.00106776
-0.00257598
-0.00400365
-0.00507947
-0.00572558
-0.00592924
-0.00570998
-0.00509565
-0.00411007
-0.00276857
-0.00107794
0.000961734
0.00335537
0.00611167
0.00924241
0.0127624
0.0166897
0.0210465
0.0258592
0.0311574
0.0369723
0.0433329
0.0502602
0.0577592
0.0658091
0.0743515
0.0832783
0.0924203
0.101539
0.110325
0.118411
0.125396
0.130898
0.134619
0.136422
0.136408
0.134968
0.13281
0.130994
0.000680978
-0.000400138
-0.00159618
-0.00265395
-0.00345039
-0.00391771
-0.00403174
-0.00379232
-0.00320622
-0.00227935
-0.00101371
0.000593231
0.00254752
0.00485791
0.00753505
0.0105911
0.0140396
0.0178963
0.0221797
0.0269107
0.0321126
0.0378081
0.0440166
0.0507482
0.0579971
0.0657331
0.0738924
0.0823681
0.0910013
0.0995757
0.107817
0.115402
0.121986
0.127247
0.130937
0.132957
0.133408
0.132612
0.131008
0.129197
0.00169671
0.000323066
-0.00083928
-0.00173849
-0.00238574
-0.00274465
-0.00279836
-0.00254427
-0.00198055
-0.00110262
9.71209e-05
0.00162875
0.0035038
0.00573447
0.0083331
0.0113119
0.014683
0.01846
0.0226579
0.0272942
0.0323878
0.0379572
0.0440172
0.0505745
0.0576213
0.0651281
0.0730362
0.0812485
0.0896214
0.0979572
0.106002
0.11345
0.119972
0.125247
0.129026
0.13119
0.13181
0.131145
0.129421
0.126968
0.00272875
0.000920345
-0.00038201
-0.00126173
-0.00185589
-0.00216653
-0.00219314
-0.00193967
-0.00140276
-0.000572205
0.000566252
0.00202853
0.00383046
0.00598673
0.00851045
0.0114131
0.0147053
0.0183975
0.0225018
0.0270324
0.0320051
0.0374364
0.0433404
0.0497251
0.0565876
0.0639074
0.0716394
0.0797049
0.0879809
0.0962894
0.10439
0.111981
0.118716
0.124247
0.128273
0.130615
0.131289
0.130497
0.128326
0.124994
0.00347118
0.00118529
-0.000321168
-0.00124354
-0.00183474
-0.00213445
-0.00215963
-0.00192246
-0.00142014
-0.000638563
0.000441694
0.00184108
0.00357834
0.00566932
0.00812661
0.0109599
0.0141769
0.0177846
0.0217911
0.0262066
0.0310439
0.0363178
0.0420433
0.0482326
0.0548916
0.0620145
0.0695769
0.077526
0.0857675
0.0941498
0.10245
0.110367
0.117531
0.123542
0.128018
0.130685
0.131473
0.130523
0.127823
0.123569
0.00363842
0.00088148
-0.000850689
-0.00184739
-0.0024654
-0.00277846
-0.00281933
-0.00260756
-0.00214078
-0.00140182
-0.000367439
0.000985708
0.00267767
0.00472377
0.00713449
0.00991614
0.0130722
0.0166048
0.0205169
0.0248139
0.0295049
0.0346028
0.0401239
0.0460863
0.0525074
0.0594002
0.0667673
0.0745897
0.0828112
0.0913176
0.0999138
0.108307
0.116106
0.122843
0.128029
0.131254
0.132322
0.131288
0.128047
0.122821
0.0030046
-0.000209369
-0.00217013
-0.00325153
-0.00390664
-0.00424029
-0.00429899
-0.00410795
-0.00366443
-0.00294847
-0.00193431
-0.00059746
0.00108157
0.00311584
0.00551197
0.00827115
0.0113909
0.014867
0.0186961
0.0228775
0.0274157
0.032321
0.0376107
0.0433089
0.0494457
0.0560559
0.0631732
0.0708201
0.0789894
0.0876187
0.0965587
0.105543
0.114167
0.121896
0.128112
0.132221
0.133844
0.132901
0.129151
0.122857
0.00137059
-0.00229354
-0.00447442
-0.00562967
-0.00630886
-0.00664746
-0.00670438
-0.00650908
-0.00605768
-0.00532768
-0.00429189
-0.00292635
-0.00121391
0.000854395
0.00327959
0.00605614
0.00917401
0.0126212
0.0163866
0.0204624
0.0248471
0.0295473
0.0345802
0.0399746
0.0457732
0.0520326
0.0588205
0.0662063
0.0742428
0.0829361
0.0922066
0.101841
0.111451
0.120446
0.128066
0.13349
0.136081
0.135527
0.131363
0.123861
-0.00145803
-0.00558133
-0.00796415
-0.00915728
-0.00981772
-0.0101153
-0.0101217
-0.00987023
-0.00935552
-0.00855294
-0.00743486
-0.00597909
-0.00417249
-0.00201178
0.000497015
0.00334033
0.0064995
0.00995362
0.0136827
0.0176709
0.0219095
0.0264
0.0311573
0.0362133
0.0416208
0.0474567
0.0538222
0.0608366
0.0686203
0.077265
0.0867871
0.0970649
0.107765
0.118282
0.127721
0.134999
0.139129
0.13943
0.135046
0.126189
-0.00569278
-0.0103055
-0.0128563
-0.0140137
-0.0145692
-0.0147371
-0.0146051
-0.0142108
-0.0135475
-0.0125889
-0.0113074
-0.00968334
-0.00770864
-0.00538671
-0.00273149
0.000234803
0.00348443
0.00698724
0.0107141
0.0146404
0.0187495
0.0230366
0.0275126
0.0322096
0.0371871
0.0425387
0.0483958
0.0549258
0.0623203
0.0707681
0.0804066
0.0912459
0.103066
0.115306
0.126984
0.136749
0.143167
0.145011
0.140775
0.130455
-0.0115938
-0.0167495
-0.0193995
-0.0203827
-0.0206789
-0.0205664
-0.0201546
-0.019487
-0.0185552
-0.0173301
-0.0157841
-0.0138999
-0.0116741
-0.00911668
-0.00624933
-0.0031025
0.000287587
0.00388222
0.00764375
0.0115393
0.0155445
0.0196475
0.0238542
0.0281946
0.0327314
0.0375698
0.0428653
0.0488281
0.0557176
0.063823
0.0734187
0.0846826
0.09757
0.111651
0.125948
0.138881
0.148515
0.152868
0.149423
0.137658
-0.0195243
-0.0252933
-0.0278946
-0.0284495
-0.0282231
-0.0275887
-0.0266847
-0.0255602
-0.0242019
-0.0225749
-0.0206482
-0.0184048
-0.015844
-0.0129802
-0.00984088
-0.00646289
-0.00288908
0.0008351
0.00466533
0.00856213
0.0124947
0.0164454
0.0204149
0.0244301
0.0285544
0.0328999
0.0376401
0.0430192
0.0493553
0.0570318
0.0664622
0.0780131
0.091868
0.107825
0.125037
0.141814
0.155739
0.163893
0.162284
0.149362
-0.0300551
-0.0364876
-0.0387185
-0.038384
-0.0371998
-0.035674
-0.0339753
-0.0321511
-0.0301734
-0.0279921
-0.0255655
-0.0228705
-0.0199037
-0.0166798
-0.0132278
-0.00958714
-0.00580413
-0.00192779
0.00199381
0.00591741
0.00980856
0.0136459
0.0174269
0.0211765
0.0249584
0.0288898
0.0331571
0.0380303
0.0438753
0.0511556
0.0604121
0.0721994
0.0869578
0.104793
0.125139
0.146394
0.165799
0.179408
0.181258
0.168
-0.0441864
-0.0511789
-0.0523396
-0.0502924
-0.0474558
-0.0444991
-0.0416005
-0.0387797
-0.0359703
-0.0330869
-0.0300613
-0.0268522
-0.023444
-0.0198436
-0.0160753
-0.0121758
-0.00819011
-0.00416668
-0.000153571
0.00380583
0.00767691
0.0114383
0.0150877
0.0186511
0.0221953
0.0258438
0.0297949
0.0343408
0.0398856
0.0469582
0.0562071
0.0683566
0.0841017
0.103901
0.127605
0.153955
0.18015
0.201313
0.20912
0.197412
-0.0638393
-0.0707139
-0.0692836
-0.0640909
-0.0585464
-0.0534232
-0.0488302
-0.0446962
-0.0408657
-0.0371805
-0.0335182
-0.0297987
-0.0259799
-0.0220497
-0.0180196
-0.0139172
-0.00978082
-0.0056544
-0.00158212
0.00239609
0.00624918
0.00995965
0.0135299
0.0169914
0.0204186
0.0239456
0.0277864
0.0322561
0.0377942
0.0449857
0.0545701
0.0674188
0.0844617
0.106518
0.133952
0.166118
0.200635
0.232096
0.249789
0.243661
-0.0928785
-0.0972191
-0.0899749
-0.0792606
-0.0695191
-0.0613268
-0.0545294
-0.0488343
-0.0439028
-0.0394394
-0.0352251
-0.0311133
-0.0270162
-0.0228915
-0.0187292
-0.0145428
-0.0103605
-0.00621872
-0.00215545
0.00179512
0.005608
0.00927267
0.0127997
0.0162306
0.019652
0.0232141
0.0271517
0.0318076
0.0376597
0.0453493
0.0557022
0.0697277
0.0885798
0.113441
0.145256
0.184248
0.229032
0.274464
0.30824
0.31575
-0.139277
-0.133872
-0.114479
-0.0946572
-0.0788046
-0.0665867
-0.057219
-0.0499385
-0.044061
-0.0390581
-0.0345603
-0.0303249
-0.0262031
-0.0221137
-0.0180225
-0.0139276
-0.00984724
-0.00581084
-0.00185099
0.00200358
0.00573408
0.00933766
0.0128344
0.0162778
0.0197691
0.0234775
0.0276618
0.0326968
0.039103
0.0475825
0.0590532
0.0746728
0.0958411
0.124155
0.161259
0.208542
0.266249
0.330702
0.39036
0.426833
-0.222407
-0.184649
-0.140938
-0.107436
-0.0835962
-0.0668067
-0.0550675
-0.0467139
-0.0404766
-0.0354942
-0.0312119
-0.0272819
-0.0234965
-0.0197427
-0.0159697
-0.0121673
-0.00835041
-0.00454687
-0.000788297
0.00289816
0.00649671
0.0100094
0.0134634
0.0169215
0.0204974
0.0243762
0.0288379
0.0342849
0.0412756
0.0505667
0.063163
0.0803715
0.103864
0.135746
0.178613
0.235551
0.309446
0.400426
0.504591
0.604047
-0.39753
-0.250299
-0.155292
-0.105115
-0.0749288
-0.0558523
-0.0440514
-0.0366292
-0.0316142
-0.0278553
-0.0246955
-0.0217549
-0.0188227
-0.0157953
-0.0126364
-0.00935057
-0.00596586
-0.00252176
0.000940867
0.00438778
0.00779829
0.0111715
0.0145334
0.0179473
0.0215286
0.0254655
0.0300432
0.0356715
0.0429189
0.0525586
0.0656289
0.0835119
0.108054
0.141779
0.188278
0.252882
0.343173
0.469548
0.656369
0.909177
-0.737939
-0.310965
-0.127742
-0.0684669
-0.0420163
-0.0278636
-0.0210832
-0.0181507
-0.0168097
-0.0159574
-0.0150826
-0.013941
-0.01243
-0.0105297
-0.00826801
-0.00569852
-0.00288696
9.81321e-05
0.003193
0.00634489
0.0095176
0.0126966
0.0158951
0.0191635
0.022603
0.0263858
0.0307776
0.036164
0.0430819
0.052262
0.0646883
0.0816772
0.105005
0.137164
0.181933
0.245882
0.342142
0.499951
0.801544
1.34767
)
;

boundaryField
{
    movingWall
    {
        type            zeroGradient;
    }
    fixedWalls
    {
        type            zeroGradient;
    }
    frontAndBack
    {
        type            empty;
    }
}


// ************************************************************************* //
