/*--------------------------------*- C++ -*----------------------------------*\
  =========                 |
  \\      /  F ield         | OpenFOAM: The Open Source CFD Toolbox
   \\    /   O peration     | Website:  https://openfoam.org
    \\  /    A nd           | Version:  6.0
     \\/     M anipulation  |
\*---------------------------------------------------------------------------*/
FoamFile
{
    version     2.0;
    format      ascii;
    class       surfaceScalarField;
    location    "146";
    object      phi;
}
// * * * * * * * * * * * * * * * * * * * * * * * * * * * * * * * * * * * * * //

dimensions      [0 3 -1 0 0 0 0];

internalField   nonuniform List<scalar> 
68636
(
3.02263e-05
0.00310561
4.72324e-09
6.08403e-05
0.00307074
9.10885e-05
0.0030025
0.000120477
0.00290139
0.00014862
0.00276843
0.000175169
0.00260507
0.000199812
0.0024131
0.000222264
0.00219462
0.000242266
0.00195202
0.000259593
0.00168789
0.000274044
0.00140513
0.000285467
0.00110642
0.000293802
0.000795424
0.00029877
0.000473677
0.000129305
0.000293959
2.99427e-05
0.00307565
1.34806e-08
6.02785e-05
0.0030404
9.02517e-05
0.00297253
0.000119373
0.00287227
0.00014726
0.00274055
0.000173567
0.00257876
0.000197984
0.00238868
0.00022023
0.00217238
0.000240049
0.0019322
0.000257217
0.00167073
0.000271537
0.00139081
0.000282838
0.00109512
0.000291212
0.000787054
0.00029552
0.000469374
0.000133094
0.000291739
2.96614e-05
0.00304597
2.21007e-08
5.97215e-05
0.00301034
8.94225e-05
0.00294283
0.00011828
0.00284342
0.000145913
0.00271292
0.000171981
0.0025527
0.000196176
0.00236449
0.000218219
0.00215033
0.000237857
0.00191257
0.000254867
0.00165372
0.000269058
0.00137662
0.000280233
0.00108395
0.000288532
0.000778755
0.000293153
0.000464752
0.000135248
0.000290998
2.9383e-05
0.00301656
3.05509e-08
5.91699e-05
0.00298056
8.86013e-05
0.0029134
0.000117197
0.00281482
0.000144579
0.00268554
0.00017041
0.00252687
0.000194385
0.00234051
0.000216227
0.00212849
0.000235686
0.00189311
0.000252539
0.00163687
0.000266602
0.00136256
0.000277656
0.0010729
0.000285817
0.000770598
0.000290569
0.000460006
0.000136475
0.00028935
2.91072e-05
0.00298741
3.8802e-08
5.86236e-05
0.00295104
8.77879e-05
0.00288423
0.000116124
0.00278649
0.000143257
0.0026584
0.000168853
0.00250127
0.000192609
0.00231676
0.000214252
0.00210685
0.000233532
0.00187383
0.000250231
0.00162017
0.000264165
0.00134863
0.000275109
0.00106195
0.000283114
0.000762592
0.000287829
0.000455289
0.000137061
0.000287242
2.8834e-05
0.00295853
4.68775e-08
5.80823e-05
0.00292179
8.69817e-05
0.00285533
0.00011506
0.00275841
0.000141947
0.00263152
0.00016731
0.00247591
0.000190849
0.00229322
0.000212294
0.00208541
0.000231398
0.00185473
0.000247942
0.00160363
0.00026175
0.00133482
0.000272591
0.00105111
0.00028045
0.000754736
0.000285093
0.000450651
0.000137209
0.000284954
2.85633e-05
0.00292991
5.47618e-08
5.75459e-05
0.00289281
8.61827e-05
0.0028267
0.000114006
0.00273058
0.000140648
0.00260487
0.00016578
0.00245078
0.000189105
0.00226989
0.000210354
0.00206416
0.000229284
0.0018358
0.000245675
0.00158723
0.000259355
0.00132114
0.0002701
0.00104037
0.000277833
0.000747002
0.000282396
0.000446086
0.00013705
0.000282554
2.82951e-05
0.00290155
6.24493e-08
5.70143e-05
0.00286409
8.53909e-05
0.00279832
0.000112961
0.00270301
0.000139361
0.00257847
0.000164264
0.00242588
0.000187376
0.00224678
0.000208431
0.00204311
0.000227188
0.00181704
0.000243429
0.00157099
0.000256982
0.00130759
0.000267633
0.00102972
0.000275259
0.00073938
0.000279746
0.000441604
0.000136693
0.000280111
2.80294e-05
0.00287345
6.99351e-08
5.64876e-05
0.00283563
8.46063e-05
0.0027702
0.000111926
0.0026757
0.000138085
0.00255232
0.000162761
0.0024012
0.000185663
0.00222388
0.000206526
0.00202224
0.000225112
0.00179846
0.000241203
0.0015549
0.00025463
0.00129416
0.000265188
0.00101916
0.000272722
0.000731844
0.000277143
0.000437181
0.000136164
0.000277669
2.77661e-05
0.00284561
7.72599e-08
5.59656e-05
0.00280743
8.38286e-05
0.00274234
0.0001109
0.00264862
0.000136821
0.00252639
0.000161272
0.00237675
0.000183965
0.00220119
0.000204638
0.00200157
0.000223054
0.00178004
0.000238997
0.00153896
0.000252298
0.00128086
0.000262763
0.0010087
0.000270217
0.000724394
0.000274584
0.000432819
0.000135518
0.000275238
2.75053e-05
0.00281802
8.44671e-08
5.54482e-05
0.00277949
8.30578e-05
0.00271473
0.000109882
0.0026218
0.000135568
0.00250071
0.000159796
0.00235252
0.000182283
0.0021787
0.000202767
0.00198109
0.000221014
0.00176179
0.000236811
0.00152316
0.000249987
0.00126768
0.00026036
0.000998326
0.00026774
0.000717013
0.00027206
0.000428498
0.000134757
0.000272817
2.72467e-05
0.00279068
9.16194e-08
5.49354e-05
0.0027518
8.22938e-05
0.00268737
0.000108874
0.00259522
0.000134326
0.00247526
0.000158334
0.00232852
0.000180615
0.00215642
0.000200912
0.00196079
0.000218993
0.00174371
0.000234645
0.00150751
0.000247698
0.00125463
0.000257977
0.000988049
0.000265288
0.000709705
0.000269566
0.000424224
0.000133926
0.000270406
2.69904e-05
0.00276359
9.87944e-08
5.44272e-05
0.00272436
8.15366e-05
0.00266026
0.000107875
0.00256888
0.000133095
0.00245004
0.000156884
0.00230473
0.000178963
0.00213434
0.000199075
0.00194068
0.00021699
0.0017258
0.000232499
0.001492
0.000245429
0.0012417
0.000255614
0.000977862
0.000262859
0.000702459
0.0002671
0.000419981
0.000133014
0.000268008
2.67364e-05
0.00273675
1.06052e-07
5.39235e-05
0.00269718
8.07861e-05
0.0026334
0.000106885
0.00254278
0.000131875
0.00242505
0.000155448
0.00228115
0.000177325
0.00211247
0.000197254
0.00192075
0.000215006
0.00170805
0.000230372
0.00147664
0.000243181
0.0012289
0.000253273
0.000967772
0.000260452
0.000695283
0.000264658
0.00041578
0.000132058
0.000265622
2.64846e-05
0.00271015
1.1345e-07
5.34242e-05
0.00267024
8.00423e-05
0.00260678
0.000105903
0.00251692
0.000130666
0.00240029
0.000154024
0.0022578
0.000175702
0.00209079
0.000195449
0.001901
0.000213039
0.00169046
0.000228265
0.00146141
0.000240953
0.00121621
0.000250952
0.000957772
0.000258067
0.000688165
0.000262239
0.000411605
0.000131043
0.00026325
2.6235e-05
0.0026838
1.21022e-07
5.29293e-05
0.00264354
7.9305e-05
0.00258041
0.000104931
0.0024913
0.000129468
0.00237575
0.000152613
0.00223465
0.000174094
0.00206931
0.000193661
0.00188144
0.00021109
0.00167303
0.000226176
0.00144633
0.000238747
0.00120364
0.000248652
0.00094787
0.000255704
0.000681116
0.000259843
0.000407471
0.000130004
0.000260891
2.59875e-05
0.00265768
1.28775e-07
5.24387e-05
0.00261709
7.85743e-05
0.00255427
0.000103967
0.0024659
0.00012828
0.00235143
0.000151215
0.00221172
0.0001725
0.00204802
0.000191888
0.00186205
0.000209158
0.00165576
0.000224107
0.00143138
0.000236561
0.00119118
0.000246373
0.000938056
0.000253363
0.000674125
0.000257469
0.000403362
0.000128921
0.000258548
2.57422e-05
0.0026318
1.36699e-07
5.19524e-05
0.00259088
7.785e-05
0.00252837
0.000103011
0.00244074
0.000127103
0.00232734
0.000149829
0.00218899
0.00017092
0.00202693
0.000190132
0.00184284
0.000207245
0.00163865
0.000222057
0.00141657
0.000234395
0.00117885
0.000244116
0.000928337
0.000251043
0.000667201
0.000255117
0.000399293
0.000127827
0.00025622
2.54989e-05
0.00260616
1.44763e-07
5.14704e-05
0.00256491
7.71321e-05
0.00250271
0.000102064
0.00241581
0.000125937
0.00230347
0.000148456
0.00216647
0.000169355
0.00200603
0.000188392
0.0018238
0.000205348
0.00162169
0.000220025
0.00140189
0.000232249
0.00116662
0.000241879
0.000918705
0.000248745
0.000660333
0.000252787
0.000395248
0.000126701
0.000253908
2.52577e-05
0.00258075
1.52925e-07
5.09927e-05
0.00253918
7.64207e-05
0.00247729
0.000101126
0.00239111
0.000124781
0.00227981
0.000147095
0.00214416
0.000167804
0.00198532
0.000186668
0.00180494
0.000203469
0.00160489
0.000218012
0.00138735
0.000230123
0.00115451
0.000239663
0.000909167
0.000246468
0.000653531
0.000250479
0.000391243
0.000125574
0.000251615
2.50186e-05
0.00255557
1.6114e-07
5.05192e-05
0.00251367
7.57156e-05
0.00245209
0.000100195
0.00236663
0.000123636
0.00225637
0.000145747
0.00212205
0.000166267
0.0019648
0.000184959
0.00178625
0.000201607
0.00158824
0.000216017
0.00137294
0.000228016
0.00114251
0.000237468
0.000899713
0.000244213
0.000646784
0.000248192
0.000387261
0.000124421
0.000249339
2.47816e-05
0.00253062
1.69367e-07
5.00498e-05
0.00248841
7.50167e-05
0.00242712
9.92737e-05
0.00234237
0.000122501
0.00223315
0.00014441
0.00210014
0.000164744
0.00194447
0.000183265
0.00176772
0.000199761
0.00157175
0.00021404
0.00135866
0.000225929
0.00113062
0.000235294
0.000890351
0.000241979
0.000640101
0.000245927
0.000383319
0.000123274
0.000247082
2.45466e-05
0.00250589
1.77571e-07
4.95846e-05
0.00246337
7.43241e-05
0.00240238
9.83602e-05
0.00231833
0.000121376
0.00221013
0.000143086
0.00207843
0.000163235
0.00192432
0.000181587
0.00174937
0.000197933
0.0015554
0.000212081
0.00134451
0.000223861
0.00111884
0.00023314
0.00088107
0.000239766
0.000633472
0.000243683
0.000379399
0.000122106
0.000244844
2.43136e-05
0.00248139
1.8573e-07
4.91236e-05
0.00243856
7.36377e-05
0.00237787
9.74549e-05
0.00229452
0.000120261
0.00218733
0.000141773
0.00205692
0.000161739
0.00190436
0.000179924
0.00173119
0.000196121
0.0015392
0.00021014
0.00133049
0.000221812
0.00110717
0.000231005
0.00087188
0.000237574
0.000626907
0.00024146
0.000375518
0.000120949
0.000242626
2.40827e-05
0.00245712
1.93832e-07
4.86666e-05
0.00241397
7.29574e-05
0.00235358
9.65578e-05
0.00227092
0.000119156
0.00216473
0.000140473
0.0020356
0.000160257
0.00188457
0.000178277
0.00171317
0.000194325
0.00152315
0.000208216
0.0013166
0.000219782
0.0010956
0.000228891
0.000862769
0.000235402
0.000620393
0.000239258
0.000371659
0.000119775
0.000240426
2.38537e-05
0.00243306
2.01876e-07
4.82137e-05
0.00238961
7.22833e-05
0.00232951
9.56687e-05
0.00224753
0.000118061
0.00214234
0.000139184
0.00201448
0.000158788
0.00186497
0.000176644
0.00169531
0.000192546
0.00150725
0.00020631
0.00130284
0.00021777
0.00108414
0.000226796
0.000853746
0.000233251
0.000613941
0.000237076
0.000367839
0.000118614
0.000238245
2.36268e-05
0.00240922
2.09867e-07
4.77648e-05
0.00236548
7.16151e-05
0.00230566
9.47876e-05
0.00222436
0.000116977
0.00212015
0.000137907
0.00199355
0.000157332
0.00184554
0.000175026
0.00167762
0.000190783
0.0014915
0.000204421
0.0012892
0.000215777
0.00107279
0.000224721
0.000844801
0.000231119
0.00060754
0.000234914
0.00036404
0.000117438
0.000236084
2.34018e-05
0.0023856
2.17811e-07
4.73199e-05
0.00234156
7.0953e-05
0.00228203
9.39145e-05
0.0022014
0.000115901
0.00209816
0.000136641
0.00197281
0.00015589
0.00182629
0.000173422
0.00166009
0.000189036
0.00147588
0.00020255
0.00127568
0.000213802
0.00106154
0.000222664
0.000835941
0.000229007
0.0006012
0.000232773
0.000360279
0.000116278
0.000233942
2.31788e-05
0.0023622
2.25719e-07
4.6879e-05
0.00231786
7.02968e-05
0.00225861
9.30492e-05
0.00217864
0.000114836
0.00207637
0.000135387
0.00195226
0.00015446
0.00180722
0.000171833
0.00164271
0.000187304
0.00146041
0.000200696
0.00126229
0.000211846
0.00105038
0.000220627
0.000827158
0.000226915
0.000594909
0.000230651
0.00035654
0.000115104
0.000231819
2.29578e-05
0.00233901
2.33597e-07
4.64421e-05
0.00229437
6.96466e-05
0.0022354
9.21918e-05
0.0021561
0.00011378
0.00205478
0.000134144
0.00193189
0.000153044
0.00178832
0.000170259
0.0016255
0.000185589
0.00144508
0.000198858
0.00124902
0.000209907
0.00103934
0.000218609
0.000818458
0.000224842
0.000588679
0.000228549
0.000352837
0.000113948
0.000229714
2.27388e-05
0.00231603
2.41453e-07
4.60091e-05
0.0022711
6.90022e-05
0.00221241
9.1342e-05
0.00213376
0.000112734
0.00203339
0.000132913
0.00191171
0.00015164
0.00176959
0.000168698
0.00160844
0.000183889
0.00142989
0.000197037
0.00123587
0.000207986
0.00102839
0.000216609
0.000809833
0.000222788
0.000582496
0.000226466
0.000349155
0.000112779
0.000227629
2.25217e-05
0.00229326
2.49291e-07
4.55799e-05
0.00224805
6.83636e-05
0.00218963
9.05e-05
0.00211162
0.000111697
0.0020122
0.000131692
0.00189172
0.00015025
0.00175104
0.000167152
0.00159154
0.000182205
0.00141484
0.000195233
0.00122285
0.000206082
0.00101754
0.000214627
0.00080129
0.000220753
0.000576373
0.000224402
0.000345511
0.000111628
0.000225561
2.23065e-05
0.00227069
2.57113e-07
4.51546e-05
0.0022252
6.77307e-05
0.00216705
8.96655e-05
0.00208969
0.00011067
0.00199119
0.000130483
0.0018719
0.000148871
0.00173265
0.00016562
0.00157479
0.000180536
0.00139992
0.000193446
0.00120994
0.000204196
0.00100679
0.000212664
0.00079282
0.000218737
0.000570297
0.000222357
0.000341887
0.000110466
0.000223512
2.20932e-05
0.00224834
2.64921e-07
4.47332e-05
0.00220256
6.71036e-05
0.00214468
8.88386e-05
0.00206795
0.000109652
0.00197038
0.000129285
0.00185227
0.000147506
0.00171443
0.000164102
0.00155819
0.000178882
0.00138514
0.000191675
0.00119714
0.000202328
0.000996137
0.000210719
0.000784431
0.00021674
0.00056428
0.000220331
0.0003383
0.000109324
0.000221481
2.18819e-05
0.00222618
2.72712e-07
4.43155e-05
0.00218012
6.64821e-05
0.00212251
8.80191e-05
0.00204642
0.000108643
0.00194975
0.000128097
0.00183282
0.000146152
0.00169637
0.000162598
0.00154175
0.000177243
0.0013705
0.00018992
0.00118447
0.000200476
0.000985579
0.000208792
0.000776113
0.00021476
0.000558309
0.000218323
0.000334733
0.000108172
0.000219468
2.16724e-05
0.00220423
2.80487e-07
4.39016e-05
0.0021579
6.58662e-05
0.00210055
8.72071e-05
0.00202508
0.000107643
0.00192932
0.00012692
0.00181354
0.000144811
0.00167848
0.000161107
0.00152545
0.000175619
0.00135599
0.000188181
0.00117191
0.000198641
0.00097512
0.000206883
0.000767874
0.000212799
0.000552396
0.000216333
0.000331203
0.000107041
0.000217473
2.14648e-05
0.00218248
2.8824e-07
4.34914e-05
0.00213587
6.52559e-05
0.00207878
8.64024e-05
0.00200393
0.000106652
0.00190907
0.000125754
0.00179444
0.000143482
0.00166075
0.00015963
0.0015093
0.000174011
0.0013416
0.000186458
0.00115946
0.000196824
0.000964752
0.000204991
0.000759705
0.000210856
0.000546527
0.000214362
0.000327693
0.000105899
0.000215496
2.12591e-05
0.00216092
2.95968e-07
4.30849e-05
0.00211404
6.46511e-05
0.00205722
8.5605e-05
0.00198298
0.00010567
0.001889
0.000124599
0.00177551
0.000142166
0.00164319
0.000158167
0.0014933
0.000172416
0.00132736
0.00018475
0.00114713
0.000195023
0.000954482
0.000203116
0.000751614
0.00020893
0.000540716
0.000212408
0.00032422
0.00010478
0.000213536
2.10552e-05
0.00213956
3.03666e-07
4.26821e-05
0.00209242
6.40518e-05
0.00203585
8.48148e-05
0.00196221
0.000104698
0.00186912
0.000123453
0.00175675
0.000140861
0.00162578
0.000156717
0.00147744
0.000170837
0.00131324
0.000183059
0.0011349
0.000193238
0.0009443
0.000201259
0.00074359
0.000207023
0.000534949
0.000210472
0.000320766
0.000103651
0.000211593
2.08532e-05
0.0021184
3.11328e-07
4.2283e-05
0.00207099
6.34579e-05
0.00201467
8.40318e-05
0.00194164
0.000103734
0.00184942
0.000122319
0.00173817
0.000139568
0.00160853
0.00015528
0.00146173
0.000169271
0.00129924
0.000181383
0.00112279
0.00019147
0.000934215
0.000199419
0.000735644
0.000205133
0.000529238
0.000208554
0.000317349
0.000102545
0.000209669
2.06529e-05
0.00209743
3.18947e-07
4.18874e-05
0.00204975
6.28693e-05
0.00199369
8.32559e-05
0.00192125
0.000102778
0.0018299
0.000121195
0.00171975
0.000138287
0.00159144
0.000153856
0.00144616
0.000167721
0.00128538
0.000179722
0.00111079
0.000189718
0.000924217
0.000197596
0.000727764
0.00020326
0.000523571
0.000206653
0.000313951
0.000101429
0.000207761
2.04545e-05
0.00207664
3.26518e-07
4.14954e-05
0.00202871
6.22862e-05
0.0019729
8.24871e-05
0.00190105
0.000101832
0.00181055
0.00012008
0.0017015
0.000137017
0.0015745
0.000152445
0.00143074
0.000166184
0.00127164
0.000178076
0.0010989
0.000187982
0.000914312
0.000195789
0.000719959
0.000201404
0.000517959
0.00020477
0.000310589
0.000100336
0.000205871
2.02579e-05
0.00205605
3.34032e-07
4.1107e-05
0.00200786
6.17083e-05
0.0019523
8.17252e-05
0.00188103
0.000100894
0.00179138
0.000118977
0.00168342
0.000135759
0.00155772
0.000151047
0.00141545
0.000164661
0.00125803
0.000176446
0.00108711
0.000186262
0.000904494
0.000193999
0.000712219
0.000199565
0.00051239
0.000202904
0.000307246
9.92335e-05
0.000203998
2.0063e-05
0.00203565
3.41483e-07
4.07221e-05
0.0019872
6.11357e-05
0.00193189
8.09702e-05
0.0018612
9.99643e-05
0.00177239
0.000117883
0.0016655
0.000134513
0.00154109
0.000149662
0.0014003
0.000163152
0.00124454
0.00017483
0.00107544
0.000184558
0.000894767
0.000192226
0.000704554
0.000197743
0.000506876
0.000201054
0.00030394
9.81542e-05
0.000202142
1.98699e-05
0.00201543
3.48864e-07
4.03407e-05
0.00196673
6.05682e-05
0.00191166
8.02222e-05
0.00184155
9.90434e-05
0.00175357
0.000116799
0.00164775
0.000133278
0.00152461
0.000148289
0.00138529
0.000161657
0.00123117
0.00017323
0.00106386
0.00018287
0.000885125
0.000190469
0.000696952
0.000195938
0.000501404
0.000199222
0.000300652
9.70656e-05
0.000200302
1.96785e-05
0.00199539
3.5617e-07
3.99628e-05
0.00194645
6.0006e-05
0.00189162
7.94809e-05
0.00182207
9.81308e-05
0.00173492
0.000115725
0.00163015
0.000132054
0.00150828
0.000146929
0.00137042
0.000160176
0.00121792
0.000171644
0.0010524
0.000181197
0.000875573
0.000188728
0.000689423
0.00019415
0.000495985
0.000197406
0.0002974
9.60001e-05
0.00019848
1.94889e-05
0.00197554
3.63394e-07
3.95883e-05
0.00192635
5.94488e-05
0.00187175
7.87464e-05
0.00180277
9.72266e-05
0.00171644
0.000114661
0.00161272
0.000130842
0.0014921
0.000145582
0.00135567
0.000158709
0.00120479
0.000170072
0.00104103
0.000179539
0.000866104
0.000187003
0.000681957
0.000192377
0.000490608
0.000195607
0.000294166
9.49256e-05
0.000196673
1.9301e-05
0.00195587
3.70534e-07
3.92172e-05
0.00190643
5.88967e-05
0.00185208
7.80186e-05
0.00178365
9.63306e-05
0.00169813
0.000113606
0.00159544
0.00012964
0.00147606
0.000144246
0.00134107
0.000157254
0.00119178
0.000168515
0.00102977
0.000177897
0.000856724
0.000185294
0.000674562
0.000190621
0.000485283
0.000193824
0.000290967
9.38744e-05
0.000194883
1.91148e-05
0.00193638
3.77584e-07
3.88495e-05
0.0018867
5.83497e-05
0.00183258
7.72974e-05
0.0017647
9.54428e-05
0.00167998
0.000112561
0.00157832
0.00012845
0.00146017
0.000142923
0.00132659
0.000155814
0.00117889
0.000166972
0.00101861
0.00017627
0.000847424
0.000183601
0.000667228
0.000188882
0.000479999
0.000192057
0.000287787
9.28144e-05
0.000193109
1.89304e-05
0.00191706
3.84545e-07
3.84851e-05
0.00186714
5.78076e-05
0.00181325
7.65828e-05
0.00174593
9.45631e-05
0.001662
0.000111526
0.00156136
0.00012727
0.00144443
0.000141612
0.00131225
0.000154386
0.00116612
0.000165444
0.00100756
0.000174658
0.000838212
0.000181923
0.000659965
0.000187158
0.000474768
0.000190307
0.000284642
9.17779e-05
0.000191351
1.87476e-05
0.00189792
3.91412e-07
3.81241e-05
0.00184777
5.72705e-05
0.00179411
7.58747e-05
0.00172732
9.36915e-05
0.00164418
0.0001105
0.00154455
0.000126101
0.00142883
0.000140314
0.00129804
0.000152971
0.00115346
0.000163929
0.000996596
0.00017306
0.000829079
0.000180261
0.000652761
0.00018545
0.000469576
0.000188572
0.000281514
9.07328e-05
0.000189609
1.85664e-05
0.00187896
3.98188e-07
3.77663e-05
0.00182857
5.67383e-05
0.00177513
7.51731e-05
0.00170889
9.28278e-05
0.00162653
0.000109484
0.0015279
0.000124943
0.00141337
0.000139027
0.00128396
0.00015157
0.00114092
0.000162429
0.000985738
0.000171478
0.000820031
0.000178614
0.000645627
0.000183757
0.000464436
0.000186854
0.000278422
8.97115e-05
0.000187883
1.8387e-05
0.00186017
4.0487e-07
3.74119e-05
0.00180954
5.6211e-05
0.00175633
7.4478e-05
0.00169062
9.19721e-05
0.00160903
0.000108477
0.00151139
0.000123796
0.00139805
0.000137751
0.00127
0.000150181
0.00112849
0.000160942
0.000974976
0.000169909
0.000811062
0.000176982
0.000638552
0.00018208
0.000459334
0.000185151
0.000275346
8.86816e-05
0.000186172
1.82092e-05
0.00184155
4.11461e-07
3.70607e-05
0.00179069
5.56885e-05
0.00173771
7.37892e-05
0.00167252
9.11241e-05
0.0015917
0.000107479
0.00149504
0.000122659
0.00138287
0.000136488
0.00125617
0.000148805
0.00111617
0.000159469
0.000964313
0.000168356
0.000802176
0.000175365
0.000631544
0.000180419
0.000454283
0.000183463
0.000272306
8.76755e-05
0.000184477
1.8033e-05
0.0018231
4.17959e-07
3.67127e-05
0.00177201
5.51708e-05
0.00171925
7.31067e-05
0.00165459
9.0284e-05
0.00157452
0.00010649
0.00147883
0.000121532
0.00136783
0.000135236
0.00124247
0.000147442
0.00110397
0.000158009
0.000953744
0.000166816
0.000793367
0.000173763
0.000624594
0.000178773
0.000449271
0.000181791
0.000269282
8.6661e-05
0.000182797
1.78585e-05
0.00180481
4.24367e-07
3.63679e-05
0.0017535
5.46578e-05
0.00170096
7.24304e-05
0.00163681
8.94515e-05
0.0015575
0.00010551
0.00146277
0.000120416
0.00135292
0.000133996
0.00122889
0.000146091
0.00109187
0.000156563
0.000943274
0.000165291
0.000784641
0.000172176
0.000617711
0.000177141
0.000444308
0.000180135
0.000266293
8.567e-05
0.000181133
1.76855e-05
0.0017867
4.30685e-07
3.60262e-05
0.00173516
5.41496e-05
0.00168284
7.17604e-05
0.0016192
8.86267e-05
0.00154063
0.000104539
0.00144686
0.00011931
0.00133815
0.000132767
0.00121543
0.000144753
0.00107988
0.00015513
0.000932894
0.00016378
0.000775989
0.000170604
0.000610885
0.000175525
0.000439383
0.000178493
0.00026332
8.46706e-05
0.000179484
1.75142e-05
0.00176875
4.36916e-07
3.56877e-05
0.00171699
5.3646e-05
0.00166488
7.10965e-05
0.00160175
8.78094e-05
0.00152392
0.000103578
0.00143109
0.000118214
0.00132351
0.000131549
0.0012021
0.000143426
0.00106801
0.00015371
0.000922612
0.000162282
0.000767419
0.000169045
0.000604124
0.000173924
0.000434507
0.000176867
0.000260382
8.36945e-05
0.00017785
1.73444e-05
0.00175096
4.4306e-07
3.53524e-05
0.00169898
5.3147e-05
0.00164708
7.04387e-05
0.00158446
8.69996e-05
0.00150736
0.000102625
0.00141547
0.000117129
0.00130901
0.000130342
0.00118888
0.000142113
0.00105624
0.000152304
0.000912419
0.000160799
0.000758921
0.000167502
0.000597418
0.000172337
0.000429668
0.000175255
0.000257459
8.27099e-05
0.000176231
1.71763e-05
0.00173333
4.49121e-07
3.50201e-05
0.00168113
5.26526e-05
0.00162945
6.97869e-05
0.00156733
8.61973e-05
0.00149095
0.00010168
0.00139998
0.000116053
0.00129464
0.000129147
0.00117579
0.000140811
0.00104457
0.00015091
0.000902321
0.000159329
0.000750504
0.000165972
0.000590777
0.000170765
0.000424877
0.000173658
0.00025457
8.17485e-05
0.000174627
1.70096e-05
0.00171587
4.55101e-07
3.46908e-05
0.00166345
5.21628e-05
0.00161198
6.91411e-05
0.00155035
8.54023e-05
0.00147469
0.000100745
0.00138464
0.000114987
0.00128039
0.000127963
0.00116281
0.000139521
0.00103301
0.000149529
0.000892311
0.000157872
0.000742159
0.000164456
0.000584191
0.000169208
0.000420122
0.000172076
0.000251697
8.07785e-05
0.000173037
1.68446e-05
0.00169856
4.61002e-07
3.43646e-05
0.00164593
5.16774e-05
0.00159467
6.85013e-05
0.00153352
8.46147e-05
0.00145858
9.9818e-05
0.00136944
0.000113931
0.00126628
0.000126789
0.00114996
0.000138243
0.00102156
0.000148161
0.000882394
0.000156429
0.000733892
0.000162955
0.000577667
0.000167664
0.000415415
0.000170508
0.000248857
7.98316e-05
0.000171462
1.6681e-05
0.00168141
4.66828e-07
3.40414e-05
0.00162857
5.11965e-05
0.00157751
6.78673e-05
0.00151685
8.38342e-05
0.00144261
9.88995e-05
0.00135437
0.000112885
0.00125229
0.000125626
0.00113721
0.000136977
0.00101021
0.000146805
0.000872564
0.000155
0.000725696
0.000161467
0.000571197
0.000166135
0.000410743
0.000168955
0.000246032
7.88762e-05
0.000169901
1.6519e-05
0.00166442
4.72584e-07
3.37212e-05
0.00161137
5.07201e-05
0.00156051
6.72392e-05
0.00150033
8.3061e-05
0.00142679
9.79895e-05
0.00133944
0.000111848
0.00123844
0.000124474
0.00112459
0.000135722
0.000998963
0.000145462
0.000862825
0.000153583
0.000717576
0.000159993
0.00056479
0.00016462
0.000406119
0.000167415
0.000243241
7.79438e-05
0.000168355
1.63585e-05
0.00164759
4.78272e-07
3.3404e-05
0.00159432
5.0248e-05
0.00154367
6.66168e-05
0.00148396
8.22948e-05
0.00141111
9.70879e-05
0.00132465
0.000110821
0.0012247
0.000123333
0.00111208
0.000134479
0.000987815
0.000144132
0.00085317
0.00015218
0.000709526
0.000158532
0.000558434
0.000163119
0.000401529
0.00016589
0.000240464
7.70029e-05
0.000166823
1.61995e-05
0.0016309
4.83898e-07
3.30896e-05
0.00157744
4.97803e-05
0.00152698
6.60002e-05
0.00146774
8.15357e-05
0.00139557
9.61946e-05
0.00130999
0.000109803
0.0012111
0.000122202
0.00109968
0.000133248
0.000976771
0.000142813
0.000843606
0.000150789
0.000701552
0.000157085
0.00055214
0.000161632
0.000396985
0.000164379
0.00023772
7.6085e-05
0.000165304
1.6042e-05
0.00161437
4.89465e-07
3.27782e-05
0.0015607
4.93169e-05
0.00151044
6.53892e-05
0.00145167
8.07836e-05
0.00138018
9.53095e-05
0.00129547
0.000108795
0.00119761
0.000121081
0.00108739
0.000132027
0.000965823
0.000141507
0.000834125
0.000149412
0.000693645
0.000155652
0.000545897
0.000160158
0.000392475
0.000162882
0.000234991
7.51588e-05
0.0001638
1.58859e-05
0.00159799
4.9498e-07
3.24696e-05
0.00154412
4.88577e-05
0.00149405
6.47839e-05
0.00143575
8.00384e-05
0.00136492
9.44325e-05
0.00128107
0.000107795
0.00118425
0.000119971
0.00107521
0.000130818
0.000954977
0.000140213
0.000824732
0.000148047
0.000685813
0.000154231
0.000539715
0.000158698
0.000388011
0.000161399
0.000232293
7.42554e-05
0.000162309
1.57313e-05
0.00158176
5.00446e-07
3.21639e-05
0.00152768
4.84028e-05
0.00147781
6.41841e-05
0.00141996
7.93001e-05
0.00134981
9.35636e-05
0.00126681
0.000106805
0.001171
0.000118871
0.00106315
0.000129621
0.000944226
0.00013893
0.00081542
0.000146694
0.000678047
0.000152824
0.000533582
0.000157251
0.000383579
0.000159929
0.000229611
7.33437e-05
0.000160832
1.55781e-05
0.00156568
5.05868e-07
3.18611e-05
0.0015114
4.79521e-05
0.00146172
6.35898e-05
0.00140433
7.85685e-05
0.00133483
9.27027e-05
0.00125267
0.000105825
0.00115788
0.000117781
0.00105119
0.000128434
0.000933574
0.00013766
0.000806195
0.000145354
0.000670354
0.00015143
0.000527509
0.000155818
0.000379193
0.000158473
0.000226959
7.24545e-05
0.000159369
1.54263e-05
0.00154974
5.11251e-07
3.1561e-05
0.00149526
4.75055e-05
0.00144578
6.30011e-05
0.00138883
7.78437e-05
0.00131999
9.18497e-05
0.00123867
0.000104853
0.00114488
0.000116702
0.00103934
0.000127258
0.000923016
0.000136401
0.00079705
0.000144027
0.000662726
0.000150048
0.000521485
0.000154398
0.000374839
0.00015703
0.000224322
7.15569e-05
0.000157919
1.5276e-05
0.00153395
5.16599e-07
3.12636e-05
0.00147928
4.70631e-05
0.00142998
6.24177e-05
0.00137348
7.71256e-05
0.00130528
9.10046e-05
0.00122479
0.00010389
0.00113199
0.000115632
0.0010276
0.000126093
0.000912556
0.000135154
0.00078799
0.000142711
0.000655171
0.000148679
0.000515519
0.000152991
0.000370529
0.000155601
0.000221716
7.06817e-05
0.000156483
1.5127e-05
0.0015183
5.21914e-07
3.09691e-05
0.00146343
4.66247e-05
0.00141432
6.18397e-05
0.00135826
7.64141e-05
0.0012907
9.01673e-05
0.00121104
0.000102936
0.00111922
0.000114572
0.00101597
0.000124939
0.000902187
0.000133919
0.000779008
0.000141408
0.000647679
0.000147323
0.000509601
0.000151597
0.000366251
0.000154184
0.000219124
6.9798e-05
0.000155059
1.49794e-05
0.00150279
5.27201e-07
3.06772e-05
0.00144774
4.61903e-05
0.00139881
6.12671e-05
0.00134319
7.57091e-05
0.00127626
8.93377e-05
0.00119741
0.000101991
0.00110657
0.000113522
0.00100444
0.000123795
0.000891914
0.000132695
0.000770111
0.000140117
0.000640258
0.00014598
0.000503741
0.000150216
0.000362017
0.000152781
0.000216563
6.89362e-05
0.000153649
1.48332e-05
0.00148742
5.32462e-07
3.0388e-05
0.00143218
4.576e-05
0.00138344
6.06997e-05
0.00132824
7.50106e-05
0.00126195
8.85157e-05
0.0011839
0.000101055
0.00109403
0.000112481
0.000993008
0.000122662
0.000881732
0.000131482
0.000761289
0.000138838
0.000632899
0.000144648
0.000497928
0.000148848
0.000357814
0.000151391
0.000214015
6.80661e-05
0.000152252
1.46883e-05
0.0014722
5.37699e-07
3.01015e-05
0.00141677
4.53336e-05
0.0013682
6.01375e-05
0.00131344
7.43186e-05
0.00124777
8.77013e-05
0.00117052
0.000100127
0.00108161
0.00011145
0.000981686
0.00012154
0.000871643
0.00013028
0.00075255
0.000137571
0.00062561
0.00014333
0.000492171
0.000147492
0.000353654
0.000150013
0.000211497
6.72177e-05
0.000150868
1.45448e-05
0.00145711
5.42912e-07
2.98177e-05
0.0014015
4.49112e-05
0.00135311
5.95805e-05
0.00129877
7.36329e-05
0.00123372
8.68944e-05
0.00115726
9.92077e-05
0.00106929
0.000110429
0.000970463
0.000120428
0.000861642
0.00012909
0.000743887
0.000136315
0.000618382
0.000142023
0.00048646
0.000146149
0.000349524
0.000148649
0.000208992
6.63609e-05
0.000149497
1.44026e-05
0.00144216
5.48104e-07
2.95364e-05
0.00138636
4.44926e-05
0.00133815
5.90287e-05
0.00128424
7.29536e-05
0.00121979
8.6095e-05
0.00114412
9.8297e-05
0.00105709
0.000109417
0.000959344
0.000119326
0.000851734
0.00012791
0.000735304
0.000135071
0.000611222
0.000140728
0.000480805
0.000144818
0.000345436
0.000147297
0.000206517
6.55258e-05
0.000148138
1.42617e-05
0.00142734
5.53275e-07
2.92578e-05
0.00137137
4.40779e-05
0.00132333
5.84819e-05
0.00126983
7.22805e-05
0.00120599
8.53029e-05
0.00113109
9.73947e-05
0.001045
0.000108414
0.000948323
0.000118234
0.000841913
0.000126742
0.000726795
0.000133839
0.000604123
0.000139446
0.000475195
0.0001435
0.000341378
0.000145957
0.000204055
6.46823e-05
0.000146792
1.4122e-05
0.00141266
5.58424e-07
2.89817e-05
0.00135651
4.3667e-05
0.00130865
5.79402e-05
0.00125556
7.16136e-05
0.00119232
8.45181e-05
0.00111819
9.65007e-05
0.00103302
0.000107421
0.000937403
0.000117153
0.000832182
0.000125584
0.000718365
0.000132618
0.00059709
0.000138175
0.000469639
0.000142194
0.000337362
0.00014463
0.000201623
6.38602e-05
0.000145458
1.39837e-05
0.00139812
5.63551e-07
2.87081e-05
0.00134178
4.32599e-05
0.0012941
5.74034e-05
0.00124141
7.09529e-05
0.00117877
8.37406e-05
0.0011054
9.5615e-05
0.00102114
0.000106437
0.00092658
0.000116081
0.000822537
0.000124437
0.000710008
0.000131408
0.000590116
0.000136916
0.000464128
0.0001409
0.000333375
0.000143315
0.000199203
6.303e-05
0.000144136
1.38466e-05
0.0013837
5.68655e-07
2.84371e-05
0.00132719
4.28565e-05
0.00127968
5.68716e-05
0.0012274
7.02982e-05
0.00116534
8.29703e-05
0.00109273
9.47374e-05
0.00100938
0.000105462
0.000915856
0.00011502
0.00081298
0.000123301
0.000701728
0.00013021
0.000583208
0.000135669