/*--------------------------------*- C++ -*----------------------------------*\
  =========                 |
  \\      /  F ield         | OpenFOAM: The Open Source CFD Toolbox
   \\    /   O peration     | Website:  https://openfoam.org
    \\  /    A nd           | Version:  6.0
     \\/     M anipulation  |
\*---------------------------------------------------------------------------*/
FoamFile
{
    version     2.0;
    format      ascii;
    class       volScalarField;
    location    "5";
    object      p;
}
// * * * * * * * * * * * * * * * * * * * * * * * * * * * * * * * * * * * * * //

dimensions      [0 2 -2 0 0 0 0];

internalField   nonuniform List<scalar> 
2000
(
-0.380727
-0.386606
-0.387991
-0.386806
-0.384292
-0.380849
-0.376774
-0.37239
-0.368006
-0.363218
-0.383744
-0.389146
-0.390162
-0.388666
-0.385862
-0.382147
-0.377815
-0.373176
-0.368548
-0.363654
-0.389772
-0.394207
-0.39448
-0.392357
-0.388969
-0.384703
-0.379845
-0.374682
-0.369546
-0.364435
-0.398806
-0.401757
-0.400896
-0.397823
-0.39355
-0.388447
-0.382779
-0.376788
-0.370835
-0.365372
-0.410845
-0.411749
-0.409346
-0.404994
-0.399534
-0.3933
-0.386517
-0.379348
-0.372178
-0.366164
-0.425884
-0.424124
-0.419751
-0.413797
-0.406858
-0.399207
-0.390995
-0.382242
-0.373324
-0.366421
-0.443892
-0.438793
-0.432018
-0.424157
-0.415484
-0.406174
-0.396265
-0.385541
-0.374216
-0.365803
-0.464762
-0.455622
-0.446024
-0.435987
-0.425366
-0.414205
-0.402389
-0.389307
-0.374526
-0.363029
-0.488242
-0.474408
-0.461631
-0.449223
-0.436522
-0.423368
-0.40933
-0.392911
-0.371973
-0.353399
-0.513884
-0.494869
-0.478721
-0.46399
-0.44954
-0.435111
-0.419925
-0.401397
-0.37548
-0.350052
-0.540998
-0.516571
-0.49701
-0.48017
-0.464722
-0.45095
-0.439139
-0.429821
-0.427934
-0.444688
-0.568768
-0.53893
-0.51588
-0.496678
-0.479578
-0.464936
-0.453166
-0.445208
-0.445901
-0.460603
-0.596457
-0.561464
-0.535027
-0.513355
-0.494185
-0.477772
-0.464429
-0.454785
-0.451757
-0.457052
-0.62338
-0.583656
-0.554077
-0.529948
-0.508433
-0.489613
-0.473606
-0.460617
-0.452016
-0.448119
-0.648733
-0.604782
-0.572344
-0.545736
-0.521536
-0.499636
-0.479985
-0.462454
-0.447441
-0.435249
-0.671467
-0.623856
-0.588826
-0.559657
-0.532387
-0.506804
-0.482813
-0.460149
-0.438695
-0.419389
-0.690252
-0.639621
-0.602249
-0.570388
-0.539672
-0.509937
-0.481217
-0.453298
-0.425873
-0.400794
-0.703493
-0.650589
-0.61112
-0.576425
-0.541956
-0.50779
-0.474255
-0.441331
-0.408717
-0.379232
-0.709414
-0.655103
-0.613801
-0.576168
-0.537774
-0.499134
-0.461003
-0.42362
-0.386791
-0.354222
-0.706149
-0.651418
-0.608598
-0.56802
-0.525723
-0.482837
-0.440617
-0.399569
-0.359612
-0.325196
-0.691862
-0.637803
-0.593858
-0.550482
-0.504552
-0.457943
-0.412417
-0.368694
-0.326769
-0.291651
-0.664849
-0.612646
-0.568077
-0.522257
-0.473253
-0.423746
-0.375948
-0.330701
-0.288007
-0.253246
-0.623682
-0.574578
-0.530023
-0.482363
-0.431149
-0.379853
-0.33103
-0.285535
-0.243295
-0.209876
-0.567321
-0.522593
-0.478844
-0.43021
-0.377943
-0.326217
-0.277786
-0.23341
-0.192865
-0.161709
-0.495224
-0.456155
-0.414155
-0.365664
-0.313749
-0.263137
-0.21663
-0.174804
-0.137213
-0.109197
-0.407453
-0.375292
-0.336113
-0.289077
-0.239078
-0.191213
-0.148192
-0.110358
-0.0769959
-0.0529843
-0.304762
-0.280673
-0.245462
-0.2013
-0.15483
-0.111319
-0.0732681
-0.0407912
-0.0129499
0.00608666
-0.188649
-0.173647
-0.143541
-0.103669
-0.0622726
-0.0246166
0.00707157
0.0327745
0.0533946
0.0659662
-0.0613753
-0.0562366
-0.0322453
0.00210988
0.0371874
0.0678301
0.0919727
0.109164
0.119588
0.122934
0.0740611
0.0688714
0.0859749
0.113981
0.142211
0.165839
0.182876
0.19172
0.191118
0.185015
0.214055
0.19838
0.20799
0.229029
0.250327
0.26792
0.28057
0.28654
0.285691
0.298533
0.354693
0.328624
0.330171
0.343384
0.356809
0.367133
0.373535
0.375178
0.374207
0.386333
0.492029
0.455926
0.449105
0.453925
0.458851
0.461161
0.460338
0.455994
0.450324
0.454799
0.622226
0.576682
0.561509
0.557763
0.554024
0.548163
0.539969
0.529311
0.518027
0.514667
0.741638
0.687464
0.664303
0.652255
0.640154
0.626444
0.611191
0.594445
0.577725
0.567368
0.8469
0.785121
0.754686
0.735025
0.715304
0.694496
0.672898
0.650709
0.629136
0.612683
0.935019
0.866865
0.830187
0.803976
0.777743
0.750907
0.723964
0.697222
0.671593
0.650048
1.00346
0.930345
0.888731
0.857338
0.825979
0.794429
0.763328
0.733072
0.704308
0.678801
1.05023
0.973722
0.928695
0.893716
0.858828
0.824044
0.790106
0.757461
0.726562
0.698341
1.07397
0.995732
0.948961
0.912151
0.875465
0.839037
0.80366
0.769808
0.737829
0.708226
1.07397
0.995732
0.948961
0.912151
0.875465
0.839037
0.80366
0.769808
0.737829
0.708226
1.05023
0.973722
0.928695
0.893717
0.858828
0.824044
0.790106
0.757461
0.726563
0.698341
1.00346
0.930345
0.888732
0.857338
0.825979
0.794429
0.763328
0.733072
0.704308
0.678801
0.935019
0.866866
0.830187
0.803977
0.777743
0.750908
0.723964
0.697223
0.671594
0.650049
0.846901
0.785122
0.754686
0.735025
0.715305
0.694496
0.672899
0.650709
0.629136
0.612683
0.741638
0.687464
0.664304
0.652256
0.640154
0.626445
0.611191
0.594446
0.577725
0.567368
0.622227
0.576682
0.56151
0.557764
0.554024
0.548163
0.539969
0.529311
0.518027
0.514668
0.49203
0.455927
0.449106
0.453925
0.458852
0.461162
0.460339
0.455994
0.450325
0.4548
0.354694
0.328625
0.330172
0.343385
0.356809
0.367134
0.373536
0.375179
0.374208
0.386334
0.214055
0.198381
0.207991
0.22903
0.250328
0.267921
0.280571
0.286541
0.285692
0.298534
0.0740619
0.0688722
0.0859757
0.113982
0.142212
0.16584
0.182876
0.191721
0.191119
0.185017
-0.0613745
-0.0562357
-0.0322445
0.00211076
0.0371883
0.0678311
0.0919736
0.109165
0.119589
0.122935
-0.188648
-0.173646
-0.14354
-0.103668
-0.0622716
-0.0246156
0.00707261
0.0327756
0.0533957
0.0659675
-0.304761
-0.280672
-0.245461
-0.201299
-0.154829
-0.111318
-0.0732669
-0.04079
-0.0129487
0.00608793
-0.407452
-0.375291
-0.336112
-0.289076
-0.239077
-0.191211
-0.148191
-0.110357
-0.0769946
-0.052983
-0.495222
-0.456154
-0.414154
-0.365663
-0.313748
-0.263135
-0.216629
-0.174803
-0.137212
-0.109196
-0.56732
-0.522592
-0.478843
-0.430209
-0.377942
-0.326215
-0.277785
-0.233409
-0.192863
-0.161708
-0.623681
-0.574577
-0.530022
-0.482362
-0.431148
-0.379851
-0.331028
-0.285533
-0.243294
-0.209874
-0.664847
-0.612644
-0.568075
-0.522256
-0.473252
-0.423744
-0.375946
-0.330699
-0.288006
-0.253244
-0.691861
-0.637802
-0.593857
-0.55048
-0.50455
-0.457941
-0.412416
-0.368692
-0.326767
-0.291649
-0.706148
-0.651416
-0.608597
-0.568019
-0.525721
-0.482835
-0.440615
-0.399567
-0.35961
-0.325195
-0.709413
-0.655102
-0.6138
-0.576167
-0.537773
-0.499132
-0.461001
-0.423619
-0.386789
-0.35422
-0.703492
-0.650588
-0.611118
-0.576423
-0.541954
-0.507788
-0.474253
-0.441329
-0.408715
-0.379231
-0.690251
-0.63962
-0.602248
-0.570387
-0.53967
-0.509936
-0.481215
-0.453296
-0.425872
-0.400792
-0.671466
-0.623855
-0.588825
-0.559656
-0.532385
-0.506803
-0.482811
-0.460147
-0.438693
-0.419388
-0.648732
-0.604781
-0.572342
-0.545735
-0.521534
-0.499634
-0.479983
-0.462452
-0.447439
-0.435247
-0.623379
-0.583654
-0.554076
-0.529946
-0.508432
-0.489611
-0.473604
-0.460616
-0.452014
-0.448117
-0.596456
-0.561463
-0.535025
-0.513354
-0.494184
-0.477771
-0.464427
-0.454783
-0.451755
-0.45705
-0.568767
-0.538929
-0.515879
-0.496677
-0.479576
-0.464934
-0.453165
-0.445206
-0.445899
-0.460601
-0.540997
-0.51657
-0.497009
-0.480169
-0.464721
-0.450949
-0.439137
-0.42982
-0.427932
-0.444686
-0.513883
-0.494868
-0.47872
-0.463988
-0.449539
-0.435109
-0.419923
-0.401395
-0.375478
-0.350051
-0.488242
-0.474407
-0.46163
-0.449222
-0.436521
-0.423367
-0.409328
-0.39291
-0.371972
-0.353398
-0.464761
-0.455621
-0.446023
-0.435986
-0.425365
-0.414203
-0.402388
-0.389306
-0.374525
-0.363028
-0.443891
-0.438792
-0.432017
-0.424157
-0.415483
-0.406173
-0.396264
-0.38554
-0.374215
-0.365802
-0.425883
-0.424123
-0.41975
-0.413796
-0.406858
-0.399206
-0.390994
-0.382241
-0.373323
-0.36642
-0.410844
-0.411748
-0.409345
-0.404993
-0.399534
-0.393299
-0.386517
-0.379348
-0.372177
-0.366163
-0.398806
-0.401756
-0.400895
-0.397822
-0.393549
-0.388446
-0.382778
-0.376788
-0.370834
-0.365372
-0.389772
-0.394206
-0.394479
-0.392356
-0.388968
-0.384703
-0.379845
-0.374681
-0.369546
-0.364434
-0.383744
-0.389145
-0.390162
-0.388666
-0.385862
-0.382147
-0.377815
-0.373176
-0.368548
-0.363654
-0.380727
-0.386606
-0.387991
-0.386806
-0.384292
-0.380849
-0.376774
-0.37239
-0.368006
-0.363218
-0.303139
-0.0931395
-0.0334442
0.0133928
0.0127233
0.0113294
0.00696888
0.00422048
0.00200829
0.000995614
-0.304862
-0.094132
-0.0340175
0.0130247
0.012593
0.0112555
0.00694215
0.0042076
0.00200344
0.000991767
-0.308215
-0.0960773
-0.0351379
0.0122969
0.0123346
0.0111088
0.00688894
0.00418199
0.00199375
0.000984146
-0.313012
-0.0989073
-0.0367547
0.0112256
0.0119522
0.0108916
0.00680965
0.00414389
0.00197931
0.000972862
-0.318942
-0.102521
-0.038788
0.00983807
0.0114527
0.0106068
0.00670477
0.00409361
0.00196017
0.000958062
-0.325564
-0.106772
-0.0411239
0.00817897
0.0108471
0.0102592
0.00657508
0.00403152
0.00193642
0.000939925
-0.332659
-0.111677
-0.0437124
0.00628648
0.0101469
0.00985589
0.0064223
0.00395843
0.00190819
0.000918795
-0.340685
-0.117958
-0.046812
0.00409365
0.00934055
0.00940093
0.00624903
0.00387624
0.00187618
0.000895383
-0.347827
-0.126185
-0.0506265
0.00145904
0.00838524
0.00887917
0.00605253
0.0037854
0.00184135
0.000869784
-0.34218
-0.131308
-0.0530197
-0.00101405
0.00737966
0.00827222
0.00581406
0.00367446
0.00180048
0.000837597
-0.27336
-0.127131
-0.0512597
-0.00613661
0.00476242
0.00621798
0.00492689
0.00322449
0.00162924
0.000690931
-0.206054
-0.119897
-0.0483843
-0.0107704
-0.000193177
0.00234764
0.00280882
0.00213396
0.00112521
0.000448429
-0.156387
-0.102658
-0.0436912
-0.0132211
-0.00415485
-0.000892044
0.000821107
0.00104928
0.000603447
0.000229517
-0.11179
-0.0831372
-0.0397281
-0.0152514
-0.00710257
-0.00341855
-0.000936761
1.10091e-05
8.89253e-05
2.52212e-05
-0.0802864
-0.0674941
-0.0374138
-0.0173003
-0.00936885
-0.00538083
-0.00244616
-0.000939819
-0.000391721
-0.000156384
-0.0591017
-0.0557278
-0.0354905
-0.0188405
-0.0109976
-0.00682066
-0.00365815
-0.00175346
-0.000811873
-0.000308956
-0.0454278
-0.0470403
-0.0336763
-0.0198757
-0.0121613
-0.00785157
-0.00458632
-0.00241288
-0.00115948
-0.000431428
-0.0367441
-0.0409017
-0.0321215
-0.0205329
-0.0129714
-0.00855964
-0.0052539
-0.00290979
-0.00142614
-0.000523079
-0.0316495
-0.0369984
-0.0310135
-0.0209211
-0.0134828
-0.00899889
-0.00568315
-0.00324106
-0.00160634
-0.000583398
-0.0292774
-0.0350898
-0.0304472
-0.0211137
-0.0137308
-0.00920484
-0.00589228
-0.00340673
-0.00169739
-0.000612066
-0.238299
-0.266635
-0.293017
-0.317736
-0.341161
-0.363755
-0.386065
-0.40865
-0.431821
-0.456278
-0.0808244
-0.0908135
-0.0998059
-0.108041
-0.115825
-0.123546
-0.131677
-0.140789
-0.151493
-0.165526
-0.0550955
-0.0639806
-0.0724793
-0.0805669
-0.0882072
-0.0953557
-0.101968
-0.108015
-0.113489
-0.118497
-0.0257803
-0.0311774
-0.0363662
-0.0413664
-0.0462014
-0.0508954
-0.0554732
-0.0599576
-0.0643458
-0.0685247
-0.018689
-0.0227506
-0.0266825
-0.0304819
-0.0341454
-0.0376699
-0.0410527
-0.0442915
-0.0473651
-0.0502488
-0.0123055
-0.0152459
-0.0181229
-0.0209362
-0.023686
-0.0263726
-0.0289964
-0.0315568
-0.0340405
-0.0364553
-0.0103575
-0.0126399
-0.0148801
-0.0170746
-0.0192204
-0.021315
-0.0233567
-0.0253434
-0.0272676
-0.0291489
-0.00890496
-0.0107225
-0.0125171
-0.0142852
-0.0160234
-0.0177288
-0.019399
-0.021031
-0.0226196
-0.0241804
-0.0084275
-0.00997315
-0.0115037
-0.0130149
-0.0145028
-0.015964
-0.0173953
-0.0187934
-0.0201541
-0.0214883
-0.00817084
-0.00957484
-0.0109687
-0.0123488
-0.0137117
-0.0150542
-0.0163734
-0.0176661
-0.0189284
-0.0201686
0.148605
0.107292
0.0623723
0.019454
-0.0223014
-0.0631827
-0.102568
-0.139924
-0.175022
-0.207802
0.102753
0.0769235
0.0506781
0.0281539
0.0081747
-0.0103766
-0.0275459
-0.0431382
-0.057136
-0.0696505
0.0607358
0.045172
0.0306315
0.018043
0.00643298
-0.00479499
-0.0156854
-0.0261579
-0.0361982
-0.0458361
0.0430345
0.0342026
0.0259612
0.0185853
0.0116089
0.0048043
-0.00181211
-0.00818514
-0.0142978
-0.0201583
0.0293097
0.0235689
0.0181301
0.0131125
0.00827212
0.00350316
-0.00117937
-0.00574587
-0.0101861
-0.0145004
0.020577
0.0168867
0.0132977
0.00990288
0.00659342
0.00331586
7.61048e-05
-0.00311042
-0.00623695
-0.00930216
0.0139911
0.0114368
0.00889286
0.00642289
0.00398122
0.00154344
-0.000886065
-0.00329684
-0.0056819
-0.00803678
0.00963875
0.00780396
0.00594182
0.00409267
0.00224194
0.000380752
-0.00148728
-0.00335514
-0.00521707
-0.00706844
0.00683664
0.00539128
0.00391102
0.00241448
0.000898934
-0.000636098
-0.00218624
-0.00374568
-0.00530901
-0.00687122
0.00550572
0.00423177
0.00292398
0.00159125
0.000235191
-0.00114141
-0.00253407
-0.00393789
-0.00534821
-0.0067606
0.319927
0.319215
0.317514
0.314418
0.30916
0.300494
0.286642
0.265215
0.233552
0.188388
0.231464
0.23043
0.227741
0.223086
0.216154
0.206506
0.193566
0.176686
0.155115
0.12834
0.162289
0.16125
0.158548
0.153988
0.147489
0.138927
0.128101
0.114795
0.0985923
0.0795908
0.112318
0.111509
0.109394
0.105833
0.10083
0.0943983
0.0865252
0.0772229
0.0664167
0.0544538
0.077501
0.0769187
0.075386
0.0727996
0.0691824
0.0645779
0.0590144
0.0525308
0.0451091
0.0369608
0.0536352
0.0532218
0.0521314
0.0502915
0.0477266
0.0444816
0.040594
0.0361088
0.0310463
0.025555
0.0375519
0.0372543
0.0364688
0.0351439
0.0332991
0.0309697
0.0281861
0.0249816
0.021377
0.0174572
0.0270722
0.02685
0.0262638
0.0252752
0.0238995
0.022164
0.0200931
0.0177122
0.0150428
0.0121379
0.0207746
0.020597
0.0201283
0.019338
0.0182382
0.0168506
0.0151941
0.0132877
0.0111499
0.008813
0.0178206
0.0176633
0.0172492
0.0165511
0.0155796
0.0143534
0.0128891
0.0112032
0.00931303
0.00724236
0.469457
0.47113
0.477482
0.488588
0.504369
0.52515
0.551401
0.583656
0.622457
0.668065
0.467226
0.468875
0.475145
0.486094
0.501626
0.522029
0.547714
0.579129
0.616675
0.660495
0.462815
0.46442
0.470537
0.481182
0.496227
0.515887
0.540457
0.570215
0.605277
0.645562
0.456325
0.457878
0.463783
0.473995
0.488337
0.506918
0.529862
0.557189
0.588586
0.62367
0.447895
0.449401
0.455055
0.464728
0.478183
0.49539
0.51625
0.540441
0.567065
0.595399
0.437691
0.439174
0.44456
0.453612
0.466025
0.481605
0.499984
0.520421
0.541289
0.56148
0.425909
0.427437
0.432574
0.440961
0.452219
0.465968
0.481528
0.497663
0.51193
0.522765
0.412752
0.414507
0.419524
0.427315
0.437441
0.449303
0.461842
0.473183
0.479972
0.48001
0.398298
0.400527
0.405614
0.412936
0.422041
0.432108
0.441629
0.447894
0.446391
0.432703
0.382227
0.384656
0.389358
0.395607
0.402965
0.410482
0.41636
0.417355
0.408585
0.380771
0.382228
0.384657
0.389359
0.395608
0.402966
0.410483
0.416361
0.417357
0.408586
0.380772
0.398299
0.400528
0.405615
0.412937
0.422042
0.432109
0.44163
0.447895
0.446392
0.432704
0.412753
0.414508
0.419525
0.427315
0.437441
0.449304
0.461843
0.473184
0.479973
0.48001
0.42591
0.427438
0.432575
0.440962
0.45222
0.465969
0.481529
0.497663
0.511931
0.522766
0.437692
0.439175
0.44456
0.453613
0.466025
0.481606
0.499984
0.520421
0.541289
0.561481
0.447895
0.449401
0.455056
0.464729
0.478183
0.495391
0.51625
0.540441
0.567066
0.5954
0.456326
0.457879
0.463783
0.473995
0.488337
0.506918
0.529862
0.557189
0.588586
0.62367
0.462815
0.464421
0.470537
0.481183
0.496227
0.515887
0.540458
0.570215
0.605278
0.645562
0.467226
0.468875
0.475145
0.486095
0.501627
0.522029
0.547714
0.579129
0.616675
0.660495
0.469457
0.47113
0.477482
0.488588
0.504369
0.52515
0.551401
0.583656
0.622457
0.668065
0.0178229
0.0176656
0.0172515
0.0165534
0.0155819
0.0143557
0.0128915
0.0112055
0.00931537
0.00724472
0.0207769
0.0205992
0.0201305
0.0193402
0.0182405
0.0168529
0.0151964
0.01329
0.0111523
0.00881533
0.0270744
0.0268523
0.0262661
0.0252774
0.0239017
0.0221663
0.0200954
0.0177144
0.0150451
0.0121401
0.0375541
0.0372565
0.036471
0.0351461
0.0333013
0.0309719
0.0281884
0.0249839
0.0213793
0.0174595
0.0536373
0.0532239
0.0521335
0.0502936
0.0477287
0.0444837
0.0405961
0.0361109
0.0310485
0.0255571
0.077503
0.0769207
0.075388
0.0728016
0.0691844
0.0645799
0.0590164
0.0525328
0.0451112
0.0369628
0.11232
0.111511
0.109396
0.105835
0.100832
0.0944001
0.0865271
0.0772247
0.0664185
0.0544555
0.162291
0.161252
0.15855
0.15399
0.147491
0.138929
0.128102
0.114797
0.0985939
0.0795925
0.231465
0.230431
0.227743
0.223088
0.216156
0.206508
0.193567
0.176687
0.155116
0.128341
0.319928
0.319217
0.317515
0.314419
0.309161
0.300495
0.286644
0.265216
0.233553
0.18839
0.00550808
0.00423412
0.00292632
0.00159356
0.000237483
-0.00113915
-0.00253185
-0.0039357
-0.00534605
-0.00675849
0.00683898
0.00539361
0.00391334
0.00241677
0.000901191
-0.000633883
-0.00218407
-0.00374356
-0.00530694
-0.00686921
0.00964105
0.00780626
0.0059441
0.00409491
0.00224415
0.000382913
-0.00148516
-0.00335308
-0.00521505
-0.00706647
0.0139934
0.0114391
0.00889507
0.00642506
0.00398334
0.0015455
-0.000884056
-0.00329489
-0.00568
-0.00803494
0.0205791
0.0168888
0.0132997
0.00990487
0.00659535
0.00331772
7.78978e-05
-0.00310869
-0.00623529
-0.00930056
0.0293117
0.0235709
0.018132
0.0131143
0.00827389
0.00350487
-0.00117771
-0.00574426
-0.0101846
-0.0144989
0.0430362
0.0342044
0.0259629
0.018587
0.0116105
0.00480586
-0.00181059
-0.00818366
-0.0142963
-0.0201569
0.0607375
0.0451736
0.030633
0.0180445
0.00643443
-0.00479357
-0.015684
-0.0261565
-0.0361969
-0.0458348
0.102754
0.076925
0.0506795
0.0281553
0.00817606
-0.0103753
-0.0275446
-0.0431369
-0.0571347
-0.0696493
0.148607
0.107294
0.0623737
0.0194554
-0.0223
-0.0631814
-0.102567
-0.139923
-0.17502
-0.2078
-0.00816877
-0.00957283
-0.0109668
-0.012347
-0.01371
-0.0150526
-0.0163719
-0.0176647
-0.0189271
-0.0201673
-0.00842556
-0.00997128
-0.0115019
-0.0130132
-0.0145012
-0.0159625
-0.0173938
-0.0187921
-0.0201528
-0.0214871
-0.00890308
-0.0107207
-0.0125154
-0.0142836
-0.0160219
-0.0177274
-0.0193976
-0.0210297
-0.0226184
-0.0241792
-0.0103557
-0.0126381
-0.0148784
-0.017073
-0.0192188
-0.0213136
-0.0233553
-0.0253421
-0.0272664
-0.0291478
-0.0123039
-0.0152444
-0.0181215
-0.0209348
-0.0236847
-0.0263714
-0.0289953
-0.0315557
-0.0340395
-0.0364543
-0.0186876
-0.0227492
-0.0266812
-0.0304806
-0.0341442
-0.0376688
-0.0410516
-0.0442904
-0.0473641
-0.0502479
-0.0257789
-0.0311762
-0.0363649
-0.0413652
-0.0462002
-0.0508943
-0.0554721
-0.0599566
-0.0643448
-0.0685238
-0.0550942
-0.0639793
-0.072478
-0.0805656
-0.0882059
-0.0953545
-0.101967
-0.108014
-0.113488
-0.118496
-0.0808232
-0.0908124
-0.0998048
-0.10804
-0.115824
-0.123545
-0.131676
-0.140789
-0.151492
-0.165525
-0.238297
-0.266633
-0.293016
-0.317734
-0.341159
-0.363753
-0.386063
-0.408648
-0.431819
-0.456276
-0.0292766
-0.0350892
-0.0304466
-0.0211131
-0.0137302
-0.00920422
-0.00589179
-0.0034064
-0.0016972
-0.000612005
-0.0316488
-0.0369978
-0.0310129
-0.0209205
-0.0134822
-0.00899828
-0.00568267
-0.00324075
-0.00160615
-0.000583333
-0.0367434
-0.0409011
-0.0321209
-0.0205323
-0.0129708
-0.00855904
-0.00525341
-0.00290947
-0.00142595
-0.000523009
-0.0454271
-0.0470397
-0.0336758
-0.0198751
-0.0121607
-0.00785097
-0.00458584
-0.00241256
-0.00115929
-0.000431352
-0.059101
-0.0557274
-0.0354901
-0.0188399
-0.010997
-0.00682006
-0.00365769
-0.00175314
-0.000811693
-0.000308875
-0.0802858
-0.0674938
-0.0374136
-0.0172998
-0.00936818
-0.00538023
-0.00244571
-0.000939505
-0.000391548
-0.0001563
-0.111789
-0.0831372
-0.0397282
-0.0152511
-0.0071019
-0.00341796
-0.000936342
1.13223e-05
8.90911e-05
2.53015e-05
-0.156387
-0.102659
-0.0436918
-0.0132208
-0.0041542
-0.000891481
0.000821499
0.00104959
0.000603605
0.000229591
-0.206054
-0.119898
-0.0483855
-0.0107705
-0.000192597
0.00234817
0.00280918
0.00213425
0.00112536
0.000448497
-0.273359
-0.127132
-0.0512616
-0.0061371
0.00476286
0.00621844
0.0049272
0.00322475
0.00162936
0.000690992
-0.342179
-0.131309
-0.0530214
-0.00101456
0.00737995
0.00827256
0.00581429
0.00367464
0.00180058
0.000837663
-0.347826
-0.126186
-0.0506282
0.00145854
0.00838549
0.00887948
0.00605273
0.00378556
0.00184145
0.000869849
-0.340684
-0.117959
-0.0468136
0.00409317
0.00934078
0.00940121
0.00624921
0.00387639
0.00187626
0.000895444
-0.332658
-0.111678
-0.0437139
0.00628602
0.0101471
0.00985614
0.00642246
0.00395856
0.00190826
0.000918852
-0.325563
-0.106774
-0.0411253
0.00817855
0.0108473
0.0102594
0.00657522
0.00403163
0.00193647
0.000939976
-0.318942
-0.102522
-0.0387892
0.0098377
0.0114528
0.010607
0.00670488
0.0040937
0.00196021
0.000958107
-0.313011
-0.0989081
-0.0367557
0.0112252
0.0119523
0.0108917
0.00680973
0.00414396
0.00197933
0.000972901
-0.308215
-0.0960779
-0.0351386
0.0122966
0.0123346
0.0111089
0.00688901
0.00418204
0.00199376
0.00098418
-0.304862
-0.0941324
-0.034018
0.0130246
0.012593
0.0112555
0.0069422
0.00420763
0.00200344
0.000991791
-0.303139
-0.0931396
-0.0334443
0.0133928
0.0127233
0.0113294
0.00696891
0.00422049
0.0020083
0.000995625
)
;

boundaryField
{
    inlet
    {
        type            zeroGradient;
    }
    outlet
    {
        type            fixedValue;
        value           uniform 0;
    }
    cylinder
    {
        type            zeroGradient;
    }
    top
    {
        type            symmetryPlane;
    }
    bottom
    {
        type            symmetryPlane;
    }
    defaultFaces
    {
        type            empty;
    }
}


// ************************************************************************* //
