/*--------------------------------*- C++ -*----------------------------------*\
  =========                 |
  \\      /  F ield         | OpenFOAM: The Open Source CFD Toolbox
   \\    /   O peration     | Website:  https://openfoam.org
    \\  /    A nd           | Version:  6.0
     \\/     M anipulation  |
\*---------------------------------------------------------------------------*/
FoamFile
{
    version     2.0;
    format      ascii;
    class       surfaceScalarField;
    location    "5";
    object      phi;
}
// * * * * * * * * * * * * * * * * * * * * * * * * * * * * * * * * * * * * * //

dimensions      [0 3 -1 0 0 0 0];

internalField   nonuniform List<scalar> 
3880
(
-1.87526e-05
1.87539e-05
-1.31504e-09
-5.49532e-05
3.62042e-05
-3.52707e-09
-9.65672e-05
4.16193e-05
-5.31441e-09
-0.000135997
3.9436e-05
-6.62676e-09
-0.000168509
3.25196e-05
-7.47599e-09
-0.000191424
2.29233e-05
-7.86817e-09
-0.000203626
1.22101e-05
-7.81946e-09
-0.000205252
1.63316e-06
-7.34044e-09
-0.000197493
-7.75277e-06
-6.51302e-09
-1.50956e-05
-5.39936e-09
-0.000182392
-1.78976e-05
3.66515e-05
-5.17493e-05
7.00559e-05
-8.97154e-05
7.95854e-05
-0.000124334
7.40546e-05
-0.000150922
5.91076e-05
-0.000166767
3.87678e-05
-0.000170657
1.6101e-05
-0.000162622
-6.40272e-06
-0.000143784
-2.65903e-05
-4.26638e-05
-0.000116216
-1.61756e-05
5.28271e-05
-4.52963e-05
9.91766e-05
-7.59465e-05
0.000110236
-0.00010098
9.9088e-05
-0.00011586
7.39878e-05
-0.000117849
4.07566e-05
-0.000105574
3.82663e-06
-7.88435e-05
-3.31336e-05
-3.86294e-05
-6.68044e-05
-9.42432e-05
1.29501e-05
-1.35417e-05
6.63688e-05
-3.54434e-05
0.000121078
-5.50056e-05
0.000129798
-6.56574e-05
0.00010974
-6.32011e-05
7.15315e-05
-4.49767e-05
2.25322e-05
-9.45112e-06
-3.16989e-05
4.38829e-05
-8.64676e-05
0.000114326
-0.000137247
-0.000179649
0.000199732
-9.88794e-06
7.62567e-05
-2.18448e-05
0.000133035
-2.62555e-05
0.000134209
-1.74816e-05
0.000100966
8.00824e-06
4.60417e-05
5.25281e-05
-2.19877e-05
0.000117622
-9.6793e-05
0.000204135
-0.00017298
0.000311805
-0.000244918
-0.000306393
0.000438549
-5.0239e-06
8.12806e-05
-3.90219e-06
0.000131914
1.1471e-05
0.000118835
4.53759e-05
6.7061e-05
0.000100206
-8.78875e-06
0.000177431
-9.92121e-05
0.00027817
-0.000197532
0.000403407
-0.000298217
0.000553493
-0.000395003
-0.000479433
0.000726533
1.30382e-06
7.99768e-05
1.91735e-05
0.000114044
5.9796e-05
7.82128e-05
0.000125702
1.15484e-06
0.000217618
-0.000100704
0.000335429
-0.000217023
0.000478947
-0.00034105
0.000648521
-0.000467791
0.000844965
-0.000591448
-0.00070156
0.00106709
9.3313e-06
7.06455e-05
4.8106e-05
7.52692e-05
0.000120313
6.00594e-06
0.000226557
-0.000105089
0.00036553
-0.000239677
0.000534753
-0.000386246
0.000731365
-0.000537662
0.000953246
-0.000689672
0.00120029
-0.000838495
-0.000976569
0.0014753
1.91397e-05
5.15058e-05
8.3108e-05
1.13009e-05
0.000193673
-0.000104559
0.000349798
-0.000261214
0.000548401
-0.00043828
0.00078451
-0.000622355
0.00105152
-0.000804669
0.00134208
-0.000980235
0.00165158
-0.001148
-0.00131741
0.00199242
3.04682e-05
2.10376e-05
0.000123255
-8.14864e-05
0.00027816
-0.000259464
0.000493442
-0.000476496
0.000765955
-0.000710792
0.00109083
-0.000947226
0.00146078
-0.00117463
0.00186446
-0.00138391
0.00228519
-0.00156873
-0.00173072
0.00269849
4.25483e-05
-2.15107e-05
0.000165819
-0.000204757
0.000367554
-0.000461199
0.000645817
-0.00075476
0.000999206
-0.00106418
0.00142747
-0.00137549
0.00193271
-0.00167987
0.00252243
-0.00197363
0.00321706
-0.00226335
-0.00258307
0.00406942
5.43716e-05
-7.58823e-05
0.000207036
-0.000357421
0.000452326
-0.000706489
0.00078576
-0.00108819
0.00120355
-0.00148197
0.00170258
-0.00187453
0.00228044
-0.00225773
0.00293496
-0.00262814
0.00365972
-0.00298811
-0.00334422
0.00442086
6.5463e-05
-0.000141345
0.000244999
-0.000536958
0.000528075
-0.000989565
0.000905504
-0.00146562
0.00136825
-0.00194472
0.00190689
-0.00241317
0.00251103
-0.00286187
0.00316797
-0.00328509
0.00385894
-0.00367908
-0.00403639
0.00455111
7.58323e-05
-0.000217178
0.000279409
-0.000740535
0.000594212
-0.00130437
0.00100514
-0.00187655
0.00149699
-0.00243657
0.00205392
-0.0029701
0.00265916
-0.00346711
0.00329445
-0.00392038
0.00393863
-0.00432325
-0.00466408
0.00456632
8.55834e-05
-0.000302761
0.000310303
-0.000965255
0.000650795
-0.00164486
0.00108547
-0.00231123
0.00159299
-0.00294409
0.00215208
-0.00352918
0.00274179
-0.00405682
0.00334177
-0.00452036
0.00393225
-0.00491373
-0.00522626
0.00449443
9.46667e-05
-0.000397428
0.000337318
-0.00120791
0.000697075
-0.00200462
0.0011457
-0.00275985
0.00165621
-0.0034546
0.00220318
-0.00407616
0.00276345
-0.00461709
0.00331678
-0.00507369
0.0038463
-0.00544324
-0.00571924
0.00433928
0.000102817
-0.000500244
0.000359525
-0.00146461
0.000731287
-0.00237638
0.00118339
-0.00321195
0.00168408
-0.00395529
0.00220522
-0.0045973
0.00272318
-0.00513505
0.00321946
-0.00556997
0.003681
-0.00590479
-0.00613901
0.00410077
0.000109601
-0.000609846
0.000375592
-0.0017306
0.000751076
-0.00275186
0.00119543
-0.0036563
0.00167334
-0.0044332
0.00215553
-0.00507949
0.00261952
-0.00559905
0.00304985
-0.0060003
0.00343779
-0.00629273
-0.00648273
0.00378151
0.00011451
-0.000724356
0.000384063
-0.00200016
0.000754078
-0.00312188
0.00117904
-0.00408127
0.00162156
-0.00487571
0.00205289
-0.00551082
0.00245317
-0.00599932
0.00281081
-0.00635794
0.00312163
-0.00660355
-0.0067494
0.0033883
0.000117033
-0.000841389
0.000383608
-0.00226673
0.00073839
-0.00347666
0.00113244
-0.00447532
0.00152799
-0.00527127
0.00189846
-0.00588129
0.00222768
-0.00632855
0.00250849
-0.00663874
0.00274099
-0.00683605
-0.00693988
0.00293147
0.00011673
-0.000958119
0.000373209
-0.00252321
0.000702875
-0.00380633
0.00105519
-0.00482763
0.00139385
-0.00560993
0.00169578
-0.00618322
0.00194928
-0.00658205
0.00215162
-0.00684108
0.00230669
-0.00699113
-0.0070566
0.00242341
0.000113223
-0.00107134
0.000352181
-0.00276217
0.00064717
-0.00410132
0.000948149
-0.00512861
0.001222
-0.00588377
0.00145022
-0.00641144
0.00162587
-0.0067577
0.00175034
-0.00696555
0.00183055
-0.00707133
-0.00710313
0.00187708
0.000106276
-0.00117762
0.000320308
-0.0029762
0.000571805
-0.00435281
0.000813413
-0.00537022
0.00101671
-0.00608707
0.00116843
-0.00656316
0.00126632
-0.00685559
0.00131525
-0.00701448
0.00132431
-0.00708039
-0.00708371
0.00130489
9.57591e-05
-0.00127338
0.000277763
-0.00315821
0.000477997
-0.00455305
0.000653925
-0.00554615
0.00078301
-0.00621615
0.000857522
-0.00663767
0.000879448
-0.00687752
0.000856363
-0.00699139
0.000798645
-0.00702267
-0.00700288
0.000717814
8.16701e-05
-0.00135505
0.000225093
-0.00330163
0.000367536
-0.00469549
0.000473191
-0.0056518
0.000526239
-0.0062692
0.000524423
-0.00663586
0.000473366
-0.00682646
0.000382464
-0.00690049
0.00026258
-0.00690279
-0.00686519
0.000124893
6.41362e-05
-0.00141918
0.000163198
-0.00340069
0.000242669
-0.00477496
0.000275035
-0.00568417
0.00025164
-0.00624581
0.000175415
-0.00655963
5.49345e-05
-0.00670598
-9.94086e-05
-0.00674615
-0.000276999
-0.0067252
-0.00667502
-0.000467172
4.34332e-05
-0.00146262
9.33356e-05
-0.00345059
0.000106067
-0.00478769
6.35125e-05
-0.00564161
-3.57425e-05
-0.00614655
-0.00018403
-0.00641134
-0.00037043
-0.00651958
-0.000584209
-0.00653237
-0.000815598
-0.00649381
-0.00643593
-0.00105469
2.00124e-05
-0.00148263
1.71643e-05
-0.00344774
-3.91325e-05
-0.0047314
-0.000157018
-0.00552373
-0.000330964
-0.00597261
-0.000549113
-0.00619319
-0.000798655
-0.00627004
-0.00106889
-0.00626214
-0.00135141
-0.00621128
-0.00614814
-0.0016392
-5.45778e-06
-0.00147717
-6.318e-05
-0.00339002
-0.000189201
-0.00460537
-0.00038173
-0.0053312
-0.000629067
-0.00572527
-0.000915949
-0.00590631
-0.00122799
-0.005958
-0.00155439
-0.00593574
-0.00188835
-0.00587733
-0.00580473
-0.00223176
-3.20273e-05
-0.00144514
-0.000144902
-0.00327715
-0.000339347
-0.00441093
-0.000604339
-0.00506621
-0.000923512
-0.0054061
-0.00127996
-0.00554986
-0.00165905
-0.00557891
-0.0020504
-0.00554439
-0.00245045
-0.00547728
-0.00541079
-0.00284438
-5.84692e-05
-0.00138667
-0.00022451
-0.00311111
-0.00048322
-0.00415222
-0.00081501
-0.00473442
-0.00120028
-0.00502083
-0.00162288
-0.00512726
-0.00207145
-0.00513034
-0.00253877
-0.00507707
-0.00302363
-0.00499242
-0.00487515
-0.00355927
-8.37168e-05
-0.00130296
-0.000298994
-0.00289583
-0.000615129
-0.00383608
-0.0010037
-0.00434585
-0.00144077
-0.00458375
-0.00190812
-0.00465991
-0.00239271
-0.00464575
-0.00288551
-0.00458427
-0.00338025
-0.00449768
-0.00439404
-0.00386137
-0.000107148
-0.00119581
-0.00036702
-0.00263596
-0.000733792
-0.00346931
-0.00117083
-0.00390881
-0.00165029
-0.00410429
-0.00215232
-0.00415789
-0.00266343
-0.00413464
-0.00317465
-0.00407305
-0.00367881
-0.00399352
-0.00390642
-0.00416643
-0.000128435
-0.00106738
-0.000428045
-0.00233635
-0.000839184
-0.00305817
-0.00131811
-0.00342988
-0.00183399
-0.00358841
-0.00236627
-0.00362561
-0.00290184
-0.00359906
-0.00343259
-0.00354231
-0.00395296
-0.00347314
-0.00340091
-0.00445847
-0.000147331
-0.000920044
-0.000481676
-0.002002
-0.000931184
-0.00260866
-0.00144618
-0.00291489
-0.00199367
-0.00304092
-0.00255296
-0.00306633
-0.00311173
-0.00304028
-0.00366303
-0.00299101
-0.00420293
-0.00293325
-0.00287466
-0.00472918
-0.000163601
-0.000756444
-0.000527484
-0.00163812
-0.0010094
-0.00212674
-0.00155486
-0.00236943
-0.00212934
-0.00246644
-0.00271228
-0.00248339
-0.00329223
-0.00246033
-0.00386331
-0.00241993
-0.00442275
-0.00237381
-0.00232795
-0.00496946
-0.000177004
-0.00057944
-0.00056498
-0.00125014
-0.00107322
-0.00161851
-0.00164345
-0.00179919
-0.00224009
-0.0018698
-0.00284282
-0.00188066
-0.00344095
-0.0018622
-0.00402944
-0.00183144
-0.00460629
-0.00179695
-0.00176312
-0.00517113
-0.000187305
-0.000392135
-0.000593659
-0.00084379
-0.00112191
-0.00109026
-0.00171101
-0.00121009
-0.00232465
-0.00125616
-0.00294275
-0.00126256
-0.00355522
-0.00124974
-0.00415762
-0.00122904
-0.00474846
-0.00120611
-0.00118381
-0.00532777
-0.000194299
-0.000197836
-0.000613066
-0.000425024
-0.0011548
-0.000548526
-0.00175664
-0.000608251
-0.0023818
-0.00063099
-0.00301042
-0.000633944
-0.00363277
-0.000627387
-0.00424482
-0.000616989
-0.00484539
-0.000605543
-0.000594469
-0.00543473
-0.000197836
-3.50358e-12
-0.00062286
5.73001e-11
-0.00117139
1.38389e-10
-0.00177964
2.01674e-10
-0.00241063
2.27209e-10
-0.00304457
2.17103e-10
-0.00367196
1.80454e-10
-0.00428895
1.2591e-10
-0.00489449
6.29406e-11
-9.21049e-12
-0.00548896
-0.000197836
0.000197836
-0.00062286
0.000425024
-0.00117139
0.000548526
-0.00177964
0.000608251
-0.00241063
0.00063099
-0.00304457
0.000633944
-0.00367196
0.000627388
-0.00428895
0.000616989
-0.00489449
0.000605543
0.000594469
-0.00548896
-0.000194299
0.000392135
-0.000613066
0.00084379
-0.0011548
0.00109026
-0.00175664
0.00121009
-0.0023818
0.00125616
-0.00301042
0.00126256
-0.00363277
0.00124974
-0.00424482
0.00122904
-0.00484539
0.00120611
0.00118381
-0.00543473
-0.000187305
0.00057944
-0.000593659
0.00125014
-0.00112191
0.00161851
-0.00171101
0.00179919
-0.00232465
0.0018698
-0.00294275
0.00188066
-0.00355522
0.0018622
-0.00415762
0.00183144
-0.00474846
0.00179695
0.00176312
-0.00532777
-0.000177004
0.000756443
-0.00056498
0.00163812
-0.00107322
0.00212674
-0.00164345
0.00236943
-0.00224009
0.00246644
-0.00284282
0.00248339
-0.00344095
0.00246033
-0.00402944
0.00241993
-0.00460629
0.00237381
0.00232795
-0.00517113
-0.000163601
0.000920044
-0.000527484
0.002002
-0.0010094
0.00260866
-0.00155486
0.00291489
-0.00212934
0.00304092
-0.00271228
0.00306633
-0.00329223
0.00304028
-0.00386331
0.00299101
-0.00442275
0.00293325
0.00287466
-0.00496946
-0.000147331
0.00106738
-0.000481676
0.00233635
-0.000931184
0.00305817
-0.00144618
0.00342988
-0.00199367
0.00358841
-0.00255296
0.00362561
-0.00311173
0.00359906
-0.00366303
0.00354231
-0.00420293
0.00347314
0.00340091
-0.00472918
-0.000128435
0.00119581
-0.000428045
0.00263596
-0.000839184
0.00346931
-0.00131811
0.00390881
-0.00183399
0.0041043
-0.00236627
0.00415789
-0.00290184
0.00413464
-0.00343259
0.00407305
-0.00395296
0.00399352
0.00390642
-0.00445847
-0.000107148
0.00130296
-0.00036702
0.00289583
-0.000733792
0.00383608
-0.00117083
0.00434585
-0.00165029
0.00458375
-0.00215232
0.00465991
-0.00266343
0.00464575
-0.00317465
0.00458427
-0.00367881
0.00449768
0.00439404
-0.00416643
-8.37169e-05
0.00138667
-0.000298994
0.00311111
-0.000615129
0.00415222
-0.0010037
0.00473442
-0.00144077
0.00502083
-0.00190812
0.00512726
-0.00239271
0.00513034
-0.00288551
0.00507707
-0.00338025
0.00499242
0.00487515
-0.00386137
-5.84692e-05
0.00144514
-0.00022451
0.00327715
-0.000483221
0.00441093
-0.00081501
0.00506621
-0.00120028
0.0054061
-0.00162288
0.00554986
-0.00207145
0.00557891
-0.00253877
0.00554439
-0.00302363
0.00547728
0.00541079
-0.00355927
-3.20274e-05
0.00147717
-0.000144902
0.00339002
-0.000339348
0.00460538
-0.00060434
0.0053312
-0.000923512
0.00572527
-0.00127997
0.00590631
-0.00165905
0.00595799
-0.0020504
0.00593574
-0.00245045
0.00587733
0.00580473
-0.00284438
-5.4579e-06
0.00148263
-6.31804e-05
0.00344775
-0.000189201
0.0047314
-0.000381731
0.00552373
-0.000629067
0.00597261
-0.00091595
0.00619319
-0.00122799
0.00627004
-0.00155439
0.00626214
-0.00188835
0.00621128
0.00614814
-0.00223176
2.00123e-05
0.00146262
1.71638e-05
0.00345059
-3.91333e-05
0.00478769
-0.000157019
0.00564162
-0.000330965
0.00614655
-0.000549114
0.00641134
-0.000798655
0.00651958
-0.00106889
0.00653237
-0.00135141
0.00649381
0.00643593
-0.0016392
4.3433e-05
0.00141918
9.33351e-05
0.00340069
0.000106067
0.00477496
6.35113e-05
0.00568417
-3.57438e-05
0.00624581
-0.000184031
0.00655963
-0.000370431
0.00670598
-0.000584209
0.00674615
-0.000815598
0.0067252
0.00667501
-0.00105469
6.4136e-05
0.00135505
0.000163197
0.00330163
0.000242668
0.00469549
0.000275033
0.00565181
0.000251639
0.0062692
0.000175414
0.00663586
5.49337e-05
0.00682646
-9.94089e-05
0.00690049
-0.000276998
0.00690279
0.00686519
-0.000467171
8.16699e-05
0.00127338
0.000225092
0.00315821
0.000367535
0.00455305
0.00047319
0.00554615
0.000526237
0.00621615
0.000524422
0.00663767
0.000473365
0.00687752
0.000382463
0.00699139
0.00026258
0.00702267
0.00700287
0.000124894
9.57588e-05
0.00117762
0.000277762
0.00297621
0.000477995
0.00435282
0.000653924
0.00537022
0.000783008
0.00608707
0.00085752
0.00656316
0.000879447
0.00685559
0.000856362
0.00701448
0.000798646
0.00708039
0.0070837
0.000717815
0.000106275
0.00107134
0.000320307
0.00276217
0.000571803
0.00410132
0.000813411
0.00512861
0.0010167
0.00588378
0.00116843
0.00641144
0.00126632
0.0067577
0.00131525
0.00696554
0.00132431
0.00707133
0.00710312
0.00130489
0.000113223
0.000958121
0.00035218
0.00252322
0.000647168
0.00380633
0.000948147
0.00482763
0.001222
0.00560993
0.00145021
0.00618322
0.00162587
0.00658204
0.00175034
0.00684107
0.00183055
0.00699112
0.00705659
0.00187708
0.00011673
0.000841391
0.000373208
0.00226674
0.000702873
0.00347667
0.00105519
0.00447532
0.00139385
0.00527127
0.00169577
0.00588129
0.00194928
0.00632854
0.00215161
0.00663873
0.00230669
0.00683605
0.00693987
0.00242341
0.000117033
0.000724358
0.000383608
0.00200016
0.000738389
0.00312188
0.00113243
0.00408128
0.00152799
0.00487572
0.00189846
0.00551082
0.00222768
0.00599932
0.00250848
0.00635793
0.00274098
0.00660355
0.00674939
0.00293147
0.00011451
0.000609848
0.000384063
0.00173061
0.000754077
0.00275187
0.00117904
0.00365631
0.00162156
0.0044332
0.00205289
0.00507949
0.00245316
0.00559904
0.00281081
0.00600029
0.00312163
0.00629272
0.00648272
0.0033883
0.000109601
0.000500247
0.000375591
0.00146462
0.000751075
0.00237639
0.00119543
0.00321195
0.00167334
0.0039553
0.00215552
0.0045973
0.00261952
0.00513505
0.00304984
0.00556997
0.00343779
0.00590478
0.006139
0.00378151
0.000102816
0.00039743
0.000359524
0.00120791
0.000731286
0.00200463
0.00118339
0.00275985
0.00168408
0.00345461
0.00220522
0.00407616
0.00272317
0.00461709
0.00321946
0.00507368
0.003681
0.00544323
0.00571923
0.00410077
9.46666e-05
0.000302764
0.000337318
0.000965261
0.000697075
0.00164487
0.00114569
0.00231123
0.00165621
0.00294409
0.00220318
0.00352919
0.00276345
0.00405682
0.00331677
0.00452036
0.00384629
0.00491372
0.00522625
0.00433928
8.55834e-05
0.00021718
0.000310303
0.000740542
0.000650795
0.00130438
0.00108547
0.00187656
0.00159299
0.00243657
0.00215208
0.0029701
0.00274179
0.00346711
0.00334177
0.00392037
0.00393224
0.00432324
0.00466407
0.00449442
7.58323e-05
0.000141348
0.000279409
0.000536965
0.000594212
0.000989574
0.00100514
0.00146563
0.00149699
0.00194473
0.00205392
0.00241317
0.00265916
0.00286187
0.00329445
0.00328509
0.00393862
0.00367907
0.00403638
0.00456631
6.5463e-05
7.58851e-05
0.000244999
0.000357428
0.000528075
0.000706498
0.000905504
0.0010882
0.00136825
0.00148198
0.00190689
0.00187453
0.00251103
0.00225773
0.00316797
0.00262814
0.00385894
0.0029881
0.00334421
0.00455111
5.43716e-05
2.15135e-05
0.000207036
0.000204764
0.000452326
0.000461208
0.00078576
0.000754769
0.00120355
0.00106419
0.00170258
0.0013755
0.00228044
0.00167987
0.00293496
0.00197362
0.00365971
0.00226335
0.00258306
0.00442086
4.25483e-05
-2.10347e-05
0.000165819
8.14933e-05
0.000367554
0.000259473
0.000645817
0.000476506
0.000999205
0.000710801
0.00142747
0.000947232
0.00193271
0.00117463
0.00252243
0.00138391
0.00321705
0.00156872
0.00173071
0.00406941
3.04682e-05
-5.15029e-05
0.000123255
-1.12939e-05
0.00027816
0.000104568
0.000493442
0.000261225
0.000765953
0.000438289
0.00109082
0.000622362
0.00146078
0.000804673
0.00186445
0.000980235
0.00228518
0.00114799
0.0013174
0.00269848
1.91397e-05
-7.06426e-05
8.31079e-05
-7.52622e-05
0.000193673
-5.99637e-06
0.000349797
0.0001051
0.000548399
0.000239687
0.000784507
0.000386254
0.00105151
0.000537668
0.00134207
0.000689675
0.00165157
0.000838494
0.000976564
0.00199241
9.3313e-06
-7.99739e-05
4.81059e-05
-0.000114037
0.000120313
-7.8203e-05
0.000226556
-1.14382e-06
0.000365528
0.000100715
0.00053475
0.000217033
0.00073136
0.000341057
0.000953239
0.000467796
0.00120028
0.000591449
0.000701558
0.00147529
1.30384e-06
-8.12777e-05
1.91734e-05
-0.000131906
5.97958e-05
-0.000118825
0.000125701
-6.70495e-05
0.000217616
8.80058e-06
0.000335426
9.92231e-05
0.000478942
0.000197541
0.000648514
0.000298224
0.000844955
0.000395007
0.000479434
0.00106708
-5.02388e-06
-7.62539e-05
-3.90219e-06
-0.000133028
1.14708e-05
-0.000134198
4.53751e-05
-0.000100954
0.000100205
-4.6029e-05
0.000177428
2.20001e-05
0.000278165
9.68041e-05
0.0004034
0.000172989
0.000553484
0.000244924
0.000306397
0.000726521
-9.8879e-06
-6.6366e-05
-2.18448e-05
-0.000121071
-2.62557e-05
-0.000129787
-1.74822e-05
-0.000109727
8.00673e-06
-7.1518e-05
5.25254e-05
-2.25186e-05
0.000117618
3.17116e-05
0.000204128
8.64786e-05
0.000311797
0.000137256
0.000179655
0.000438539
-1.35416e-05
-5.28243e-05
-3.54433e-05
-9.91694e-05
-5.50057e-05
-0.000110225
-6.56579e-05
-9.9075e-05
-6.32023e-05
-7.39736e-05
-4.49789e-05
-4.0742e-05
-9.45469e-06
-3.81264e-06
4.38777e-05
3.31462e-05
0.000114319
6.68148e-05
9.42512e-05
0.000199722
-1.61755e-05
-3.66488e-05
-4.52962e-05
-7.00488e-05
-7.59465e-05
-7.95747e-05
-0.00010098
-7.40414e-05
-0.000115861
-5.90929e-05
-0.00011785
-3.87524e-05
-0.000105577
-1.6086e-05
-7.88472e-05
6.41648e-06
-3.86345e-05
2.66021e-05
4.26732e-05
1.29435e-05
-1.78976e-05
-1.87512e-05
-5.17492e-05
-3.61971e-05
-8.97153e-05
-4.16086e-05
-0.000124334
-3.94227e-05
-0.000150922
-3.25046e-05
-0.000166767
-2.29076e-05
-0.000170658
-1.21946e-05
-0.000162623
-1.61868e-06
-0.000143787
7.76547e-06
1.5106e-05
-0.000116219
-1.87525e-05
-5.49532e-05
-9.65671e-05
-0.000135996
-0.000168509
-0.000191424
-0.000203626
-0.000205252
-0.000197493
-0.000182393
0.000693989
-0.000876517
1.36228e-07
0.00243543
-0.00174151
6.44761e-08
0.00420666
-0.00177095
-2.82698e-07
0.00544633
-0.0012392
-4.63715e-07
0.00627636
-0.00082973
-3.08021e-07
0.00673952
-0.000463044
-1.14692e-07
0.00697064
-0.000231131
1.11081e-08
0.00705529
-8.48244e-05
1.75505e-07
0.00706622
-1.11677e-05
2.34669e-07
4.06597e-05
1.35092e-07
0.000812362
-0.0018051
0.00250409
-0.00343323
0.00423266
-0.00349951
0.00544858
-0.00245513
0.00626719
-0.00164834
0.0067271
-0.000922955
0.00695916
-0.000463188
0.00704692
-0.000172586
0.00706192
-2.61706e-05
7.68694e-05
0.00103918
-0.00283133
0.0026352
-0.00502925
0.00428132
-0.00514563
0.0054515
-0.00362531
0.00624819
-0.00244503
0.00670204
-0.0013768
0.00693615
-0.000697296
0.00703019
-0.000266628
0.00705333
-4.93178e-05
0.000103929
0.00135565
-0.00398725
0.00281703
-0.00649064
0.00434636
-0.00667496
0.00545213
-0.00473107
0.00621817
-0.00321108
0.00666393
-0.00182256
0.00690153
-0.000934891
0.00700511
-0.000370213
0.00704048
-8.46846e-05
0.000117315
0.00173608
-0.00528478
0.00303351
-0.00778806
0.00441914
-0.00806059
0.00544635
-0.00575828
0.00617547
-0.0039402
0.00661225
-0.00225933
0.00685522
-0.00117786
0.00697174
-0.000486737
0.0070234
-0.000136346
0.000112569
0.00215046
-0.00670871
0.00326578
-0.00890339
0.00448953
-0.00928434
0.00542939
-0.00669814
0.00611818
-0.004629
0.00654638
-0.00268753
0.00679713
-0.00142862
0.00693014
-0.000619744
0.00700216
-0.000208364
8.53182e-05
0.00256605
-0.00820767
0.00349325
-0.00983059
0.00454663
-0.0103377
0.00539615
-0.00754767
0.00604431
-0.00527715
0.00646573
-0.00310895
0.00672724
-0.00169013
0.00688041
-0.00077292
0.00697682
-0.000304775
3.13014e-05
0.00295
-0.00968237
0.0036943
-0.0105749
0.00457937
-0.0112228
0.00534161
-0.0083099
0.00595196
-0.0058875
0.0063698
-0.00352679
0.00664556
-0.00196589
0.00682271
-0.000950075
0.0069475
-0.00042956
-5.36043e-05
0.00328521
-0.0109752
0.00385286
-0.0111425
0.00457917
-0.0119491
0.00526153
-0.00899226
0.00583958
-0.00646555
0.00625824
-0.00394544
0.00655222
-0.00225987
0.00675725
-0.0011551
0.00691431
-0.000586619
-0.000173358
0.00357876
-0.0118554
0.0039728
-0.0115366
0.00454124
-0.0125175
0.00515427
-0.00960529
0.0057058
-0.00701707
0.00613078
-0.00437043
0.00644734
-0.00257643
0.00668428
-0.00139204
0.00687732
-0.000779661
-0.00033181
0.0452647
-0.0052552
-0.0518649
0.0422493
-0.00852123
0.0405101
-0.0107783
0.0405836
-0.00967886
0.040965
-0.00739845
0.0415558
-0.0049612
0.0420459
-0.00306653
0.042392
-0.00173819
0.0426247
-0.00101229
-0.000459119
0.0522683
-0.00068948
-0.056834
0.0499851
-0.00623807
0.0468838
-0.007677
0.0445837
-0.0073788
0.0432922
-0.00610691
0.042776
-0.00444495
0.0426499
-0.00294046
0.0426768
-0.00176508
0.0427529
-0.00108843
-0.000523446
0.0529154
0.00130558
-0.0549105
0.0506905
-0.00401317
0.0481449
-0.00513133
0.0458228
-0.00505677
0.0442667
-0.00455076
0.043425
-0.00360331
0.0430385
-0.00255394
0.0428946
-0.00162114
0.042866
-0.00105984
-0.000537333
0.0509438
0.00189497
-0.0515332
0.0494383
-0.00250768
0.0476327
-0.00332572
0.0458677
-0.00329182
0.044539
-0.00322202
0.0437167
-0.00278105
0.0432686
-0.00210584
0.0430522
-0.00140466
0.04296
-0.000967667
-0.000513299
0.0489975
0.0018195
-0.048922
0.0479412
-0.00145144
0.0467303
-0.00211478
0.0455356
-0.00209714
0.0445337
-0.00222014
0.043835
-0.0020823
0.0434044
-0.00167521
0.0431646
-0.00116493
0.0430353
-0.000838307
-0.000461496
0.0474341
0.00150824
-0.0471228
0.0467612
-0.000778569
0.045958
-0.00131162
0.045177
-0.00131609
0.0444519
-0.00149501
0.0438811
-0.00151153
0.0434882
-0.00128231
0.0432455
-0.000922241
0.0430943
-0.000687065
-0.000389544
0.0463315
0.00112689
-0.0459502
0.0459246
-0.000371636
0.0453972
-0.000784247
0.0448868
-0.000805625
0.044363
-0.000971283
0.0438971
-0.00104564
0.0435414
-0.000926552
0.0433031
-0.000683915
0.043139
-0.000523018
-0.000303259
0.0455939
0.000740857
-0.0452079
0.0453765
-0.000154245
0.0450267
-0.000434364
0.0446802
-0.000459206
0.04429
-0.000581001
0.0439006
-0.000656305
0.0435747
-0.000600628
0.0433424
-0.000451604
0.0431711
-0.000351711
-0.000207237
0.0451476
0.00036533
-0.0447721
0.045047
-5.36313e-05
0.0448035
-0.000190826
0.0445493
-0.000205051
0.0442393
-0.000271002
0.0438996
-0.000316604
0.0435941
-0.000295174
0.0433669
-0.000224349
0.0431917
-0.000176558
-0.000105225
0.0449354
-0.0445701
0.0448818
0.0446909
0.0444859
0.0442149
0.0438983
0.0436031
0.0433788
0.0432022
0.0571055
0.00217444
-0.0563485
0.0577164
0.00277739
0.0581344
0.00336353
0.0583108
0.00392438
0.0581987
0.00445129
0.0577572
0.00493599
0.0569523
0.00537118
0.0557524
0.00575106
0.0541017
0.00607154
0.00630623
0.0514176
0.00157004
-0.0508132
0.0520688
0.00212617
0.0527541
0.00267819
0.0534572
0.00322129
0.0541584
0.00375011
0.0548356
0.00425879
0.0554655
0.00474131
0.0560248
0.0051917
0.0564917
0.0056047
0.00596393
0.0479841
0.00111152
-0.0475256
0.0485228
0.00158746
0.0491389
0.00206208
0.0498276
0.00253261
0.0505816
0.00299607
0.0513912
0.00344917
0.0522442
0.00388832
0.0531263
0.0043096
0.0540223
0.00470873
0.00507573
0.0453285
0.000803781
-0.0450207
0.0457148
0.00120113
0.0461803
0.00159651
0.0467252
0.00198774
0.0473487
0.00237259
0.0480491
0.00274881
0.0488233
0.00311412
0.0496667
0.00346612
0.0505734
0.00380213
0.00411588
0.0437285
0.000581846
-0.0435066
0.0440231
0.000906599
0.0443903
0.00122928
0.04483
0.00154803
0.0453416
0.00186103
0.0459239
0.00216644
0.0465756
0.00246244
0.0472945
0.00274721
0.048078
0.00301868
0.00327188
0.0426297
0.000415974
-0.0424638
0.0428643
0.000672007
0.0431675
0.000926105
0.0435387
0.00117676
0.0439773
0.00142249
0.0444819
0.0016618
0.0450511
0.00189327
0.0456828
0.00211545
0.0463748
0.00232676
0.00252385
0.0419413
0.000286037
-0.0418113
0.042137
0.000476262
0.0423982
0.000664939
0.042724
0.00085092
0.0431135
0.00103307
0.043565
0.00121027
0.0440769
0.00138141
0.0446469
0.00154541
0.0452726
0.00170109
0.00184623
0.0414944
0.00017906
-0.0413874
0.0416656
0.000305101
0.0419004
0.000430086
0.0421981
0.000553243
0.0425574
0.000673808
0.0429766
0.000791025
0.0434538
0.000904153
0.0439868
0.00101246
0.0445727
0.00111519
0.00121101
0.0412345
8.59854e-05
-0.0411414
0.0413908
0.000148821
0.0416097
0.000211141
0.0418904
0.000272555
0.0422315
0.000332677
0.0426314
0.000391125
0.0430881
0.000447524
0.043599
0.000501506
0.0441615
0.000552687
0.000600447
0.0411116
-0.0410256
0.0412604
0.0414716
0.0417441
0.0420768
0.0424679
0.0429154
0.0434169
0.0439696
0.0482654
-0.00340049
-0.0477093
0.0489827
-0.00294899
0.0498101
-0.00246658
0.0507081
-0.00195269
0.05165
-0.00140912
0.052618
-0.000843139
0.0535948
-0.000258895
0.0545596
0.000340021
0.0554877
0.000949028
0.00156261
0.048031
-0.00345449
-0.047977
0.0481279
-0.00304587
0.0482671
-0.00260581
0.0484543
-0.00213992
0.0486952
-0.00164997
0.0489938
-0.00114175
0.0493537
-0.000618832
0.0497773
-8.35098e-05
0.0502646
0.000461738
0.00101401
0.0468994
-0.00319115
-0.0471628
0.0466897
-0.00283615
0.0465396
-0.00245572
0.0464545
-0.00205477
0.0464402
-0.00163571
0.0465003
-0.00120185
0.0466371
-0.000755616
0.0468526
-0.000299004
0.0471484
0.000165903
0.000636865
0.0455403
-0.00280905
-0.0459224
0.0452149
-0.00251078
0.04495
-0.00219079
0.044749
-0.00185379
0.0446151
-0.00150182
0.0445505
-0.00113725
0.044557
-0.00076214
0.0446365
-0.00037843
0.0447905
1.18622e-05
0.000406646
0.044603
-0.00238134
-0.0450307
0.044228
-0.00213582
0.0439105
-0.00187325
0.0436535
-0.00159676
0.0434597
-0.00130805
0.0433314
-0.00100895
0.0432704
-0.00070119
0.0432785
-0.000386459
0.0433568
-6.65085e-05
0.00025687
0.043923
-0.00192582
-0.0443785
0.0435186
-0.00173144
0.0431692
-0.00152386
0.0428778
-0.00130534
0.0426469
-0.00107716
0.0424787
-0.000840734
0.0423749
-0.000597436
0.0423371
-0.000348666
0.0423665
-9.58571e-05
0.000159522
0.0434901
-0.00145525
-0.0439606
0.0430692
-0.00131056
0.0427016
-0.00115626
0.0423901
-0.000993834
0.0421371
-0.000824211
0.0419448
-0.000648413
0.0418148
-0.000467478
0.0417486
-0.000282465
0.0417472
-9.44621e-05
9.54176e-05
0.0432105
-0.000974485
-0.0436912
0.0427786
-0.000878651
0.0423988
-0.000776501
0.0420739
-0.000668951
0.0418063
-0.000556619
0.0415981
-0.000440169
0.0414509
-0.00032029
0.0413661
-0.00019769
0.0413447
-7.30977e-05
5.27399e-05
0.04305
-0.000488158
-0.0435363
0.0426119
-0.00044052
0.0422251
-0.00038975
0.0418925
-0.000336279
0.0416163
-0.000280409
0.0413985
-0.000222468
0.0412411
-0.000162796
0.0411451
-0.000101745
0.0411117
-3.9681e-05
2.30234e-05
0.0429762
-0.0434644
0.0425357
0.042146
0.0418097
0.0415293
0.0413068
0.041144
0.0410423
0.0410026
0.0429497
0.000171644
-0.000192381
0.0429987
0.000512267
-0.00056131
0.043081
0.000857985
-0.000940277
0.0432141
0.00121619
-0.00134928
0.0434281
0.00159206
-0.00180604
0.0437666
0.00198969
-0.00232822
0.0442887
0.00241102
-0.0029331
0.0450664
0.00285841
-0.00363616
0.0461954
0.00330706
-0.00443605
0.00384722
-0.00536112
0.042966
0.000134599
0.0430742
0.000404059
0.0432575
0.000674667
0.0435263
0.000947354
0.0438956
0.00122282
0.044384
0.00150122
0.0450135
0.0017815
0.0458082
0.00206374
0.0467832
0.00233208
0.00265343
0.0429665
9.70179e-05
0.0430778
0.000292773
0.0432628
0.000489706
0.0435254
0.000684687
0.0438715
0.000876751
0.0443082
0.00106451
0.0448439
0.00124578
0.045489
0.00141872
0.0462478
0.00157327
0.00173841
0.0429584
6.75456e-05
0.0430466
0.000204534
0.0431938
0.000342552
0.0434006
0.000477913
0.0436679
0.00060938
0.0439968
0.00073561
0.0443876
0.000854978
0.0448401
0.000966219
0.0453491
0.00106436
0.0011651
0.0429502
4.62872e-05
0.0430144
0.000140279
0.0431221
0.000234912
0.0432728
0.000327228
0.043466
0.000416153
0.043701
0.00050061
0.0439765
0.000579425
0.0442911
0.000651627
0.044641
0.000714464
0.000775435
0.042944
3.11874e-05
0.0429898
9.45002e-05
0.0430665
0.00015818
0.0431736
0.000220142
0.0433102
0.000279604
0.043475
0.000335816
0.0436664
0.000388024
0.0438824
0.000435616
0.0441197
0.000477165
0.000516623
0.0429398
2.03179e-05
0.0429728
6.15381e-05
0.043028
0.000102959
0.0431049
0.000143204
0.0432028
0.000181751
0.0433205
0.000218106
0.0434567
0.000251788
0.0436099
0.000282398
0.043778
0.000309141
0.000333962
0.042937
1.22086e-05
0.0429616
3.69577e-05
0.0430028
6.1807e-05
0.04306
8.59385e-05
0.0431327
0.000109039
0.04322
0.000130816
0.0433208
0.000150994
0.0434339
0.000169345
0.0435576
0.000185458
0.000200305
0.0429354
5.72701e-06
0.042955
1.73297e-05
0.0429879
2.89737e-05
0.0430335
4.02776e-05
0.0430915
5.10958e-05
0.043161