/*--------------------------------*- C++ -*----------------------------------*\
  =========                 |
  \\      /  F ield         | OpenFOAM: The Open Source CFD Toolbox
   \\    /   O peration     | Website:  https://openfoam.org
    \\  /    A nd           | Version:  6.0
     \\/     M anipulation  |
\*---------------------------------------------------------------------------*/
FoamFile
{
    version     2.0;
    format      ascii;
    class       surfaceScalarField;
    location    "9.2";
    object      phi;
}
// * * * * * * * * * * * * * * * * * * * * * * * * * * * * * * * * * * * * * //

dimensions      [0 3 -1 0 0 0 0];

internalField   nonuniform List<scalar> 
68636
(
3.02288e-05
0.00310561
2.56542e-09
6.08426e-05
0.00307073
9.10914e-05
0.0030025
0.00012048
0.00290142
0.000148623
0.00276853
0.000175172
0.00260529
0.000199816
0.00241351
0.000222268
0.00219532
0.000242271
0.00195311
0.000259598
0.00168956
0.000274053
0.00140755
0.000285472
0.00111015
0.000293736
0.000800657
0.000298721
0.000482219
0.000156744
0.000299678
2.99492e-05
0.00307565
8.47608e-09
6.02855e-05
0.0030404
9.02596e-05
0.00297253
0.000119381
0.00287231
0.000147268
0.00274065
0.000173575
0.00257899
0.000197994
0.0023891
0.00022024
0.00217308
0.000240061
0.0019333
0.000257229
0.0016724
0.000271553
0.00139324
0.000282867
0.00109884
0.000291071
0.000792463
0.000295928
0.000477376
0.000155735
0.000296961
2.96718e-05
0.00304596
1.42747e-08
5.97329e-05
0.00301034
8.94352e-05
0.00294283
0.000118293
0.00284345
0.000145926
0.00271302
0.000171994
0.00255292
0.000196191
0.0023649
0.000218234
0.00215103
0.000237874
0.00191366
0.000254886
0.00165539
0.000269079
0.00137904
0.000280288
0.00108763
0.000288418
0.000784329
0.000293275
0.000472513
0.000154505
0.000294488
2.9397e-05
0.00301655
1.98876e-08
5.91856e-05
0.00298055
8.86184e-05
0.0029134
0.000117214
0.00281485
0.000144597
0.00268564
0.000170428
0.00252709
0.000194404
0.00234093
0.000216246
0.00212919
0.000235707
0.0018942
0.000252563
0.00163853
0.000266626
0.00136499
0.000277732
0.00107653
0.000285781
0.000776285
0.000290624
0.000467678
0.000153199
0.000291942
2.9125e-05
0.0029874
2.51959e-08
5.86433e-05
0.00295103
8.78092e-05
0.00288423
0.000116145
0.00278652
0.00014328
0.0026585
0.000168876
0.0025015
0.000192633
0.00231717
0.000214276
0.00210755
0.000233558
0.00187492
0.00025026
0.00162183
0.000264195
0.00135105
0.000275198
0.00106552
0.000283166
0.000768314
0.000287974
0.000462864
0.000151792
0.000289363
2.88554e-05
0.00295851
3.0164e-08
5.8106e-05
0.00292178
8.70072e-05
0.00285533
0.000115086
0.00275844
0.000141974
0.00263162
0.000167337
0.00247614
0.000190877
0.00229363
0.000212323
0.0020861
0.000231429
0.00185582
0.000247979
0.00160528
0.000261786
0.00133724
0.000272689
0.00105462
0.000280577
0.000760429
0.000285343
0.000458103
0.000150361
0.000286782
2.85884e-05
0.00292989
3.48499e-08
5.75735e-05
0.00289279
8.62123e-05
0.00282669
0.000114036
0.00273061
0.00014068
0.00260497
0.000165812
0.002451
0.000189138
0.00227031
0.000210388
0.00206485
0.00022932
0.00183688
0.000245718
0.00158888
0.0002594
0.00132356
0.000270204
0.00104382
0.000278014
0.000752615
0.000282736
0.000453374
0.00014888
0.000284202
2.83239e-05
0.00290152
3.92114e-08
5.70458e-05
0.00286407
8.54246e-05
0.00279831
0.000112996
0.00270304
0.000139397
0.00257857
0.0001643
0.0024261
0.000187414
0.00224719
0.00020847
0.0020438
0.00022723
0.00181812
0.000243479
0.00157263
0.000257035
0.00131
0.000267741
0.00103311
0.000275477
0.000744882
0.000280154
0.0004487
0.00014741
0.00028163
2.80619e-05
0.00287342
4.32802e-08
5.6523e-05
0.00283561
8.46441e-05
0.00277019
0.000111965
0.00267572
0.000138126
0.00255241
0.000162802
0.00240142
0.000185706
0.00222429
0.00020657
0.00202293
0.000225158
0.00179953
0.000241259
0.00155653
0.000254692
0.00129657
0.000265301
0.0010225
0.000272965
0.000737215
0.000277598
0.000444062
0.000145919
0.000279075
2.78024e-05
0.00284557
4.70941e-08
5.60049e-05
0.00280741
8.38705e-05
0.00274233
0.000110943
0.00264865
0.000136866
0.00252649
0.000161318
0.00237697
0.000184013
0.0022016
0.000204687
0.00200226
0.000223106
0.00178112
0.00023906
0.00154058
0.00025237
0.00128326
0.000262884
0.00101199
0.000270476
0.000729624
0.000275067
0.000439474
0.000144447
0.000276543
2.75454e-05
0.00281797
5.06611e-08
5.54915e-05
0.00277946
8.31039e-05
0.00271472
0.00010993
0.00262182
0.000135617
0.0025008
0.000159847
0.00235274
0.000182335
0.00217911
0.000202821
0.00198177
0.000221072
0.00176286
0.000236881
0.00152477
0.00025007
0.00127007
0.000260488
0.00100157
0.000268012
0.000722098
0.00027256
0.000434921
0.00014296
0.000274035
2.72907e-05
0.00279063
5.40296e-08
5.49828e-05
0.00275177
8.23441e-05
0.00268735
0.000108926
0.00259524
0.00013438
0.00247535
0.000158389
0.00232873
0.000180672
0.00215683
0.000200972
0.00196147
0.000219057
0.00174478
0.000234721
0.0015091
0.00024779
0.001257
0.000258114
0.000991245
0.00026557
0.000714644
0.000270078
0.000430415
0.000141491
0.000271551
2.70384e-05
0.00276353
5.72576e-08
5.44787e-05
0.00272433
8.15912e-05
0.00266024
0.000107932
0.0025689
0.000133153
0.00245013
0.000156944
0.00230494
0.000179024
0.00213474
0.000199139
0.00194135
0.00021706
0.00172686
0.000232582
0.00149358
0.000245531
0.00124405
0.000255761
0.000981013
0.00026315
0.000707253
0.000267619
0.000425941
0.000140009
0.00026909
2.67884e-05
0.00273669
6.0403e-08
5.39791e-05
0.00269714
8.0845e-05
0.00263338
0.000106946
0.0025428
0.000131938
0.00242514
0.000155512
0.00228136
0.000177392
0.00211287
0.000197323
0.00192142
0.000215081
0.0017091
0.000230462
0.0014782
0.000243293
0.00123122
0.000253431
0.000970878
0.000260752
0.000699932
0.000265183
0.000421513
0.000138545
0.000266651
2.65407e-05
0.00271008
6.35356e-08
5.3484e-05
0.0026702
8.01055e-05
0.00260675
0.000105969
0.00251693
0.000130734
0.00240037
0.000154093
0.002258
0.000175774
0.00209118
0.000195524
0.00190167
0.00021312
0.0016915
0.000228361
0.00146296
0.000241076
0.0012185
0.000251121
0.000960831
0.000258377
0.000692674
0.000262768
0.000417118
0.000137072
0.000264232
2.62952e-05
0.00268372
6.67215e-08
5.29934e-05
0.0026435
7.93726e-05
0.00258038
0.000105001
0.00249131
0.00012954
0.00237583
0.000152687
0.00223486
0.00017417
0.0020697
0.000193741
0.0018821
0.000211177
0.00167407
0.00022628
0.00144786
0.000238879
0.00120591
0.000248833
0.000950878
0.000256023
0.000685485
0.000260376
0.000412767
0.00013562
0.000261832
2.6052e-05
0.0026576
7.00096e-08
5.25071e-05
0.00261704
7.86462e-05
0.00255424
0.000104041
0.00246591
0.000128357
0.00235152
0.000151294
0.00221192
0.000172582
0.00204841
0.000191975
0.00186271
0.000209252
0.00165679
0.000224217
0.00143289
0.000236702
0.00119342
0.000246565
0.000941013
0.000253691
0.000678358
0.000258005
0.00040845
0.000134165
0.000259452
2.58109e-05
0.00263171
7.34365e-08
5.20252e-05
0.00259083
7.79264e-05
0.00252834
0.00010309
0.00244075
0.000127185
0.00232742
0.000149913
0.00218919
0.000171007
0.00202732
0.000190224
0.00184349
0.000207344
0.00163967
0.000222174
0.00141806
0.000234545
0.00118105
0.000244319
0.00093124
0.00025138
0.000671298
0.000255656
0.000404176
0.000132733
0.000257092
2.5572e-05
0.00260606
7.70202e-08
5.15477e-05
0.00256485
7.72131e-05
0.00250267
0.000102148
0.00241581
0.000126023
0.00230355
0.000148545
0.00216667
0.000169447
0.00200642
0.000188489
0.00182445
0.000205454
0.00162271
0.000220149
0.00140337
0.000232408
0.00116879
0.000242093
0.000921554
0.000249091
0.000664298
0.000253329
0.000399936
0.0001313
0.000254753
2.53353e-05
0.00258065
8.07533e-08
5.10744e-05
0.00253911
7.65062e-05
0.00247724
0.000101214
0.0023911
0.000124872
0.00227989
0.000147189
0.00214436
0.000167901
0.0019857
0.000186771
0.00180558
0.000203581
0.0016059
0.000218143
0.0013888
0.00023029
0.00115664
0.000239887
0.000911957
0.000246822
0.000657364
0.000251022
0.000395738
0.000129891
0.000252436
2.51006e-05
0.00255546
8.46152e-08
5.06054e-05
0.00251361
7.58056e-05
0.00245204
0.000100289
0.00236662
0.000123732
0.00225644
0.000145845
0.00212224
0.00016637
0.00196518
0.000185067
0.00178688
0.000201725
0.00158924
0.000216154
0.00137438
0.000228192
0.00114461
0.000237702
0.000902446
0.000244575
0.000650489
0.000248737
0.000391573
0.000128481
0.00025014
2.4868e-05
0.00253051
8.85644e-08
5.01406e-05
0.00248834
7.51114e-05
0.00242707
9.93714e-05
0.00234236
0.000122601
0.00223322
0.000144514
0.00210033
0.000164852
0.00194484
0.00018338
0.00176835
0.000199886
0.00157273
0.000214184
0.00136008
0.000226112
0.00113268
0.000235536
0.000893023
0.000242347
0.00064368
0.000246473
0.000387449
0.000127092
0.000247866
2.46375e-05
0.00250578
9.25498e-08
4.96799e-05
0.00246329
7.44233e-05
0.00240232
9.84626e-05
0.00231832
0.000121481
0.0022102
0.000143195
0.00207862
0.000163348
0.00192469
0.000181707
0.00174999
0.000198064
0.00155637
0.000212232
0.00134591
0.000224052
0.00112086
0.000233391
0.000883683
0.00024014
0.000636928
0.00024423
0.000383357
0.000125702
0.000245612
2.4409e-05
0.00248127
9.65128e-08
4.92234e-05
0.00243848
7.37415e-05
0.00237781
9.75621e-05
0.0022945
0.000120371
0.00218739
0.000141887
0.0020571
0.000161857
0.00190472
0.00018005
0.0017318
0.000196258
0.00154017
0.000210298
0.00133187
0.00022201
0.00110915
0.000231264
0.00087443
0.000237954
0.000630241
0.000242007
0.000379306
0.000124334
0.000243379
2.41826e-05
0.00245699
1.00396e-07
4.8771e-05
0.00241389
7.30659e-05
0.00235351
9.66696e-05
0.0022709
0.000119271
0.00216479
0.000140592
0.00203578
0.00016038
0.00188493
0.000178408
0.00171377
0.000194469
0.0015241
0.000208381
0.00131796
0.000219987
0.00109754
0.000229158
0.000865259
0.000235787
0.00062361
0.000239804
0.000375286
0.000122967
0.000241165
2.39581e-05
0.00243293
1.04146e-07
4.83227e-05
0.00238953
7.23963e-05
0.00232944
9.57853e-05
0.00224751
0.000118181
0.00214239
0.000139308
0.00201465
0.000158917
0.00186532
0.000176781
0.00169591
0.000192696
0.00150819
0.000206482
0.00130417
0.000217983
0.00108604
0.00022707
0.000856172
0.00023364
0.000617042
0.000237621
0.000371307
0.00012162
0.000238971
2.37357e-05
0.00240908
1.07722e-07
4.78784e-05
0.00236538
7.17328e-05
0.00230558
9.49089e-05
0.00222433
0.000117101
0.0021202
0.000138036
0.00199372
0.000157467
0.00184589
0.000175168
0.00167821
0.000190939
0.00149242
0.0002046
0.00129051
0.000215997
0.00107464
0.000225002
0.000847167
0.000231512
0.000610531
0.000235458
0.000367358
0.000120276
0.000236797
2.35153e-05
0.00238546
1.11096e-07
4.74381e-05
0.00234146
7.10754e-05
0.00228195
9.40405e-05
0.00220137
0.000116031
0.00209821
0.000136775
0.00197297
0.000156029
0.00182664
0.00017357
0.00166067
0.000189198
0.00147679
0.000202735
0.00127697
0.000214029
0.00106335
0.000222952
0.000838244
0.000229404
0.00060408
0.000233315
0.000363449
0.000118952
0.000234642
2.32968e-05
0.00236204
1.14261e-07
4.70018e-05
0.00231776
7.04238e-05
0.00225852
9.318e-05
0.00217861
0.000114971
0.00207642
0.000135526
0.00195242
0.000154606
0.00180756
0.000171987
0.00164328
0.000187473
0.0014613
0.000200887
0.00126356
0.000212078
0.00105216
0.000220921
0.0008294
0.000227315
0.000597685
0.000231191
0.000359571
0.000117631
0.000232508
2.30804e-05
0.00233885
1.17222e-07
4.65695e-05
0.00229427
6.97782e-05
0.00223532
9.23273e-05
0.00215606
0.00011392
0.00205482
0.000134289
0.00193205
0.000153194
0.00178865
0.000170418
0.00162606
0.000185764
0.00144596
0.000199056
0.00125027
0.000210146
0.00104107
0.000218909
0.000820638
0.000225246
0.00059135
0.000229087
0.000355731
0.000116329
0.000230392
2.28659e-05
0.00231586
1.20007e-07
4.6141e-05
0.00227099
6.91384e-05
0.00221232
9.14823e-05
0.00213372
0.000112878
0.00203343
0.000133062
0.00191187
0.000151796
0.00176992
0.000168864
0.00160899
0.00018407
0.00143075
0.000197242
0.00123709
0.000208231
0.00103008
0.000216915
0.000811954
0.000223195
0.000585069
0.000227002
0.000351922
0.00011503
0.000228297
2.26534e-05
0.00229308
1.22653e-07
4.57165e-05
0.00224793
6.85045e-05
0.00218953
9.0645e-05
0.00211158
0.000111846
0.00201223
0.000131847
0.00189187
0.000150411
0.00175136
0.000167323
0.00159208
0.000182391
0.00141569
0.000195444
0.00122404
0.000206334
0.00101919
0.000214939
0.000803349
0.000221163
0.000578847
0.000224936
0.00034815
0.000113749
0.00022622
2.24428e-05
0.00227052
1.25208e-07
4.52958e-05
0.00222508
6.78763e-05
0.00216695
8.98153e-05
0.00208964
0.000110824
0.00199122
0.000130642
0.00187205
0.000149038
0.00173296
0.000165797
0.00157532
0.000180728
0.00140075
0.000193662
0.00121111
0.000204454
0.0010084
0.000212982
0.000794821
0.000219149
0.000572678
0.000222889
0.000344408
0.000112472
0.000224162
2.22341e-05
0.00224815
1.27721e-07
4.48789e-05
0.00220243
6.72538e-05
0.00214457
8.89931e-05
0.0020679
0.000109811
0.0019704
0.000129449
0.00185241
0.000147677
0.00171473
0.000164284
0.00155871
0.00017908
0.00138596
0.000191897
0.00119829
0.000202591
0.000997703
0.000211042
0.000786371
0.000217154
0.000566567
0.000220861
0.000340702
0.000111213
0.000222123
2.20274e-05
0.002226
1.30241e-07
4.44659e-05
0.00217999
6.66369e-05
0.0021224
8.81785e-05
0.00204636
0.000108807
0.00194977
0.000128267
0.00183295
0.000146329
0.00169667
0.000162785
0.00154226
0.000177447
0.0013713
0.000190148
0.00118559
0.000200745
0.000987105
0.00020912
0.000777996
0.000215177
0.000560509
0.000218851
0.000337027
0.000109957
0.000220102
2.18225e-05
0.00220404
1.32805e-07
4.40566e-05
0.00215776
6.60257e-05
0.00210043
8.73712e-05
0.00202501
0.000107812
0.00192933
0.000127095
0.00181367
0.000144993
0.00167877
0.0001613
0.00152595
0.000175829
0.00135677
0.000188415
0.001173
0.000198916
0.000976604
0.000207215
0.000769698
0.000213218
0.000554507
0.000216859
0.000333386
0.00010872
0.0002181
2.16196e-05
0.00218229
1.35445e-07
4.3651e-05
0.00213573
6.54201e-05
0.00207866
8.65712e-05
0.00200386
0.000106826
0.00190908
0.000125934
0.00179456
0.000143669
0.00166104
0.000159828
0.00150979
0.000174225
0.00134237
0.000186697
0.00116053
0.000197104
0.000966198
0.000205328
0.000761473
0.000211277
0.000548557
0.000214886
0.000329776
0.000107486
0.000216116
2.14185e-05
0.00216073
1.38172e-07
4.32492e-05
0.0021139
6.48199e-05
0.00205709
8.57786e-05
0.0019829
0.000105849
0.00188901
0.000124783
0.00177562
0.000142358
0.00164346
0.00015837
0.00149378
0.000172636
0.00132811
0.000184996
0.00114817
0.000195308
0.000955886
0.000203458
0.000753324
0.000209354
0.000542663
0.00021293
0.0003262
0.000106269
0.00021415
2.12193e-05
0.00213937
1.40991e-07
4.2851e-05
0.00209226
6.42253e-05
0.00203572
8.49931e-05
0.00196213
0.000104881
0.00186912
0.000123643
0.00175686
0.000141058
0.00162605
0.000156925
0.00147791
0.000171062
0.00131397
0.000183309
0.00113593
0.000193528
0.000945666
0.000201605
0.000745247
0.000207448
0.000536819
0.000210993
0.000322654
0.000105057
0.000212202
2.10219e-05
0.0021182
1.43889e-07
4.24565e-05
0.00207083
6.3636e-05
0.00201454
8.42148e-05
0.00194156
0.000103922
0.00184941
0.000122513
0.00173827
0.00013977
0.00160879
0.000155493
0.00146219
0.000169502
0.00129996
0.000181639
0.00112379
0.000191765
0.00093554
0.000199769
0.000737244
0.00020556
0.000531029
0.000209073
0.000319142
0.000103861
0.000210272
2.08263e-05
0.00209723
1.46847e-07
4.20656e-05
0.00204959
6.30522e-05
0.00199355
8.34436e-05
0.00192116
0.000102971
0.00182988
0.000121394
0.00171985
0.000138494
0.00159169
0.000154074
0.00144661
0.000167956
0.00128608
0.000179983
0.00111176
0.000190018
0.000925504
0.00019795
0.000729312
0.000203689
0.00052529
0.000207171
0.000315658
0.00010267
0.000208359
2.06326e-05
0.00207645
1.49837e-07
4.16782e-05
0.00202855
6.24736e-05
0.00197276
8.26794e-05
0.00190096
0.000102029
0.00181053
0.000120284
0.00170159
0.000137229
0.00157474
0.000152668
0.00143117
0.000166425
0.00127232
0.000178343
0.00109985
0.000188287
0.00091556
0.000196148
0.000721453
0.000201835
0.000519604
0.000205286
0.000312208
0.000101494
0.000206464
2.04406e-05
0.00205585
1.52829e-07
4.12944e-05
0.00200769
6.19004e-05
0.00195215
8.19222e-05
0.00188094
0.000101096
0.00179136
0.000119185
0.0016835
0.000135976
0.00155795
0.000151275
0.00141587
0.000164907
0.00125869
0.000176717
0.00108803
0.000186572
0.000905705
0.000194362
0.000713663
0.000199998
0.000513967
0.000203418
0.000308786
0.000100324
0.000204587
2.02504e-05
0.00203545
1.5579e-07
4.09142e-05
0.00198703
6.13323e-05
0.00193173
8.11719e-05
0.0018611
0.000100171
0.00177236
0.000118096
0.00166558
0.000134735
0.00154131
0.000149895
0.00140071
0.000163403
0.00124518
0.000175107
0.00107633
0.000184873
0.000895939
0.000192592
0.000705944
0.000198178
0.000508382
0.000201568
0.000305397
9.91678e-05
0.000202726
2.00619e-05
0.00201523
1.5869e-07
4.05374e-05
0.00196655
6.07695e-05
0.0019115
8.04284e-05
0.00184144
9.9255e-05
0.00175353
0.000117017
0.00164782
0.000133505
0.00152483
0.000148527
0.00138569
0.000161913
0.00123179
0.000173511
0.00106473
0.000183189
0.000886261
0.000190839
0.000698294
0.000196374
0.000502846
0.000199734
0.000302036
9.80179e-05
0.000200882
1.98752e-05
0.00199519
1.61501e-07
4.0164e-05
0.00194626
6.02118e-05
0.00189145
7.96917e-05
0.00182196
9.8347e-05
0.00173488
0.000115948
0.00163022
0.000132286
0.00150849
0.000147172
0.0013708
0.000160437
0.00121853
0.00017193
0.00105324
0.00018152
0.000876671
0.000189101
0.000690714
0.000194587
0.000497361
0.000197918
0.000298706
9.68819e-05
0.000199056
1.96901e-05
0.00197534
1.642e-07
3.97941e-05
0.00192616
5.96592e-05
0.00187159
7.89617e-05
0.00180266
9.74474e-05
0.00171639
0.000114888
0.00161278
0.000131078
0.0014923
0.000145829
0.00135605
0.000158974
0.00120538
0.000170363
0.00104185
0.000179867
0.000867167
0.00018738
0.000683201
0.000192817
0.000491924
0.000196118
0.000295405
9.57522e-05
0.000197246
1.95068e-05
0.00195566
1.66773e-07
3.94275e-05
0.00190624
5.91116e-05
0.0018519
7.82384e-05
0.00178353
9.65559e-05
0.00169808
0.000113838
0.0015955
0.000129881
0.00147625
0.000144499
0.00134143
0.000157525
0.00119236
0.000168811
0.00103057
0.000178229
0.000857748
0.000185674
0.000675756
0.000191063
0.000486536
0.000194334
0.000292134
9.46357e-05
0.000195452
1.93252e-05
0.00193617
1.69209e-07
3.90643e-05
0.0018865
5.8569e-05
0.0018324
7.75217e-05
0.00176458
9.56726e-05
0.00167993
0.000112798
0.00157837
0.000128695
0.00146036
0.000143181
0.00132695
0.000156089
0.00117945
0.000167273
0.00101938
0.000176606
0.000848415
0.000183984
0.000668378
0.000189324
0.000481196
0.000192567
0.000288891
9.35258e-05
0.000193675
1.91452e-05
0.00191685
1.7151e-07
3.87044e-05
0.00186694
5.80314e-05
0.00181307
7.68116e-05
0.0017458
9.47974e-05
0.00166194
0.000111767
0.0015614
0.00012752
0.0014446
0.000141874
0.00131259
0.000154666
0.00116666
0.000165748
0.0010083
0.000174998
0.000839166
0.00018231
0.000661066
0.000187602
0.000475904
0.000190816
0.000285678
9.24283e-05
0.000191915
1.89669e-05
0.00189771
1.73686e-07
3.83478e-05
0.00184756
5.74987e-05
0.00179392
7.61079e-05
0.00172719
9.39301e-05
0.00164412
0.000110746
0.00154459
0.000126356
0.00142899
0.00014058
0.00129837
0.000153256
0.00115398
0.000164238
0.000997319
0.000173404
0.00083
0.000180651
0.00065382
0.000185896
0.000470659
0.000189081
0.000282493
9.13377e-05
0.00019017
1.87902e-05
0.00187875
1.75754e-07
3.79944e-05
0.00182836
5.69709e-05
0.00177495
7.54106e-05
0.00170875
9.30708e-05
0.00162646
0.000109734
0.00152792
0.000125202
0.00141353
0.000139298
0.00128427
0.000151858
0.00114142
0.000162742
0.000986435
0.000171826
0.000820916
0.000179007
0.000646639
0.000184205
0.000465461
0.000187361
0.000279337
9.02588e-05
0.000188442
1.86151e-05
0.00185995
1.7774e-07
3.76443e-05
0.00180933
5.64478e-05
0.00175614
7.47198e-05
0.00169048
9.22194e-05
0.00160896
0.000108731
0.00151141
0.000124059
0.0013982
0.000138027
0.0012703
0.000150474
0.00112898
0.00016126
0.00097565
0.000170261
0.000811915
0.000177378
0.000639523
0.000182529
0.00046031
0.000185658
0.000276208
8.91872e-05
0.000186729
1.84417e-05
0.00184133
1.79675e-07
3.72974e-05
0.00179047
5.59296e-05
0.00173751
7.40352e-05
0.00167237
9.13757e-05
0.00159162
0.000107737
0.00149505
0.000122926
0.00138301
0.000136768
0.00125646
0.000149103
0.00111664
0.000159791
0.000964962
0.000168711
0.000802994
0.000175764
0.000632471
0.00018087
0.000455205
0.00018397
0.000273107
8.81267e-05
0.000185032
1.82698e-05
0.00182288
1.81592e-07
3.69536e-05
0.00177179
5.54161e-05
0.00171905
7.33569e-05
0.00165443
9.05398e-05
0.00157443
0.000106753
0.00147884
0.000121804
0.00136796
0.00013552
0.00124275
0.000147744
0.00110442
0.000158335
0.00095437
0.000167176
0.000794154
0.000174165
0.000625481
0.000179225
0.000450145
0.000182298
0.000270034
8.70737e-05
0.000183351
1.80994e-05
0.0018046
1.83521e-07
3.6613e-05
0.00175327
5.49073e-05
0.00170075
7.26848e-05
0.00163665
8.97115e-05
0.00155741
0.000105777
0.00146277
0.000120692
0.00135304
0.000134284
0.00122916
0.000146397
0.00109231
0.000156893
0.000943874
0.000165654
0.000785394
0.000172581
0.000618555
0.000177595
0.000445131
0.000180641
0.000266988
8.60312e-05
0.000181685
1.79307e-05
0.00178648
1.85491e-07
3.62755e-05
0.00173493
5.44031e-05
0.00168262
7.20189e-05
0.00161904
8.88908e-05
0.00154054
0.000104811
0.00144685
0.000119591
0.00133826
0.000133059
0.00121569
0.000145063
0.0010803
0.000155464
0.000933473
0.000164146
0.000776712
0.000171011
0.000611691
0.000175981
0.000440161
0.000179
0.000263969
8.49966e-05
0.000180034
1.77635e-05
0.00176853
1.8752e-07
3.5941e-05
0.00171675
5.39036e-05
0.00166466
7.13591e-05
0.00160158
8.80776e-05
0.00152382
0.000103853
0.00143108
0.000118499
0.00132361
0.000131846
0.00120234
0.000143741
0.00106841
0.000154049
0.000923166
0.000162652
0.000768108
0.000169455
0.000604888
0.000174381
0.000435236
0.000177373
0.000260977
8.39719e-05
0.000178399
1.75978e-05
0.00175074
1.89621e-07
3.56097e-05
0.00169874
5.34086e-05
0.00164686
7.07053e-05
0.00158428
8.72719e-05
0.00150725
0.000102904
0.00141544
0.000117417
0.0013091
0.000130644
0.00118911
0.000142431
0.00105662
0.000152646
0.000912951
0.000161172
0.000759582
0.000167914
0.000598146
0.000172796
0.000430355
0.000175761
0.000258011
8.29553e-05
0.000176778
1.74336e-05
0.00173312
1.91794e-07
3.52813e-05
0.00168089
5.29182e-05
0.00162923
7.00575e-05
0.00156714
8.64735e-05
0.00149083
0.000101964
0.00139995
0.000116346
0.00129472
0.000129452
0.00117601
0.000141133
0.00104494
0.000151256
0.000902828
0.000159706
0.000751132
0.000166387
0.000591465
0.000171225
0.000425518
0.000174164
0.000255072
8.19479e-05
0.000175173
1.72709e-05
0.00171565
1.94033e-07
3.4956e-05
0.00166321
5.24323e-05
0.00161175
6.94156e-05
0.00155016
8.56825e-05
0.00147457
0.000101032
0.0013846
0.000115284
0.00128047
0.000128272
0.00116302
0.000139848
0.00103336
0.000149879
0.000892797
0.000158253
0.000742759
0.000164874
0.000584844
0.000169669
0.000420723
0.000172582
0.000252158
8.0949e-05
0.000173582
1.71097e-05
0.00169835
1.96322e-07
3.46337e-05
0.00164568
5.19508e-05
0.00159443
6.87796e-05
0.00153333
8.48987e-05
0.00145845
0.000100109
0.00136939
0.000114232
0.00126635
0.000127102
0.00115015
0.000138573
0.00102189
0.000148515
0.000882856
0.000156813
0.00073446
0.000163375
0.000578282
0.000168127
0.000415972
0.000171015
0.000249271
7.99587e-05
0.000172006
1.695e-05
0.0016812
1.98644e-07
3.43143e-05
0.00162832
5.14737e-05
0.00157727
6.81495e-05
0.00151666
8.41222e-05
0.00144248
9.91947e-05
0.00135432
0.000113189
0.00125235
0.000125944
0.00113739
0.000137311
0.00101052
0.000147163
0.000873005
0.000155387
0.000726237
0.00016189
0.000571779
0.0001666
0.000411263
0.000169462
0.000246409
7.89769e-05
0.000170444
1.67918e-05
0.0016642
2.00974e-07
3.39979e-05
0.00161111
5.1001e-05
0.00156027
6.75251e-05
0.00150013
8.33527e-05
0.00142665
9.82886e-05
0.00133939
0.000112156
0.00123848
0.000124795
0.00112476
0.00013606
0.00099926
0.000145823
0.000863242
0.000153973
0.000718087
0.000160419
0.000565334
0.000165086
0.000406596
0.000167923
0.000243572
7.80033e-05
0.000168897
1.6635e-05
0.00164737
2.03291e-07
3.36843e-05
0.00159406
5.05327e-05
0.00154342
6.69065e-05
0.00148376
8.25903e-05
0.00141096
9.73908e-05
0.00132459
0.000111133
0.00122474
0.000123658
0.00111223
0.000134821
0.000988097
0.000144496
0.000853567
0.000152573
0.00071001
0.000158961
0.000558947
0.000163587
0.00040197
0.000166398
0.00024076
7.70385e-05
0.000167364
1.64797e-05
0.00163068
2.0557e-07
3.33737e-05
0.00157717
5.00686e-05
0.00152673
6.62935e-05
0.00146753
8.1835e-05
0.00139542
9.65012e-05
0.00130992
0.000110119
0.00121112
0.000122531
0.00109982
0.000133593
0.000977034
0.000143181
0.000843979
0.000151186
0.000702006
0.000157516
0.000552617
0.000162101
0.000397386
0.000164888
0.000237974
7.60811e-05
0.000165845
1.63257e-05
0.00161415
2.07791e-07
3.30659e-05
0.00156043
4.96088e-05
0.00151018
6.56862e-05
0.00145146
8.10865e-05
0.00138002
9.56198e-05
0.00129539
0.000109114
0.00119763
0.000121414
0.00108752
0.000132377
0.000966071
0.000141879
0.000834478
0.000149811
0.000694074
0.000156085
0.000546343
0.000160629
0.000392842
0.000163391
0.000235211
7.51328e-05
0.00016434
1.61733e-05
0.00159776
2.09935e-07
3.27609e-05
0.00154384
4.91533e-05
0.00149379
6.50845e-05
0.00143553
8.0345e-05
0.00136476
9.47465e-05
0.00128099
0.000108119
0.00118426
0.000120307
0.00107533
0.000131172
0.000955207
0.000140588
0.000825062
0.000148449
0.000686212
0.000154667
0.000540126
0.00015917
0.000388339
0.000161908
0.000232473
7.41914e-05
0.00016285
1.60222e-05
0.00158153
2.1199e-07
3.24588e-05
0.0015274
4.87019e-05
0.00147755
6.44883e-05
0.00141974
7.96102e-05
0.00134964
9.38813e-05
0.00126671
0.000107133
0.001171
0.000119211
0.00106325
0.000129978
0.000944441
0.000139309
0.000815731
0.0001471
0.000678422
0.000153262
0.000533965
0.000157725
0.000383876
0.000160439
0.00022976
7.32593e-05
0.000161373
1.58725e-05
0.00156544
2.13945e-07
3.21594e-05
0.00151112
4.82547e-05
0.00146145
6.38976e-05
0.0014041
7.88823e-05
0.00133466
9.3024e-05
0.00125257
0.000106156
0.00115787
0.000118125
0.00105128
0.000128794
0.000933771
0.000138042
0.000806483
0.000145763
0.000670701
0.00015187
0.000527858
0.000156294
0.000379453
0.000158984
0.00022707
7.23336e-05
0.000159909
1.57242e-05
0.0015495
2.15799e-07
3.18627e-05
0.00149498
4.78116e-05
0.0014455
6.33123e-05
0.0013886
7.8161e-05
0.00131981
9.21746e-05
0.00123856
0.000105188
0.00114486
0.000117049
0.00103942
0.000127622
0.000923198
0.000136787
0.000797319
0.000144439
0.000663049
0.000150491
0.000521806
0.000154875
0.000375069
0.000157542
0.000224404
7.14172e-05
0.000158459
1.55773e-05
0.00153371
2.17555e-07
3.15689e-05
0.00147899
4.73726e-05
0.0014297
6.27324e-05
0.00137324
7.74464e-05
0.00130509
9.13331e-05
0.00122467
0.000104228
0.00113196
0.000115983
0.00102767
0.000126461
0.00091272
0.000135543
0.000788237
0.000143126
0.000655466
0.000149125
0.000515808
0.00015347
0.000370724
0.000156113
0.000221761
7.05068e-05
0.000157023
1.54317e-05
0.00151806
2.19224e-07
3.12777e-05
0.00146314
4.69376e-05
0.00141404
6.21578e-05
0.00135802
7.67383e-05
0.00129051
9.04993e-05
0.00121091
0.000103278
0.00111919
0.000114926
0.00101602
0.00012531
0.000902337
0.000134311
0.000779236
0.000141826
0.000647951
0.000147771
0.000509864
0.000152078
0.000366417
0.000154697
0.000219142
6.9606e-05
0.0001556
1.52875e-05
0.00150255
2.20823e-07
3.09892e-05
0.00144744
4.65066e-05
0.00139852
6.15886e-05
0.00134293
7.60368e-05
0.00127606
8.96731e-05
0.00119728
0.000102336
0.00110652
0.00011388
0.00100448
0.00012417
0.000892046
0.00013309
0.000770316
0.000140538
0.000640503
0.00014643
0.000503972
0.000150698
0.000362149
0.000153295
0.000216545
6.87107e-05
0.00015419
1.51446e-05
0.00148718
2.22374e-07
3.07033e-05
0.00143188
4.60796e-05
0.00138315
6.10245e-05
0.00132799
7.53417e-05
0.00126175
8.88546e-05
0.00118376
0.000101404
0.00109397
0.000112843
0.000993038
0.00012304
0.000881849
0.00013188
0.000761477
0.000139262
0.000633122
0.000145101
0.000498133
0.000149332
0.000357919
0.000151905
0.000213972
6.7825e-05
0.000152793
1.5003e-05
0.00147195
2.23901e-07
3.04201e-05
0.00141646
4.56565e-05
0.00136791
6.04657e-05
0.00131318
7.46531e-05
0.00124756
8.80437e-05
0.00117037
0.000100479
0.00108154
0.000111815
0.000981702
0.000121921
0.000871743
0.000130682
0.000752717
0.000137997
0.000625807
0.000143784
0.000492346
0.000147978
0.000353726
0.000150529
0.00021142
6.69444e-05
0.000151409
1.48627e-05
0.00145687
2.2543e-07
3.01395e-05
0.00140119
4.52373e-05
0.00135281
5.9912e-05
0.0012985
7.39708e-05
0.0012335
8.72402e-05
0.0011571
9.95635e-05
0.00106921
0.000110797
0.000970468
0.000120813
0.000861728
0.000129495
0.000744035
0.000136745
0.000618558
0.00014248
0.000486611
0.000146636
0.000349571
0.000149165
0.000208892
6.60737e-05
0.000150038
1.47238e-05
0.00144192
2.26982e-07
2.98615e-05
0.00138605
4.4822e-05
0.00133785
5.93635e-05
0.00128396
7.32948e-05
0.00121957
8.64442e-05
0.00114395
9.86562e-05
0.001057
0.000109789
0.000959335
0.000119714
0.000851803
0.000128318
0.000735431
0.000135504
0.000611373
0.000141188
0.000480927
0.000145307
0.000345451
0.000147814
0.000206385
6.52075e-05
0.00014868
1.45861e-05
0.0014271
2.28577e-07
2.9586e-05
0.00137105
4.44105e-05
0.00132303
5.88199e-05
0.00126955
7.2625e-05
0.00120576
8.56555e-05
0.00113092
9.77573e-05
0.0010449
0.00010879
0.000948303
0.000118626
0.000841967
0.000127153
0.000726904
0.000134274
0.000604252
0.000139908
0.000475294
0.000143991
0.000341369
0.000146476
0.000203901
6.43513e-05
0.000147334
1.44497e-05
0.00141242
2.30228e-07
2.93131e-05
0.00135619
4.40028e-05
0.00130834
5.82815e-05
0.00125528
7.19615e-05
0.00119208
8.48741e-05
0.00111801
9.68668e-05
0.00103291
0.0001078
0.00093737
0.000117548
0.000832219
0.000125998
0.000718453
0.000133056
0.000597195
0.000138639
0.00046971
0.000142686
0.000337323
0.000145149
0.000201437
6.34992e-05
0.000146001
1.43145e-05
0.00139787
2.31939e-07
2.90427e-05
0.00134146
4.35989e-05
0.00129378
5.77479e-05
0.00124113
7.1304e-05
0.00117853
8.41e-05
0.00110521
9.59844e-05
0.00102102
0.000106819
0.000926535
0.00011648
0.000822559
0.000124855
0.000710079
0.000131849
0.000590201
0.000137383
0.000464177
0.000141394
0.000333313
0.000143836
0.000198996
6.26573e-05
0.00014468
1.41806e-05
0.00138346
2.33709e-07
2.87748e-05
0.00132686
4.31987e-05
0.00127936
5.72193e-05
0.00122711
7.06526e-05
0.00116509
8.3333e-05
0.00109253
9.51103e-05
0.00100925
0.000105848
0.000915798
0.000115421
0.000812985
0.000123721
0.000701779
0.000130653
0.000583269