/*--------------------------------*- C++ -*----------------------------------*\
  =========                 |
  \\      /  F ield         | OpenFOAM: The Open Source CFD Toolbox
   \\    /   O peration     | Website:  https://openfoam.org
    \\  /    A nd           | Version:  6.0
     \\/     M anipulation  |
\*---------------------------------------------------------------------------*/
FoamFile
{
    version     2.0;
    format      ascii;
    class       volVectorField;
    location    "0.4";
    object      U;
}
// * * * * * * * * * * * * * * * * * * * * * * * * * * * * * * * * * * * * * //

dimensions      [0 1 -1 0 0 0 0];

internalField   nonuniform List<vector> 
800
(
(0.00013083 -0.000132953 0)
(0.000386819 -0.000156311 0)
(0.000534923 -8.61266e-05 0)
(0.000480501 -1.08143e-05 0)
(0.000244324 4.27072e-05 0)
(-0.000112633 7.28158e-05 0)
(-0.000540545 8.68756e-05 0)
(-0.00101148 9.37856e-05 0)
(-0.00151869 0.000100829 0)
(-0.00207233 0.000113143 0)
(-0.00269564 0.000134398 0)
(-0.00342264 0.000167644 0)
(-0.00429763 0.000216017 0)
(-0.00537606 0.0002833 0)
(-0.00672641 0.00037439 0)
(-0.00843247 0.000495719 0)
(-0.0105956 0.000655567 0)
(-0.0133359 0.000864122 0)
(-0.0167915 0.00113295 0)
(-0.0211119 0.00147339 0)
(-0.0264441 0.00189323 0)
(-0.0329066 0.00239112 0)
(-0.0405493 0.00294865 0)
(-0.0492999 0.00352098 0)
(-0.0589027 0.00402887 0)
(-0.0688636 0.00435669 0)
(-0.0784215 0.00436234 0)
(-0.0865681 0.00390318 0)
(-0.092136 0.00287727 0)
(-0.0939622 0.00127206 0)
(-0.0911154 -0.000792994 0)
(-0.08316 -0.00304552 0)
(-0.0704029 -0.00507818 0)
(-0.0540513 -0.00642072 0)
(-0.0361849 -0.00667436 0)
(-0.0194512 -0.00568745 0)
(-0.00645259 -0.00369257 0)
(0.00106955 -0.00128996 0)
(0.00303018 0.000712681 0)
(0.00136745 0.00127223 0)
(0.000160958 -0.000398983 0)
(0.000349664 -0.000358282 0)
(0.00016736 -7.4182e-06 0)
(-0.000479389 0.000359126 0)
(-0.00152925 0.000640641 0)
(-0.00287348 0.000826199 0)
(-0.00442003 0.000943221 0)
(-0.00611633 0.00102962 0)
(-0.00795304 0.00112042 0)
(-0.00995984 0.00124405 0)
(-0.0122001 0.00142387 0)
(-0.0147676 0.001681 0)
(-0.0177863 0.00203711 0)
(-0.0214116 0.00251644 0)
(-0.0258334 0.00314694 0)
(-0.031277 0.00396051 0)
(-0.0380028 0.00499175 0)
(-0.0462977 0.00627422 0)
(-0.0564578 0.00783279 0)
(-0.0687522 0.00967034 0)
(-0.0833667 0.0117478 0)
(-0.100322 0.0139588 0)
(-0.119373 0.0161034 0)
(-0.139916 0.0178724 0)
(-0.160916 0.0188553 0)
(-0.180922 0.0185861 0)
(-0.19816 0.016628 0)
(-0.210726 0.0126842 0)
(-0.216824 0.00670726 0)
(-0.215013 -0.00101643 0)
(-0.204444 -0.00981877 0)
(-0.185063 -0.0186484 0)
(-0.1578 -0.0261372 0)
(-0.124715 -0.0307813 0)
(-0.0890154 -0.0312949 0)
(-0.0548364 -0.0271379 0)
(-0.0265774 -0.0190424 0)
(-0.00769331 -0.00914687 0)
(0.000810143 -0.000525148 0)
(0.00126813 0.00312062 0)
(7.22522e-05 -0.000544035 0)
(-0.000132174 -0.000143561 0)
(-0.00106024 0.000763706 0)
(-0.00267663 0.00166119 0)
(-0.00484551 0.00236548 0)
(-0.00742245 0.00285949 0)
(-0.0102945 0.00320426 0)
(-0.0134025 0.00348618 0)
(-0.0167456 0.0037893 0)
(-0.020377 0.00418664 0)
(-0.0243989 0.00474214 0)
(-0.0289596 0.00551599 0)
(-0.0342537 0.00656975 0)
(-0.0405228 0.00796948 0)
(-0.0480559 0.0097861 0)
(-0.0571849 0.012092 0)
(-0.0682731 0.0149522 0)
(-0.0816884 0.0184078 0)
(-0.0977581 0.0224482 0)
(-0.116696 0.0269725 0)
(-0.138508 0.0317423 0)
(-0.162877 0.0363389 0)
(-0.18907 0.0401471 0)
(-0.215889 0.0423878 0)
(-0.241723 0.0422161 0)
(-0.264689 0.038871 0)
(-0.282849 0.0318386 0)
(-0.294421 0.0209837 0)
(-0.297947 0.00662886 0)
(-0.292396 -0.0104087 0)
(-0.277225 -0.0287957 0)
(-0.252467 -0.0466698 0)
(-0.218875 -0.0616721 0)
(-0.178148 -0.0711318 0)
(-0.133189 -0.0725566 0)
(-0.0882463 -0.0645492 0)
(-0.048608 -0.0479981 0)
(-0.0193797 -0.0268195 0)
(-0.00337964 -0.00731532 0)
(0.000582642 0.00320667 0)
(-7.23365e-05 -0.000363476 0)
(-0.000856233 0.000818777 0)
(-0.00280597 0.00255534 0)
(-0.00566365 0.004158 0)
(-0.00917796 0.0053997 0)
(-0.0131621 0.00628563 0)
(-0.0174874 0.00693103 0)
(-0.0220957 0.00748667 0)
(-0.0270009 0.00809944 0)
(-0.0322816 0.00890037 0)
(-0.0380759 0.0100077 0)
(-0.0445787 0.0115348 0)
(-0.0520409 0.0135965 0)
(-0.0607672 0.016311 0)
(-0.0711109 0.0197964 0)
(-0.0834588 0.0241581 0)
(-0.098203 0.0294652 0)
(-0.115693 0.0357123 0)
(-0.136162 0.0427658 0)
(-0.159633 0.0502998 0)
(-0.185818 0.0577392 0)
(-0.214024 0.0642377 0)
(-0.243135 0.0687236 0)
(-0.271667 0.0700292 0)
(-0.297927 0.067083 0)
(-0.320212 0.0591096 0)
(-0.336992 0.0457746 0)
(-0.347012 0.0272453 0)
(-0.349297 0.00419104 0)
(-0.343104 -0.0222218 0)
(-0.327872 -0.0502909 0)
(-0.303238 -0.077683 0)
(-0.269189 -0.101334 0)
(-0.22639 -0.117495 0)
(-0.17671 -0.122181 0)
(-0.123829 -0.112355 0)
(-0.0735584 -0.0879593 0)
(-0.0330511 -0.0539628 0)
(-0.00817996 -0.0203031 0)
(-0.000112856 0.00107095 0)
(-0.000246035 0.000250137 0)
(-0.001723 0.0027357 0)
(-0.00487462 0.00558955 0)
(-0.00914974 0.0080399 0)
(-0.0141474 0.00988175 0)
(-0.0196285 0.0111879 0)
(-0.0254471 0.0121558 0)
(-0.0315479 0.0130174 0)
(-0.0379599 0.0139929 0)
(-0.0447844 0.0152795 0)
(-0.0521875 0.0170577 0)
(-0.0603961 0.0195005 0)
(-0.069695 0.0227797 0)
(-0.0804193 0.0270638 0)
(-0.0929402 0.0325052 0)
(-0.107638 0.0392141 0)
(-0.124858 0.0472153 0)
(-0.144845 0.0563868 0)
(-0.167664 0.0663865 0)
(-0.19311 0.0765827 0)
(-0.220634 0.0860206 0)
(-0.249323 0.0934604 0)
(-0.277956 0.0975097 0)
(-0.305137 0.0968321 0)
(-0.329477 0.0903749 0)
(-0.349746 0.0775363 0)
(-0.364958 0.0582277 0)
(-0.374352 0.0328433 0)
(-0.3773 0.00220033 0)
(-0.373183 -0.0324754 0)
(-0.361283 -0.0694643 0)
(-0.340742 -0.106347 0)
(-0.310644 -0.13972 0)
(-0.270357 -0.164974 0)
(-0.220197 -0.176483 0)
(-0.162484 -0.168758 0)
(-0.102695 -0.139177 0)
(-0.0498235 -0.0920276 0)
(-0.0141068 -0.0407202 0)
(-0.000922996 -0.0035745 0)
(-0.000438883 0.00135491 0)
(-0.00268224 0.00572971 0)
(-0.00714727 0.0100021 0)
(-0.0129378 0.0134212 0)
(-0.0194769 0.0158861 0)
(-0.0264642 0.0175931 0)
(-0.0337331 0.0188556 0)
(-0.0412288 0.0200035 0)
(-0.0489912 0.0213389 0)
(-0.0571359 0.0231296 0)
(-0.0658433 0.0256197 0)
(-0.0753519 0.0290411 0)
(-0.0859514 0.033617 0)
(-0.0979688 0.0395518 0)
(-0.111745 0.0470074 0)
(-0.127599 0.0560607 0)
(-0.145775 0.0666421 0)
(-0.166376 0.0784592 0)
(-0.189294 0.0909197 0)
(-0.214152 0.103081 0)
(-0.240277 0.113666 0)
(-0.266743 0.121169 0)
(-0.292467 0.124057 0)
(-0.316357 0.121011 0)
(-0.337451 0.11113 0)
(-0.354996 0.0940268 0)
(-0.368458 0.0698077 0)
(-0.377452 0.0389764 0)
(-0.381634 0.00233869 0)
(-0.380561 -0.0390211 0)
(-0.373529 -0.083634 0)
(-0.359419 -0.129362 0)
(-0.336636 -0.172922 0)
(-0.303294 -0.209324 0)
(-0.257858 -0.231547 0)
(-0.200437 -0.231201 0)
(-0.134747 -0.201374 0)
(-0.0702172 -0.142735 0)
(-0.0218786 -0.07043 0)
(-0.00207012 -0.0113508 0)
(-0.000647515 0.00299104 0)
(-0.00370934 0.00987811 0)
(-0.00955463 0.0158659 0)
(-0.0169003 0.020344 0)
(-0.0249739 0.0234099 0)
(-0.0334076 0.0254472 0)
(-0.0420109 0.0269206 0)
(-0.0507252 0.0282746 0)
(-0.0595936 0.029898 0)
(-0.0687338 0.0321283 0)
(-0.0783226 0.0352692 0)
(-0.0885865 0.0396033 0)
(-0.0997895 0.0453907 0)
(-0.112215 0.0528513 0)
(-0.126135 0.0621276 0)
(-0.141774 0.0732293 0)
(-0.159256 0.0859605 0)
(-0.178552 0.0998406 0)
(-0.199435 0.114039 0)
(-0.221455 0.127362 0)
(-0.24396 0.138313 0)
(-0.26616 0.145262 0)
(-0.287232 0.146673 0)
(-0.306433 0.14134 0)
(-0.323187 0.128547 0)
(-0.337114 0.1081 0)
(-0.34802 0.0802537 0)
(-0.355835 0.0455754 0)
(-0.360538 0.00481674 0)
(-0.362009 -0.0411569 0)
(-0.359817 -0.0913 0)
(-0.352946 -0.144091 0)
(-0.33953 -0.196919 0)
(-0.316783 -0.245155 0)
(-0.281408 -0.28115 0)
(-0.230829 -0.293908 0)
(-0.165607 -0.271095 0)
(-0.0932391 -0.20613 0)
(-0.0319652 -0.11134 0)
(-0.00378403 -0.0232291 0)
(-0.000872519 0.00519281 0)
(-0.00479801 0.0152342 0)
(-0.0120673 0.0232137 0)
(-0.0209698 0.0287973 0)
(-0.0305219 0.0323891 0)
(-0.0402866 0.0346292 0)
(-0.0500482 0.0361693 0)
(-0.0597401 0.0375817 0)
(-0.0694001 0.0393424 0)
(-0.0791344 0.041853 0)
(-0.0890977 0.0454668 0)
(-0.0994815 0.0505037 0)
(-0.110499 0.0572434 0)
(-0.122363 0.0658992 0)
(-0.135258 0.0765717 0)
(-0.149306 0.0891848 0)
(-0.164525 0.103411 0)
(-0.180794 0.118599 0)
(-0.197841 0.133732 0)
(-0.215242 0.147447 0)
(-0.232465 0.15814 0)
(-0.248934 0.164158 0)
(-0.264114 0.164037 0)
(-0.277581 0.156713 0)
(-0.289069 0.141642 0)
(-0.298483 0.1188 0)
(-0.305892 0.088581 0)
(-0.31151 0.0516417 0)
(-0.31564 0.00871879 0)
(-0.318543 -0.03952 0)
(-0.320212 -0.0925081 0)
(-0.320013 -0.149554 0)
(-0.316265 -0.209189 0)
(-0.305876 -0.267964 0)
(-0.284355 -0.318752 0)
(-0.246644 -0.34913 0)
(-0.18945 -0.34153 0)
(-0.116071 -0.279258 0)
(-0.044328 -0.164604 0)
(-0.00628714 -0.0403829 0)
(-0.00111882 0.00799708 0)
(-0.00596088 0.0218455 0)
(-0.0146953 0.0320575 0)
(-0.0251362 0.0387355 0)
(-0.0360762 0.0427152 0)
(-0.0470121 0.0449676 0)
(-0.0577076 0.0463658 0)
(-0.0680867 0.0476185 0)
(-0.0781751 0.0492846 0)
(-0.0880559 0.0518191 0)
(-0.0978465 0.0556117 0)
(-0.107686 0.0610038 0)
(-0.117719 0.0682782 0)
(-0.128078 0.0776259 0)
(-0.138859 0.0890946 0)
(-0.150093 0.102522 0)
(-0.161724 0.117468 0)
(-0.173598 0.133153 0)
(-0.185461 0.148442 0)
(-0.196991 0.161888 0)
(-0.207833 0.171864 0)
(-0.217657 0.176761 0)
(-0.226212 0.175216 0)
(-0.23336 0.166301 0)
(-0.239096 0.149618 0)
(-0.243558 0.125291 0)
(-0.247029 0.0938578 0)
(-0.249934 0.0560925 0)
(-0.252813 0.0127765 0)
(-0.256217 -0.0355425 0)
(-0.260511 -0.0887066 0)
(-0.265539 -0.146858 0)
(-0.270137 -0.209876 0)
(-0.27155 -0.276095 0)
(-0.264983 -0.340107 0)
(-0.243753 -0.389841 0)
(-0.201005 -0.404221 0)
(-0.134689 -0.355836 0)
(-0.058177 -0.229578 0)
(-0.00977836 -0.0640166 0)
(-0.00139826 0.0114547 0)
(-0.00723584 0.0297741 0)
(-0.017495 0.0424075 0)
(-0.0294503 0.0500926 0)
(-0.0416601 0.0542455 0)
(-0.0535692 0.0562498 0)
(-0.0649324 0.0572316 0)
(-0.0756703 0.0580388 0)
(-0.0857953 0.0593034 0)
(-0.0953607 0.0615192 0)
(-0.104438 0.0650969 0)
(-0.113103 0.0703845 0)
(-0.121429 0.0776558 0)
(-0.129468 0.0870729 0)
(-0.137237 0.098633 0)
(-0.144704 0.112105 0)
(-0.151781 0.126968 0)
(-0.158326 0.14237 0)
(-0.164161 0.157126 0)
(-0.169108 0.169781 0)
(-0.17302 0.178747 0)
(-0.175824 0.182499 0)
(-0.177543 0.179782 0)
(-0.17831 0.169786 0)
(-0.17836 0.152229 0)
(-0.178034 0.127349 0)
(-0.17778 0.0958005 0)
(-0.178147 0.0584672 0)
(-0.179768 0.0161965 0)
(-0.183302 -0.0305077 0)
(-0.189301 -0.0817508 0)
(-0.197975 -0.13832 0)
(-0.208769 -0.201321 0)
(-0.219716 -0.271043 0)
(-0.226613 -0.344615 0)
(-0.222379 -0.412152 0)
(-0.197702 -0.451838 0)
(-0.145429 -0.427667 0)
(-0.0719149 -0.302916 0)
(-0.014379 -0.0951681 0)
(-0.00173489 0.0156482 0)
(-0.00869892 0.0391214 0)
(-0.0205827 0.0542891 0)
(-0.0340299 0.0627892 0)
(-0.0473606 0.066805 0)
(-0.0599984 0.0682237 0)
(-0.0717167 0.0684509 0)
(-0.0824483 0.0684693 0)
(-0.0922 0.0689678 0)
(-0.100998 0.0704605 0)
(-0.108866 0.0733626 0)
(-0.115819 0.0780163 0)
(-0.12186 0.0846797 0)
(-0.12697 0.0934881 0)
(-0.131106 0.104402 0)
(-0.134202 0.117148 0)
(-0.136171 0.13117 0)
(-0.13692 0.145597 0)
(-0.136382 0.159257 0)
(-0.134543 0.170747 0)
(-0.131475 0.178568 0)
(-0.127355 0.181303 0)
(-0.122471 0.177808 0)
(-0.11721 0.167369 0)
(-0.112034 0.149783 0)
(-0.107467 0.125353 0)
(-0.104076 0.0947907 0)
(-0.102457 0.0590311 0)
(-0.103222 0.0189539 0)
(-0.106967 -0.024952 0)
(-0.114225 -0.0729204 0)
(-0.125351 -0.126116 0)
(-0.14026 -0.186507 0)
(-0.157889 -0.256059 0)
(-0.175243 -0.334646 0)
(-0.186048 -0.41588 0)
(-0.180088 -0.4802 0)
(-0.146339 -0.4871 0)
(-0.0834793 -0.378702 0)
(-0.0200121 -0.134484 0)
(-0.00217543 0.0207212 0)
(-0.0104879 0.050059 0)
(-0.024158 0.0677539 0)
(-0.0390681 0.076726 0)
(-0.0533131 0.0801713 0)
(-0.066358 0.0805818 0)
(-0.0780434 0.0796602 0)
(-0.0883459 0.0785079 0)
(-0.0972856 0.0778466 0)
(-0.104874 0.0781887 0)
(-0.111098 0.0799357 0)
(-0.115923 0.0834131 0)
(-0.119288 0.08886 0)
(-0.121119 0.0963934 0)
(-0.12133 0.105957 0)
(-0.119839 0.11727 0)
(-0.116581 0.129782 0)
(-0.111534 0.142657 0)
(-0.104749 0.15479 0)
(-0.0963797 0.164879 0)
(-0.0867024 0.171548 0)
(-0.0761256 0.173508 0)
(-0.065176 0.169726 0)
(-0.05447 0.159564 0)
(-0.0446747 0.142859 0)
(-0.0364689 0.119922 0)
(-0.0305073 0.0914449 0)
(-0.0273916 0.0583275 0)
(-0.0276505 0.021409 0)
(-0.0317334 -0.0188616 0)
(-0.0400192 -0.0627737 0)
(-0.0528121 -0.111638 0)
(-0.0702564 -0.167859 0)
(-0.0920281 -0.234506 0)
(-0.116525 -0.313799 0)
(-0.139165 -0.403359 0)
(-0.150439 -0.488356 0)
(-0.137179 -0.528721 0)
(-0.090923 -0.449892 0)
(-0.0262499 -0.181939 0)
(-0.00281074 0.0269311 0)
(-0.0128466 0.0628723 0)
(-0.0285416 0.082879 0)
(-0.0448384 0.0917504 0)
(-0.0596644 0.094029 0)
(-0.0726422 0.0929156 0)
(-0.0837606 0.090407 0)
(-0.0930885 0.0876907 0)
(-0.100693 0.085487 0)
(-0.106596 0.084279 0)
(-0.110773 0.0844345 0)
(-0.113152 0.0862494 0)
(-0.113633 0.0899416 0)
(-0.112096 0.0956172 0)
(-0.108425 0.103225 0)
(-0.102527 0.112506 0)
(-0.0943623 0.122961 0)
(-0.083973 0.133832 0)
(-0.0715154 0.144126 0)
(-0.0572855 0.152678 0)
(-0.0417326 0.158264 0)
(-0.0254555 0.159733 0)
(-0.00917753 0.156164 0)
(0.00629701 0.146978 0)
(0.0201364 0.132019 0)
(0.0315389 0.111548 0)
(0.0397854 0.0861642 0)
(0.0442823 0.0566488 0)
(0.044585 0.0237189 0)
(0.0403919 -0.0122701 0)
(0.0315018 -0.05165 0)
(0.017745 -0.0957387 0)
(-0.00106712 -0.147022 0)
(-0.0250707 -0.209045 0)
(-0.0538743 -0.285574 0)
(-0.0849771 -0.377904 0)
(-0.110932 -0.477474 0)
(-0.118341 -0.54952 0)
(-0.0926974 -0.50993 0)
(-0.0322112 -0.236404 0)
(-0.00382144 0.0347492 0)
(-0.0162097 0.0780174 0)
(-0.0342335 0.0997316 0)
(-0.0516793 0.107568 0)
(-0.0664705 0.107865 0)
(-0.0785967 0.10461 0)
(-0.0883148 0.10005 0)
(-0.0958544 0.0953995 0)
(-0.101377 0.0913302 0)
(-0.104958 0.0882627 0)
(-0.106592 0.0865068 0)
(-0.106206 0.0863122 0)
(-0.103681 0.0878672 0)
(-0.0988698 0.0912697 0)
(-0.0916293 0.0964852 0)
(-0.0818513 0.103304 0)
(-0.0695004 0.111306 0)
(-0.0546516 0.119849 0)
(-0.0375236 0.128087 0)
(-0.0185029 0.135022 0)
(0.00184747 0.139598 0)
(0.0228009 0.140816 0)
(0.0435012 0.137863 0)
(0.0630158 0.130207 0)
(0.0804013 0.117671 0)
(0.0947725 0.100424 0)
(0.105366 0.0789224 0)
(0.11159 0.0537633 0)
(0.113048 0.0254816 0)
(0.109523 -0.00570749 0)
(0.100919 -0.0401911 0)
(0.0871549 -0.0792322 0)
(0.0680396 -0.125183 0)
(0.043186 -0.181561 0)
(0.0121331 -0.25278 0)
(-0.0245777 -0.342814 0)
(-0.0624202 -0.449724 0)
(-0.0896932 -0.548249 0)
(-0.0873662 -0.553444 0)
(-0.036485 -0.295242 0)
(-0.00557368 0.0450633 0)
(-0.0213603 0.0961845 0)
(-0.0419793 0.118242 0)
(-0.0598792 0.123536 0)
(-0.0733936 0.12075 0)
(-0.0832433 0.114634 0)
(-0.090119 0.107557 0)
(-0.0944965 0.100666 0)
(-0.0966959 0.0945243 0)
(-0.0968975 0.0894489 0)
(-0.0951624 0.0856616 0)
(-0.0914553 0.0833429 0)
(-0.0856677 0.0826341 0)
(-0.0776453 0.0836146 0)
(-0.0672226 0.086266 0)
(-0.0542627 0.0904335 0)
(-0.0387022 0.0957949 0)
(-0.0205959 0.101845 0)
(-0.000155461 0.107905 0)
(0.0222238 0.113166 0)
(0.0459549 0.116755 0)
(0.0702744 0.117835 0)
(0.0942806 0.1157 0)
(0.116992 0.109862 0)
(0.13742 0.100109 0)
(0.154639 0.0864998 0)
(0.167859 0.0693185 0)
(0.176471 0.0489551 0)
(0.180066 0.0257392 0)
(0.178415 -0.000269423 0)
(0.171394 -0.0295118 0)
(0.158872 -0.0631652 0)
(0.140556 -0.103345 0)
(0.115852 -0.153257 0)
(0.0837612 -0.217255 0)
(0.04336 -0.300703 0)
(-0.00393096 -0.407439 0)
(-0.0498799 -0.524699 0)
(-0.0730042 -0.57623 0)
(-0.0368878 -0.354572 0)
(-0.00881387 0.0596367 0)
(-0.0296947 0.118334 0)
(-0.05272 0.137872 0)
(-0.0691207 0.138237 0)
(-0.0786891 0.130918 0)
(-0.0834977 0.121136 0)
(-0.0848774 0.111128 0)
(-0.0836494 0.101826 0)
(-0.0803606 0.0936052 0)
(-0.0753443 0.0866282 0)
(-0.0687626 0.0809891 0)
(-0.0606427 0.0767665 0)
(-0.0509079 0.0740275 0)
(-0.0394089 0.0728102 0)
(-0.0259602 0.0730938 0)
(-0.0103826 0.0747668 0)
(0.0074491 0.0775976 0)
(0.0275568 0.0812181 0)
(0.0498146 0.0851238 0)
(0.0739162 0.0886998 0)
(0.0993603 0.0912696 0)
(0.125461 0.0921639 0)
(0.15138 0.0907959 0)
(0.176185 0.0867298 0)
(0.198918 0.0797238 0)
(0.218664 0.0697371 0)
(0.234621 0.0568908 0)
(0.246138 0.0413825 0)
(0.25273 0.0233588 0)
(0.254047 0.00275393 0)
(0.249798 -0.0208898 0)
(0.239634 -0.0486186 0)
(0.222991 -0.0822497 0)
(0.198962 -0.124563 0)
(0.16612 -0.179491 0)
(0.122663 -0.252693 0)
(0.0674205 -0.352027 0)
(0.00387881 -0.478538 0)
(-0.0467081 -0.574356 0)
(-0.0299915 -0.40984 0)
(-0.0150431 0.082296 0)
(-0.0434675 0.145433 0)
(-0.0665422 0.156619 0)
(-0.0758619 0.148321 0)
(-0.0754823 0.134644 0)
(-0.0697887 0.120463 0)
(-0.0609012 0.107383 0)
(-0.0500062 0.0958794 0)
(-0.0378562 0.0860055 0)
(-0.0248901 0.0776848 0)
(-0.0113166 0.0708314 0)
(0.00282301 0.065386 0)
(0.0176104 0.0613129 0)
(0.0332159 0.0585821 0)
(0.0498646 0.0571445 0)
(0.0677969 0.0569057 0)
(0.0872258 0.0577006 0)
(0.108289 0.0592764 0)
(0.131005 0.0612869 0)
(0.155232 0.0633036 0)
(0.180648 0.0648443 0)
(0.206749 0.0654168 0)
(0.232865 0.0645703 0)
(0.258212 0.061944 0)
(0.281937 0.0573014 0)
(0.303194 0.0505383 0)
(0.321187 0.0416609 0)
(0.335218 0.0307272 0)
(0.344682 0.0177611 0)
(0.349046 0.00263618 0)
(0.347761 -0.0150518 0)
(0.340159 -0.0361426 0)
(0.325264 -0.0620646 0)
(0.301713 -0.0950761 0)
(0.267503 -0.138536 0)
(0.220244 -0.1978 0)
(0.156969 -0.282656 0)
(0.0761154 -0.407172 0)
(-0.00416189 -0.540654 0)
(-0.0104499 -0.452743 0)
(-0.027058 0.121525 0)
(-0.0643627 0.17523 0)
(-0.074533 0.16492 0)
(-0.0608279 0.143096 0)
(-0.0381128 0.122541 0)
(-0.0128304 0.104832 0)
(0.0129521 0.0900105 0)
(0.0382624 0.077796 0)
(0.0625869 0.0677743 0)
(0.085735 0.0595623 0)
(0.107723 0.052874 0)
(0.128695 0.0475131 0)
(0.148877 0.0433449 0)
(0.168557 0.0402708 0)
(0.188059 0.0382056 0)
(0.20772 0.0370552 0)
(0.227856 0.0366972 0)
(0.248727 0.0369656 0)
(0.270502 0.0376437 0)
(0.293218 0.0384658 0)
(0.316758 0.0391303 0)
(0.340835 0.0393224 0)
(0.365 0.0387442 0)
(0.388665 0.0371432 0)
(0.411146 0.0343359 0)
(0.431704 0.0302157 0)
(0.449595 0.0247424 0)
(0.4641 0.0179084 0)
(0.474522 0.00968913 0)
(0.480176 -3.2759e-05 0)
(0.48028 -0.01154 0)
(0.473907 -0.0253971 0)
(0.459693 -0.0425397 0)
(0.43585 -0.0645329 0)
(0.399591 -0.0938524 0)
(0.347717 -0.135074 0)
(0.27549 -0.197646 0)
(0.176831 -0.305091 0)
(0.0638065 -0.459218 0)
(0.0317787 -0.459164 0)
(-0.0464009 0.195084 0)
(-0.0634647 0.188257 0)
(-0.0057751 0.136501 0)
(0.0583873 0.105444 0)
(0.115308 0.0844938 0)
(0.164954 0.0683759 0)
(0.208614 0.0558039 0)
(0.247083 0.0460958 0)
(0.281006 0.0385713 0)
(0.311045 0.0326766 0)
(0.337831 0.0280311 0)
(0.361938 0.0243844 0)
(0.38389 0.0215673 0)
(0.40418 0.0194596 0)
(0.423274 0.0179689 0)
(0.441609 0.0170141 0)
(0.45958 0.0165115 0)
(0.477523 0.0163648 0)
(0.495689 0.0164592 0)
(0.514222 0.0166605 0)
(0.533135 0.0168194 0)
(0.552295 0.0167806 0)
(0.571428 0.0163963 0)
(0.590124 0.015539 0)
(0.607864 0.0141132 0)
(0.624057 0.0120594 0)
(0.638063 0.00935029 0)
(0.649233 0.00597393 0)
(0.656891 0.001912 0)
(0.660354 -0.00290172 0)
(0.658797 -0.00860639 0)
(0.651291 -0.0154896 0)
(0.636386 -0.0239922 0)
(0.612345 -0.034924 0)
(0.57589 -0.049504 0)
(0.523207 -0.0706648 0)
(0.446426 -0.104306 0)
(0.336029 -0.17333 0)
(0.189066 -0.308561 0)
(0.125058 -0.37549 0)
(0.244705 0.127909 0)
(0.296927 0.112771 0)
(0.403906 0.0777338 0)
(0.494079 0.0549573 0)
(0.558096 0.0404068 0)
(0.605281 0.0302098 0)
(0.642132 0.0228113 0)
(0.671719 0.017435 0)
(0.695799 0.0135163 0)
(0.715666 0.010634 0)
(0.732314 0.008496 0)
(0.746502 0.00690576 0)
(0.758822 0.0057296 0)
(0.769754 0.00487465 0)
(0.779703 0.00427418 0)
(0.789013 0.00387737 0)
(0.797971 0.00364179 0)
(0.806804 0.00352795 0)
(0.815673 0.00349587 0)
(0.824663 0.00350358 0)
(0.833771 0.00350733 0)
(0.842907 0.00346339 0)
(0.851889 0.00333101 0)
(0.86046 0.00307567 0)
(0.868297 0.00267194 0)
(0.875038 0.00210433 0)
(0.880299 0.0013667 0)
(0.883696 0.000456873 0)
(0.884828 -0.000627749 0)
(0.883309 -0.00190354 0)
(0.878635 -0.00340357 0)
(0.870305 -0.00520214 0)
(0.857368 -0.00740936 0)
(0.838976 -0.0102183 0)
(0.812616 -0.0139638 0)
(0.77648 -0.0192561 0)
(0.720954 -0.0283222 0)
(0.640736 -0.04519 0)
(0.489364 -0.0922252 0)
(0.367729 -0.142088 0)
)
;

boundaryField
{
    movingWall
    {
        type            fixedValue;
        value           uniform (1 0 0);
    }
    fixedWalls
    {
        type            noSlip;
    }
    frontAndBack
    {
        type            empty;
    }
}


// ************************************************************************* //
