/*--------------------------------*- C++ -*----------------------------------*\
  =========                 |
  \\      /  F ield         | OpenFOAM: The Open Source CFD Toolbox
   \\    /   O peration     | Website:  https://openfoam.org
    \\  /    A nd           | Version:  6.0
     \\/     M anipulation  |
\*---------------------------------------------------------------------------*/
FoamFile
{
    version     2.0;
    format      ascii;
    class       surfaceScalarField;
    location    "8";
    object      phi;
}
// * * * * * * * * * * * * * * * * * * * * * * * * * * * * * * * * * * * * * //

dimensions      [0 3 -1 0 0 0 0];

internalField   nonuniform List<scalar> 
93586
(
2.32399e-05
0.0015467
1.26589e-07
4.69552e-05
0.00154194
7.08716e-05
0.00153294
9.47938e-05
0.00151977
0.000118582
0.00150246
0.000142085
0.0014811
0.000165213
0.00145577
0.000187863
0.00142658
0.000209989
0.00139355
0.000231525
0.00135674
0.000252438
0.00131617
0.000272673
0.00127191
0.000292192
0.00122403
0.000310931
0.00117266
0.000328843
0.00111795
0.000345863
0.0010601
0.000361944
0.000999286
0.000377027
0.000935728
0.000391073
0.000869612
0.000404033
0.000801147
0.000415873
0.000730514
0.000426557
0.000657905
0.000436056
0.000583496
0.000444341
0.000507472
0.00045139
0.000429999
0.000457182
0.000351245
0.000461679
0.000271348
0.000465026
0.000190367
0.000466828
0.000108151
2.55944e-05
0.000463619
2.30057e-05
0.00152357
1.14822e-07
4.64498e-05
0.00151849
7.00532e-05
0.00150933
9.36142e-05
0.00149618
0.000116997
0.00147905
0.000140064
0.00145799
0.000162748
0.00143305
0.000184963
0.00140431
0.000206679
0.00137179
0.00022784
0.00133553
0.000248415
0.00129556
0.000268345
0.00125194
0.000287586
0.00120475
0.000306069
0.00115414
0.000323742
0.00110025
0.000340534
0.00104327
0.000356399
0.000983396
0.000371276
0.000920823
0.000385127
0.000855742
0.000397903
0.000788351
0.000409573
0.000718829
0.0004201
0.000647363
0.000429459
0.000574127
0.000437621
0.0004993
0.000444566
0.000423047
0.000450276
0.000345528
0.000454708
0.000266912
0.000457845
0.000187225
0.000459751
0.000106242
2.48739e-05
0.000460467
2.27298e-05
0.00150077
7.53033e-08
4.58324e-05
0.00149538
6.90625e-05
0.0014861
9.22226e-05
0.00147301
0.000115187
0.00145608
0.000137836
0.00143533
0.000160117
0.00141077
0.000181956
0.00138246
0.000203329
0.00135041
0.000224178
0.00131467
0.000244467
0.00127527
0.000264133
0.00123226
0.000283124
0.00118576
0.000301367
0.00113589
0.000318809
0.00108281
0.000335376
0.0010267
0.000351024
0.000967751
0.000365691
0.000906154
0.000379343
0.000842094
0.000391931
0.000775763
0.000403426
0.000707335
0.000413794
0.000636995
0.00042301
0.000564912
0.000431045
0.000491263
0.000437881
0.000416211
0.000443497
0.000339911
0.000447863
0.000262545
0.00045089
0.000184196
0.000452661
0.000104468
2.41905e-05
0.000453341
2.2397e-05
0.00147832
4.08494e-08
4.51165e-05
0.00147265
6.79504e-05
0.00146325
9.07096e-05
0.00145023
0.000113278
0.00143349
0.000135547
0.00141303
0.000157471
0.00138882
0.000178981
0.00136092
0.000200051
0.00132932
0.000220618
0.00129407
0.000240643
0.00125522
0.000260054
0.00121282
0.0002788
0.00116699
0.000296801
0.00111786
0.000314006
0.00106558
0.000330343
0.00101034
0.000345767
0.00095231
0.000360219
0.000891682
0.000373666
0.000828633
0.000386062
0.000763351
0.000397379
0.000696007
0.000407582
0.000626779
0.00041665
0.000555836
0.000424553
0.000483351
0.000431272
0.000409486
0.000436782
0.000334394
0.000441061
0.000258262
0.000444033
0.00018122
0.00044564
0.000102858
2.38534e-05
0.000445972
2.20417e-05
0.00145627
1.80448e-08
4.43735e-05
0.00145032
6.68164e-05
0.00144081
8.91904e-05
0.00142785
0.000111387
0.0014113
0.000133304
0.00139111
0.000154899
0.00136723
0.000176102
0.00133972
0.000196884
0.00130854
0.000217178
0.00127378
0.00023694
0.00123546
0.000256095
0.00119367
0.000274588
0.00114851
0.000292341
0.00110011
0.000309303
0.00104863
0.000325403
0.000994244
0.000340598
0.000937123
0.000354831
0.00087745
0.000368071
0.0008154
0.000380271
0.000751152
0.000391408
0.000684875
0.000401446
0.000616742
0.000410364
0.000546921
0.000418132
0.000475582
0.000424732
0.000402886
0.000430136
0.000328988
0.000434326
0.000254071
0.000437245
0.000178297
0.000438798
0.000101301
2.36381e-05
0.000439009
2.16826e-05
0.00143457
6.05458e-09
4.36355e-05
0.00142836
6.57013e-05
0.00141874
8.77079e-05
0.00140583
0.000109552
0.00138944
0.000131136
0.0013695
0.000152417
0.00134593
0.000173324
0.00131878
0.000193824
0.00128802
0.000213846
0.00125373
0.000233342
0.00121595
0.000252235
0.00117475
0.00027047
0.00113025
0.000287969
0.00108259
0.000304683
0.0010319
0.000320541
0.000978366
0.000335504
0.000922147
0.000349515
0.000863422
0.000362547
0.000802358
0.000374552
0.000739133
0.000385509
0.000673909
0.000395381
0.000606859
0.000404149
0.000538146
0.000411784
0.000467939
0.000418267
0.000396398
0.00042357
0.000323678
0.000427675
0.000249962
0.000430537
0.00017543
0.000432073
9.97617e-05
2.34325e-05
0.000432274
2.13266e-05
0.00141326
-1.15191e-08
4.29134e-05
0.00140678
6.46175e-05
0.00139704
8.62734e-05
0.00138417
0.000107782
0.00136794
0.000129047
0.00134824
0.000150024
0.00132496
0.000170641
0.00129817
0.000190861
0.00126781
0.00021061
0.00123399
0.000229836
0.00119673
0.000248462
0.00115613
0.000266434
0.00111229
0.000283674
0.00106535
0.000300135
0.00101545
0.000315749
0.000962756
0.000330479
0.000907427
0.000344268
0.000849635
0.000357091
0.000789543
0.000368902
0.000727324
0.000379679
0.000663137
0.000389387
0.000597151
0.000398008
0.000529528
0.000405512
0.000460435
0.000411881
0.000390029
0.000417086
0.00031847
0.00042111
0.000245936
0.000423915
0.000172621
0.000425438
9.82346e-05
2.32029e-05
0.000425661
2.09779e-05
0.0013923
-2.15371e-08
4.2213e-05
0.00138553
6.35709e-05
0.00137567
8.48912e-05
0.00136284
0.000106077
0.00134674
0.000127033
0.00132726
0.000147714
0.00130427
0.000168044
0.00127781
0.000187983
0.00124785
0.000207455
0.00121449
0.000226408
0.00117776
0.000244763
0.00113776
0.000262468
0.00109458
0.000279446
0.00104835
0.000295653
0.000999233
0.000311022
0.00094737
0.000325517
0.000892921
0.000339085
0.000836051
0.000351701
0.000776919
0.000363319
0.000715693
0.000373919
0.000652529
0.000383465
0.000587593
0.000391942
0.000521046
0.000399316
0.000453051
0.000405573
0.000383767
0.000410684
0.000313352
0.000414631
0.000241985
0.000417381
0.000169866
0.00041889
9.67215e-05
2.29464e-05
0.000419141
2.06381e-05
0.00137168
-1.767e-08
4.15365e-05
0.00136464
6.25625e-05
0.00135466
8.35601e-05
0.00134184
0.000104433
0.00132588
0.000125088
0.00130661
0.000145476
0.00128389
0.000165521
0.00125777
0.000185178
0.00122821
0.000204371
0.00119531
0.000223047
0.0011591
0.000241128
0.00111968
0.000258563
0.00107715
0.000275278
0.00103164
0.00029123
0.000983294
0.000306353
0.000932251
0.000320616
0.000878669
0.000333964
0.000822706
0.000346375
0.000764518
0.000357802
0.000704267
0.000368228
0.000642109
0.000377616
0.000578205
0.00038595
0.000512715
0.000393198
0.000445801
0.000399346
0.00037762
0.000404365
0.00030833
0.000408239
0.000238108
0.000410937
0.000167162
0.000412432
9.52216e-05
2.2665e-05
0.000412705
2.03084e-05
0.00135137
-5.85818e-09
4.08835e-05
0.00134405
6.15901e-05
0.00133394
8.22755e-05
0.00132114
0.000102844
0.0013053
0.000123203
0.00128623
0.0001433
0.00126378
0.000163059
0.00123799
0.000182433
0.00120882
0.000201345
0.00117638
0.000219742
0.00114069
0.000237547
0.00110186
0.000254711
0.00105998
0.000271162
0.00101518
0.00028686
0.000967586
0.000301741
0.000917355
0.000315773
0.000864627
0.000328904
0.00080956
0.000341112
0.000752302
0.000352352
0.000693015
0.000362606
0.000631848
0.000371838
0.000568962
0.000380033
0.000504515
0.000387159
0.000438666
0.000393201
0.000371572
0.000398131
0.000303391
0.000401936
0.0002343
0.000404586
0.000164506
0.000406064
9.37387e-05
2.23683e-05
0.000406355
1.99884e-05
0.00133138
7.72932e-09
4.02519e-05
0.0013238
6.06492e-05
0.00131355
8.10305e-05
0.00130077
0.000101301
0.00128504
0.000121366
0.00126617
0.000141175
0.00124398
0.000160647
0.00121853
0.000179737
0.00118974
0.000198366
0.00115775
0.000216483
0.00112259
0.000234013
0.00108434
0.000250907
0.0010431
0.000267096
0.000998993
0.000282541
0.000952154
0.000297181
0.00090272
0.000310985
0.000850834
0.000323902
0.000796646
0.000335911
0.000740302
0.000346968
0.00068196
0.000357054
0.000621768
0.000366134
0.000559882
0.000374193
0.000496459
0.000381199
0.000431658
0.000387138
0.000365632
0.000391983
0.000298541
0.000395722
0.000230559
0.000398326
0.000161895
0.000399787
9.22709e-05
2.20574e-05
0.000400089
1.96774e-05
0.00131168
2.18847e-08
3.96389e-05
0.00130382
5.9735e-05
0.00129345
7.98186e-05
0.00128067
9.97943e-05
0.00126505
0.000119569
0.00124637
0.00013909
0.00122445
0.000158276
0.00119932
0.000177081
0.00117092
0.000195428
0.00113939
0.000213265
0.00110474
0.000230519
0.00106706
0.000247145
0.00102646
0.000263074
0.000983047
0.000278271
0.000936949
0.000292673
0.000888302
0.000306253
0.000837245
0.00031896
0.000783924
0.000330774
0.000728482
0.00034165
0.000671071
0.000351572
0.000611839
0.000360503
0.00055094
0.000368429
0.000488528
0.000375319
0.000424759
0.000381159
0.000359787
0.000385922
0.000293769
0.000389597
0.00022688
0.000392158
0.000159326
0.000393602
9.08224e-05
2.17414e-05
0.000393912
1.93742e-05
0.00129227
3.89007e-08
3.90413e-05
0.00128417
5.88427e-05
0.00127366
7.86333e-05
0.00126088
9.8318e-05
0.00124538
0.000117804
0.0012269
0.000137037
0.00120523
0.000155938
0.00118043
0.000174459
0.00115242
0.000192524
0.00112133
0.000210082
0.0010872
0.000227064
0.00105009
0.000243424
0.00101011
0.000259097
0.000967381
0.000274048
0.000922011
0.000288217
0.000874139
0.000301577
0.000823896
0.000314078
0.000771426
0.0003257
0.000716868
0.0003364
0.000660373
0.000346161
0.000602084
0.000354947
0.000542153
0.000362744
0.000480734
0.000369521
0.00041798
0.000375264
0.000354043
0.000379948
0.00028908
0.000383562
0.000223263
0.000386083
0.000156797
0.000387508
8.93897e-05
2.14175e-05
0.000387821
1.9078e-05
0.00127313
5.43354e-08
3.84567e-05
0.00126478
5.79681e-05
0.00125414
7.74694e-05
0.00124137
9.68657e-05
0.00122597
0.000116065
0.00120768
0.000135012
0.00118626
0.000153628
0.00116179
0.000171866
0.00113417
0.00018965
0.00110353
0.000206933
0.0010699
0.000223645
0.00103336
0.000239743
0.000994006
0.000255163
0.000951944
0.000269872
0.000907294
0.000283812
0.000860184
0.000296957
0.000810744
0.000309256
0.000759112
0.000320691
0.000705426
0.000331218
0.000649833
0.000340823
0.000592474
0.000349466
0.000533497
0.000357138
0.000473057
0.000363804
0.000411303
0.000369454
0.000348387
0.000374061
0.000284464
0.000377616
0.000219703
0.000380098
0.000154308
0.000381505
8.7977e-05
2.10936e-05
0.000381822
1.87876e-05
0.00125429
6.60376e-08
3.78825e-05
0.0012457
5.71078e-05
0.00123492
7.63227e-05
0.00122216
9.54328e-05
0.00120688
0.000114347
0.00118877
0.000133009
0.00116762
0.000151342
0.00114347
0.000169299
0.00111623
0.000186805
0.00108604
0.000203815
0.00105291
0.000220261
0.00101693
0.000236101
0.000978181
0.000251273
0.00093678
0.000265745
0.000892836
0.00027946
0.000846475
0.000292393
0.000797822
0.000304495
0.000747014
0.000315747
0.000694183
0.000326106
0.000639476
0.000335557
0.000583029
0.000344062
0.000524991
0.00035161
0.000465511
0.000358169
0.000404741
0.000363729
0.000342827
0.000368261
0.000279925
0.00037176
0.0002162
0.000374204
0.000151855
0.000375592
8.65801e-05
2.07643e-05
0.00037591
1.85025e-05
0.0012357
7.45386e-08
3.73171e-05
0.00122687
5.62594e-05
0.00121597
7.51904e-05
0.00120322
9.40164e-05
0.00118804
0.000112647
0.00117012
0.000131026
0.00114922
0.000149078
0.0011254
0.000166756
0.00109854
0.000183988
0.00106879
0.000200729
0.00103616
0.000216912
0.00100073
0.000232499
0.000962586
0.000247427
0.000921836
0.000261667
0.000878588
0.000275162
0.000832965
0.000287888
0.000785088
0.000299796
0.000735091
0.00031087
0.000683104
0.000321063
0.000629269
0.000330364
0.000573722
0.000338734
0.000516609
0.000346162
0.000458077
0.000352617
0.000398275
0.000358088
0.00033735
0.000362548
0.000275454
0.000365992
0.000212751
0.000368399
0.00014944
0.00036977
8.52031e-05
2.04372e-05
0.000370089
1.82217e-05
0.00121741
8.126e-08
3.67591e-05
0.00120835
5.54209e-05
0.00119732
7.40703e-05
0.00118458
9.26143e-05
0.00116951
0.000110963
0.00115178
0.000129062
0.00113114
0.000146836
0.00110764
0.000164238
0.00108115
0.000181199
0.00105184
0.000197675
0.0010197
0.0002136
0.000984813
0.000228938
0.000947264
0.000243626
0.000907154
0.000257639
0.000864591
0.000270918
0.000819692
0.000283442
0.000772576
0.000295161
0.000723375
0.000306059
0.000672216
0.000316091
0.000619238
0.000325245
0.000564575
0.000333483
0.000508369
0.000340794
0.000450769
0.000347147
0.000391919
0.000352531
0.000331965
0.000356921
0.000271056
0.000360312
0.000209355
0.000362683
0.000147059
0.000364036
8.38415e-05
2.01057e-05
0.000364355
1.7945e-05
0.00119937
8.58167e-08
3.62076e-05
0.00119007
5.45913e-05
0.00117893
7.29614e-05
0.00116619
9.12256e-05
0.00115123
0.000109296
0.0011337
0.000127117
0.00111331
0.000144615
0.00109012
0.000161745
0.00106401
0.000178439
0.00103513
0.000194654
0.00100348
0.000210325
0.000969126
0.000225418
0.000932162
0.000239873
0.000892684
0.000253663
0.000850794
0.00026673
0.000806609
0.000279056
0.000760244
0.000290589
0.000711827
0.000301315
0.000661484
0.00031119
0.00060935
0.0003202
0.000555558
0.000328308
0.000500248
0.000335505
0.000443566
0.000341758
0.000385655
0.000347058
0.000326658
0.00035138
0.000266724
0.000354719
0.000206011
0.000357055
0.000144713
0.00035839
8.24994e-05
1.97772e-05
0.00035871
1.76716e-05
0.00118163
8.83199e-08
3.5662e-05
0.0011721
5.377e-05
0.00116084
7.1863e-05
0.00114811
8.98498e-05
0.00113326
0.000107643
0.00111591
0.00012519
0.00109578
0.000142415
0.00107291
0.000159278
0.00104716
0.000175708
0.00101871
0.000191666
0.000987537
0.000207089
0.000953714
0.000221943
0.000917326
0.000236167
0.000878467
0.000249738
0.000837239
0.000262599
0.000793754
0.00027473
0.000748126
0.000286082
0.000700478
0.00029664
0.000650936
0.00030636
0.000599631
0.000315229
0.000546695
0.000323211
0.000492264
0.000330296
0.000436484
0.000336451
0.000379495
0.000341669
0.000321439
0.000345924
0.000262461
0.000349212
0.000202717
0.000351514
0.0001424
0.000352832
8.11722e-05
1.9445e-05
0.00035315
1.74018e-05
0.00116413
8.97548e-08
3.5122e-05
0.00115436
5.29566e-05
0.00114299
7.0775e-05
0.00113028
8.84871e-05
0.00111554
0.000106007
0.00109838
0.000123282
0.00107849
0.000140239
0.00105593
0.000156837
0.00103055
0.000173008
0.00100252
0.000188714
0.000971822
0.000203893
0.000938521
0.000218511
0.0009027
0.00023251
0.000864452
0.000245867
0.000823876
0.000258525
0.000781081
0.000270466
0.000736178
0.000281639
0.00068929
0.000292033
0.000640536
0.000301601
0.00059005
0.000310333
0.000537957
0.00031819
0.000484394
0.000325165
0.000429503
0.000331224
0.000373424
0.000336362
0.000316294
0.000340552
0.000258259
0.000343791
0.000199472
0.000346059
0.000140121
0.000347359
7.9864e-05
1.91164e-05
0.000347678
1.71348e-05
0.00114692
9.0807e-08
3.45874e-05
0.00113693
5.21512e-05
0.00112545
6.96977e-05
0.00111275
8.71379e-05
0.00109811
0.000104387
0.00108114
0.000121394
0.0010615
0.000138086
0.00103925
0.000154424
0.00101423
0.000170341
0.000986619
0.000185799
0.000956383
0.000200737
0.000923594
0.000215125
0.00088833
0.000228903
0.000850682
0.00024205
0.000810746
0.000254509
0.000768628
0.000266263
0.000724438
0.000277262
0.000678294
0.000287494
0.000630315
0.000296913
0.000580631
0.000305509
0.000529367
0.000313245
0.000476656
0.000320112
0.000422639
0.000326078
0.000367453
0.000331137
0.000311234
0.000335262
0.000254125
0.000338453
0.000196276
0.000340689
0.000137874
0.000341972
7.85704e-05
1.87845e-05
0.000342289
1.68711e-05
0.00112994
9.15525e-08
3.40585e-05
0.00111973
5.1354e-05
0.00110814
6.86313e-05
0.00109545
8.58027e-05
0.00108093
0.000102785
0.00106414
0.000119527
0.00104474
0.000135958
0.0010228
0.00015204
0.000998142
0.000167706
0.000970936
0.000182921
0.00094116
0.000197624
0.000908876
0.000211785
0.000874162
0.000225347
0.000837105
0.000238287
0.000797799
0.000250551
0.000756349
0.000262122
0.00071286
0.000272949
0.000667451
0.000283023
0.000620236
0.000292296
0.000571344
0.000300759
0.000520897
0.000308375
0.000469026
0.000315137
0.000415871
0.000321011
0.000361566
0.000325993
0.000306246
0.000330055
0.00025005
0.000333198
0.000193127
0.000335402
0.000135659
0.000336668
7.72952e-05
1.84564e-05
0.000336985
1.66103e-05
0.00111326
9.20953e-08
3.35352e-05
0.00110282
5.05653e-05
0.00109113
6.75765e-05
0.00107846
8.44823e-05
0.00106404
0.000101201
0.00104744
0.000117681
0.00102828
0.000133856
0.00100664
0.000149685
0.000982332
0.000165106
0.00095553
0.000180082
0.000926204
0.000194553
0.000894417
0.000208492
0.000860242
0.000221841
0.000823765
0.000234579
0.000785078
0.000246652
0.000744283
0.000258043
0.000701484
0.000268702
0.000656795
0.000278619
0.00061033
0.000287749
0.000562215
0.000296082
0.00051257
0.000303581
0.000461525
0.000310239
0.000409216
0.000316023
0.000355777
0.000320928
0.000301339
0.000324929
0.00024604
0.000328026
0.000190025
0.000330197
0.000133476
0.000331447
7.60346e-05
1.81258e-05
0.000331762
1.63528e-05
0.0010968
9.26616e-08
3.30178e-05
0.00108615
4.97855e-05
0.00107435
6.65337e-05
0.00106169
8.31772e-05
0.00104738
9.96354e-05
0.00103096
0.000115859
0.00101205
0.00013178
0.000990702
0.000147362
0.00096674
0.00016254
0.000940336
0.000177281
0.000911455
0.000191526
0.000880157
0.000205246
0.000846514
0.000218386
0.00081061
0.000230926
0.000772532
0.000242811
0.000732383
0.000254025
0.000690263
0.000264519
0.000646285
0.000274283
0.00060056
0.000283272
0.000553212
0.000291477
0.000504359
0.00029886
0.000454127
0.000305416
0.000402654
0.000311112
0.000350068
0.000315943
0.0002965
0.000319883
0.000242086
0.000322934
0.000186967
0.000325074
0.000131323
0.000326307
7.47917e-05
1.77991e-05
0.000326622
1.60983e-05
0.00108063
9.3328e-08
3.25065e-05
0.00106976
4.90149e-05
0.00105786
6.55034e-05
0.00104522
8.18882e-05
0.00103102
9.80898e-05
0.00101477
0.00011406
0.000996096
0.000129732
0.000975045
0.00014507
0.000951424
0.00016001
0.000925411
0.000174521
0.000896967
0.000188542
0.000866149
0.000202048
0.000833028
0.000214983
0.000797685
0.000227328
0.000760206
0.000239028
0.000720691
0.000250068
0.000679237
0.0002604
0.000635957
0.000270014
0.000590958
0.000278864
0.000544362
0.000286943
0.000496286
0.000294213
0.000446854
0.000300669
0.000396201
0.000306277
0.000344454
0.000311035
0.000291741
0.000314916
0.000238195
0.000317921
0.000183956
0.000320031
0.000129201
0.000321248
7.35633e-05
1.74705e-05
0.00032156
1.58471e-05
0.00106468
9.4013e-08
3.20015e-05
0.00105359
4.82539e-05
0.00104159
6.44861e-05
0.00102897
8.06156e-05
0.00101488
9.65644e-05
0.000998805
0.000112285
0.000980362
0.000127712
0.0009596
0.00014281
0.000936315
0.000157516
0.000910688
0.0001718
0.000882675
0.000185602
0.000852332
0.000198898
0.000819725
0.000211631
0.000784935
0.000223784
0.000748047
0.000235302
0.000709157
0.000246172
0.000668361
0.000256344
0.000625769
0.00026581
0.000581486
0.000274524
0.000535633
0.00028248
0.000488324
0.000289638
0.000439681
0.000295996
0.000389838
0.000301518
0.000338918
0.000306204
0.000287048
0.000310026
0.000234359
0.000312987
0.000180988
0.000315066
0.000127109
0.000316267
7.23522e-05
1.7146e-05
0.000316579
1.55991e-05
0.001049
9.46881e-08
3.1503e-05
0.00103771
4.75027e-05
0.00102562
6.34821e-05
0.00101301
7.93601e-05
0.00099902
9.50598e-05
0.000983123
0.000110535
0.000964908
0.00012572
0.000944431
0.000140582
0.000921476
0.000155059
0.000896228
0.000169119
0.000868638
0.000182706
0.000838759
0.000195795
0.000806657
0.00020833
0.000772411
0.000220295
0.000736101
0.000231635
0.000697824
0.000242337
0.000657674
0.000252352
0.000615757
0.000261673
0.000572178
0.000270253
0.000527054
0.000278087
0.000480497
0.000285135
0.000432629
0.000291396
0.00038358
0.000296834
0.000333473
0.000301449
0.000282431
0.000305214
0.000230583
0.000308131
0.000178065
0.00031018
0.000125046
0.000311365
7.11555e-05
1.682e-05
0.000311674
1.53547e-05
0.00103354
9.535e-08
3.10111e-05
0.00102204
4.67616e-05
0.00100985
6.24918e-05
0.000997268
7.81218e-05
0.000983375
9.35762e-05
0.000967649
0.000108809
0.000949661
0.000123758
0.000929465
0.000138387
0.000906836
0.000152637
0.000881962
0.000166479
0.000854789
0.000179854
0.000825369
0.00019274
0.000793765
0.00020508
0.000760054
0.00021686
0.000724316
0.000228024
0.000686644
0.000238561
0.00064713
0.000248421
0.00060588
0.000257599
0.000562994
0.000266047
0.00051859
0.000273762
0.000472777
0.000280702
0.000425674
0.000286868
0.000377409
0.000292223
0.000328103
0.000296768
0.000277878
0.000300476
0.00022686
0.000303351
0.000175182
0.00030537
0.000123013
0.000306539
6.99756e-05
1.64983e-05
0.000306847
1.51135e-05
0.00101835
9.59568e-08
3.05261e-05
0.00100665
4.60308e-05
0.000994371
6.15154e-05
0.000981804
7.69012e-05
0.000968012
9.2114e-05
0.000952455
0.000107109
0.000934689
0.000121824
0.000914768
0.000136225
0.000892458
0.000150253
0.000867951
0.000163879
0.000841187
0.000177046
0.000812217
0.000189731
0.000781102
0.00020188
0.000747916
0.000213478
0.000712739
0.000224469
0.000675661
0.000234844
0.000636771
0.000244553
0.000596175
0.00025359
0.00055397
0.000261908
0.000510272
0.000269505
0.000465188
0.000276339
0.000418835
0.000282411
0.00037134
0.000287684
0.000322822
0.000292161
0.000273399
0.000295813
0.000223197
0.000298645
0.000172344
0.000300635
0.000121008
0.000301789
6.88101e-05
1.61758e-05
0.000302094
1.4876e-05
0.00100337
9.64927e-08
3.00479e-05
0.000991467
4.53104e-05
0.000979094
6.0553e-05
0.000966545
7.56983e-05
0.000952853
9.06732e-05
0.000937461
0.000105434
0.000919915
0.000119919
0.000900265
0.000134095
0.000878271
0.000147905
0.000854126
0.000161319
0.000827766
0.000174281
0.000799239
0.00018677
0.000768606
0.00019873
0.00073594
0.000210149
0.000701315
0.00022097
0.000664823
0.000231186
0.00062655
0.000240745
0.000586599
0.000249644
0.000545066
0.000257834
0.000502066
0.000265315
0.000457702
0.000272044
0.00041209
0.000278024
0.000365355
0.000283217
0.000317613
0.000287626
0.000268982
0.000291224
0.000219584
0.000294014
0.000169546
0.000295975
0.000119032
0.000297113
6.76608e-05
1.58574e-05
0.000297416
1.46418e-05
0.000988654
9.69147e-08
2.95768e-05
0.000976557
4.46006e-05
0.000964096
5.96049e-05
0.000951563
7.45133e-05
0.000937968
8.92541e-05
0.00092274
0.000103784
0.000905408
0.000118043
0.000886025
0.000131999
0.00086434
0.000145593
0.00084055
0.000158798
0.000814586
0.000171559
0.000786495
0.000183855
0.000756334
0.00019563
0.000724176
0.000206872
0.000690094
0.000217527
0.000654176
0.000227585
0.000616508
0.000236997
0.00057719
0.000245759
0.000536317
0.000253824
0.000494001
0.000261191
0.000450344
0.000267817
0.000405459
0.000273706
0.00035947
0.00027882
0.000312491
0.000283163
0.000264638
0.000286706
0.000216029
0.000289455
0.000166791
0.000291388
0.000117084
0.00029251
6.6526e-05
1.5539e-05
0.00029281
1.44113e-05
0.000974135
9.72532e-08
2.91126e-05
0.000961843
4.39014e-05
0.000949293
5.86709e-05
0.000936777
7.33462e-05
0.000923278
8.78564e-05
0.000908211
0.00010216
0.000891091
0.000116196
0.00087197
0.000129934
0.000850591
0.000143316
0.000827151
0.000156317
0.000801578
0.00016888
0.000773917
0.000180985
0.000744222
0.000192578
0.000712567
0.000203647
0.00067902
0.000214137
0.000643669
0.000224041
0.000606598
0.000233308
0.000567906
0.000241936
0.000527684
0.000249878
0.000486043
0.000257131
0.000443084
0.000263656
0.000398917
0.000269456
0.000353664
0.000274492
0.000307439
0.00027877
0.000260352
0.000282259
0.000212523
0.000284968
0.000164074
0.000286873
0.000115164
0.00028798
6.54068e-05
1.52245e-05
0.000288278
1.41841e-05
0.000959877
9.74572e-08
2.86555e-05
0.000947399
4.32128e-05
0.000934762
5.77512e-05
0.000922262
7.21969e-05
0.000908858
8.64803e-05
0.000893948
0.00010056
0.000877036
0.000114377
0.000858173
0.000127902
0.000837093
0.000141076
0.000813997
0.000153875
0.000788806
0.000166243
0.000761566
0.000178161
0.000732329
0.000189574
0.000701165
0.000200473
0.000668144
0.000210801
0.00063335
0.000220553
0.000596864
0.000229678
0.000558784
0.000238174
0.000519202
0.000245993
0.000478224
0.000253136
0.000435949
0.000259562
0.000392487
0.000265273
0.000347957
0.000270233
0.000302471
0.000274446
0.000256137
0.000277883
0.000209074
0.000280551
0.000161399
0.000282428
0.000113272
0.00028352
6.43021e-05
1.49105e-05
0.000283815
1.39607e-05
0.000945808
9.75775e-08
2.82054e-05
0.00093314
4.25348e-05
0.000920418
5.68456e-05
0.000907935
7.10654e-05
0.000894623
8.51255e-05
0.000879869
9.8986e-05
0.000863162
0.000112587
0.000844553
0.000125901
0.000823769
0.000138871
0.000801011
0.000151471
0.000776199
0.000163647
0.000749374
0.000175381
0.000720589
0.000186618
0.000689911
0.000197349
0.000657408
0.000207518
0.000623163
0.00021712
0.000587256
0.000226104
0.000549782
0.000234471
0.000510831
0.00024217
0.000470507
0.000249204
0.000428908
0.000255531
0.000386142
0.000261156
0.000342327
0.00026604
0.00029757
0.00027019
0.00025198
0.000273575
0.000205671
0.000276204
0.000158761
0.000278054
0.000111405
0.000279131
6.32126e-05
1.46002e-05
0.000279424
1.37406e-05
0.000931994
9.75592e-08
2.77623e-05
0.000919148
4.18673e-05
0.000906342
5.59542e-05
0.000893873
6.99516e-05
0.000880653
8.3792e-05
0.00086605
9.74362e-05
0.000849544
0.000110825
0.000831184
0.000123933
0.000810689
0.0001367
0.000788264
0.000149106
0.000763822
0.000161093
0.000737405
0.000172646
0.000709063
0.000183709
0.000678861
0.000194275
0.000646866
0.000204287
0.00061316
0.000213742
0.00057782
0.000222588
0.00054094
0.000230826
0.000502607
0.000238408
0.000462926
0.000245334
0.00042199
0.000251565
0.000379907
0.000257104
0.000336792
0.000261914
0.000292751
0.000266001
0.000247891
0.000269335
0.000202324
0.000271926
0.000156165
0.000273748
0.000109567
0.00027481
6.21375e-05
1.42911e-05
0.0002751
1.35242e-05
0.000918362
9.74739e-08
2.73261e-05
0.000905332
4.12102e-05
0.000892443
5.50766e-05
0.00087999
6.88552e-05
0.000866859
8.24793e-05
0.000852407
9.59108e-05
0.000836099
0.000109091
0.000817985
0.000121995
0.000797776
0.000134564
0.000775677
0.000146778
0.000751602
0.000158579
0.000725587
0.000169954
0.000697682
0.000180846
0.000667951
0.000191249
0.000636458
0.000201107
0.000603284
0.000210417
0.000568505
0.000219127
0.000532211
0.000227239
0.00049449
0.000234704
0.000455443
0.000241526
0.000415163
0.00024766
0.000373754
0.000253116
0.00033133
0.000257853
0.000287997
0.000261878
0.000243857
0.000265162
0.000199022
0.000267714
0.000153604
0.00026951
0.000107754
0.000270557
6.1077e-05
1.39856e-05
0.000270845
1.3311e-05
0.00090498
9.72534e-08
2.68968e-05
0.000891777
4.05635e-05
0.000878806
5.4213e-05
0.000866367
6.77761e-05
0.000853324
8.11875e-05
0.000839019
9.44095e-05
0.000822905
0.000107385
0.000805031
0.000120088
0.000785102
0.000132462
0.000763325
0.000144487
0.000739608
0.000156105
0.000713988
0.000167304
0.000686511
0.000178028
0.000657241
0.000188272
0.00062624
0.000197978
0.000593588
0.000207145
0.000559357
0.000215721
0.000523639
0.000223709
0.000486517
0.00023106
0.000448092
0.000237777
0.000408455
0.000243818
0.000367707
0.00024919
0.000325963
0.000253856
0.000283323
0.00025782
0.000239891
0.000261055
0.000195774
0.000263569
0.000151083
0.000265339
0.000105968
0.000266371
6.0031e-05
1.36817e-05
0.000266656
1.31015e-05
0.00089177
9.69833e-08
2.64744e-05
0.00087839
3.9927e-05
0.000865339
5.3363e-05
0.000852914
6.67141e-05
0.000839958
7.99161e-05
0.000825797
9.29321e-05
0.000809875
0.000105705
0.000792239
0.000118211
0.000772586
0.000130393
0.000751126
0.000142232
0.000727763
0.000153671
0.000702532
0.000164697
0.000675479
0.000175256
0.000646665
0.000185341
0.00061615
0.000194898
0.000584013
0.000203925
0.000550325
0.000212369
0.000515176
0.000220235
0.000478646
0.000227473
0.000440836
0.000234088
0.000401833
0.000240036
0.00036174
0.000245327
0.000320666
0.000249921
0.000278712
0.000253826
0.000235977
0.000257012
0.00019257
0.000259489
0.000148597
0.000261233
0.000104206
0.000262251
5.89989e-05
1.3381e-05
0.000262533
1.28951e-05
0.000878806
9.65881e-08
2.60586e-05
0.000865259
3.93007e-05
0.000852127
5.25265e-05
0.000839717
6.5669e-05
0.000826845
7.86649e-05
0.000812826
9.14782e-05
0.000797091
0.000104053
0.000779687
0.000116365
0.000760305
0.000128358
0.000739155
0.000140013
0.000716139
0.000151275
0.00069129
0.000162132
0.000664651
0.000172527
0.000636283
0.000182458
0.000606245
0.000191867
0.000574613
0.000200756
0.000541457
0.00020907
0.000506865
0.000216816
0.000470916
0.000223943
0.000433709
0.000230457
0.000395329
0.000236315
0.000355877
0.000241525
0.00031546
0.000246049
0.000274178
0.000249896
0.00023213
0.000253033
0.000189418
0.000255473
0.00014615
0.000257192
0.000102471
0.000258196
5.79816e-05
1.30826e-05
0.000258474
1.26923e-05
0.000866006
9.61632e-08
2.56495e-05
0.000852288
3.86843e-05
0.000839078
5.17033e-05
0.000826681
6.46406e-05
0.000813892
7.74336e-05
0.000800013
9.00474e-05
0.000784463
0.000102426
0.000767289
0.000114547
0.000748174
0.000126354
0.000727331
0.00013783
0.000704658
0.000148918
0.000680186
0.000159607
0.000653957
0.000169842
0.00062603
0.00017962
0.000596463
0.000188885
0.00056533
0.000197637
0.0005327
0.000205823
0.000498659
0.000213451
0.000463284
0.000220469
0.000426672
0.000226883
0.000388908
0.000232651
0.000350089
0.000237783
0.000310322
0.000242238
0.000269705
0.000246027
0.000228333
0.000249117
0.000186309
0.000251521
0.000143736
0.000253214
0.00010076
0.000254204
5.69774e-05
1.27871e-05
0.00025448
1.24925e-05
0.000853447
9.56253e-08
2.5247e-05
0.000839567
3.80778e-05
0.000826279
5.08933e-05
0.000813895
6.36285e-05
0.000801187
7.6222e-05
0.000787445
8.86395e-05
0.000772076
0.000100826
0.000755127
0.000112759
0.000736273
0.000124383
0.000715731
0.000135681
0.000693393
0.000146598
0.00066929
0.000157122
0.000643462
0.0001672
0.000615968
0.000176828
0.000586862
0.00018595
0.000556218
0.000194568
0.000524104
0.000202628
0.000490602
0.00021014
0.00045579
0.00021705
0.000419762
0.000223366
0.000382601
0.000229046
0.000344403
0.0002341
0.000305274
0.000238488
0.000265308
0.000242219
0.0002246
0.000245263