/*--------------------------------*- C++ -*----------------------------------*\
  =========                 |
  \\      /  F ield         | OpenFOAM: The Open Source CFD Toolbox
   \\    /   O peration     | Website:  https://openfoam.org
    \\  /    A nd           | Version:  6.0
     \\/     M anipulation  |
\*---------------------------------------------------------------------------*/
FoamFile
{
    version     2.0;
    format      ascii;
    class       surfaceScalarField;
    location    "8";
    object      phi;
}
// * * * * * * * * * * * * * * * * * * * * * * * * * * * * * * * * * * * * * //

dimensions      [0 3 -1 0 0 0 0];

internalField   nonuniform List<scalar> 
26699
(
4.0305e-05
0.0051807
2.8736e-09
8.0659e-05
0.0050914
0.00011988
0.0049154
0.00015717
0.0046554
0.0001918
0.0043158
0.00022317
0.0039024
0.00025069
0.0034223
0.00027387
0.0028837
0.00029237
0.0022957
0.00030428
0.00167
0.00031694
0.0010081
0.00056743
9.1713e-05
4.0044e-05
0.0051407
8.6135e-09
8.0146e-05
0.0050513
0.00011912
0.0048764
0.00015617
0.0046183
0.00019057
0.0042814
0.00022174
0.0038713
0.00024905
0.003395
0.000272
0.0028607
0.00029055
0.0022771
0.00029898
0.0016615
0.00031899
0.00098809
0.00070255
0.00018387
3.9785e-05
0.0051009
1.4311e-08
7.9634e-05
0.0050114
0.00011836
0.0048377
0.00015518
0.0045815
0.00018935
0.0042473
0.00022031
0.0038403
0.00024742
0.0033679
0.00027012
0.0028381
0.0002889
0.0022583
0.00029403
0.0016564
0.0003179
0.00096422
0.00077147
0.00024898
3.9528e-05
0.0050613
1.9945e-08
7.9126e-05
0.0049718
0.0001176
0.0047992
0.00015419
0.0045449
0.00018814
0.0042133
0.0002189
0.0038096
0.00024581
0.003341
0.00026823
0.0028156
0.00028745
0.0022391
0.00028974
0.0016541
0.00031406
0.00093989
0.00079682
0.00028872
3.9273e-05
0.005022
2.5514e-08
7.862e-05
0.0049325
0.00011685
0.0047609
0.00015321
0.0045086
0.00018694
0.0041796
0.00021749
0.003779
0.00024422
0.0033143
0.00026632
0.0027935
0.00028611
0.0022193
0.00028631
0.0016539
0.00030835
0.00091785
0.00079463
0.00031054
3.9019e-05
0.004983
3.1021e-08
7.8118e-05
0.0048934
0.00011611
0.004723
0.00015223
0.0044724
0.00018575
0.0041461
0.0002161
0.0037487
0.00024265
0.0032877
0.00026439
0.0027718
0.00028482
0.0021989
0.00028377
0.001655
0.00030188
0.00089975
0.00077583
0.00032067
3.8767e-05
0.0049442
3.6465e-08
7.7619e-05
0.0048545
0.00011537
0.0046852
0.00015126
0.0044366
0.00018456
0.0041128
0.00021471
0.0037185
0.00024111
0.0032613
0.00026244
0.0027505
0.00028351
0.0021778
0.00028205
0.0016564
0.00029551
0.00088629
0.00074804
0.00032331
3.8516e-05
0.0049056
4.1848e-08
7.7123e-05
0.0048159
0.00011463
0.0046477
0.0001503
0.0044009
0.00018338
0.0040797
0.00021333
0.0036886
0.00023959
0.0032351
0.00026049
0.0027296
0.00028213
0.0021562
0.00028102
0.0016575
0.00028981
0.0008775
0.0007165
0.00032135
3.8268e-05
0.0048673
4.7171e-08
7.663e-05
0.0047775
0.0001139
0.0046104
0.00014934
0.0043655
0.00018221
0.0040468
0.00021196
0.0036588
0.00023809
0.0032089
0.00025853
0.0027091
0.00028065
0.002134
0.0002805
0.0016577
0.00028503
0.00087297
0.00068465
0.00031687
3.802e-05
0.0048292
5.2435e-08
7.614e-05
0.0047394
0.00011318
0.0045734
0.00014839
0.0043302
0.00018105
0.0040141
0.0002106
0.0036293
0.00023661
0.0031829
0.00025658
0.0026892
0.00027905
0.0021116
0.00028033
0.0016564
0.00028126
0.00087205
0.00065458
0.00031133
3.7774e-05
0.0047914
5.764e-08
7.5653e-05
0.0047015
0.00011246
0.0045366
0.00014744
0.0042953
0.0001799
0.0039817
0.00020925
0.0035999
0.00023516
0.003157
0.00025465
0.0026697
0.00027732
0.0020889
0.00028035
0.0016534
0.00027847
0.00087393
0.00062741
0.00030564
3.753e-05
0.0047538
6.2788e-08
7.517e-05
0.0046639
0.00011174
0.0045
0.00014651
0.0042605
0.00017875
0.0039494
0.0002079
0.0035708
0.00023373
0.0031312
0.00025274
0.0026506
0.00027546
0.0020662
0.00028042
0.0016484
0.00027654
0.00087781
0.00060359
0.00030035
3.7288e-05
0.0047165
6.7879e-08
7.4689e-05
0.0046265
0.00011103
0.0044637
0.00014557
0.0042259
0.00017761
0.0039174
0.00020656
0.0035418
0.00023232
0.0031054
0.00025087
0.0026321
0.00027347
0.0020436
0.00028043
0.0016414
0.00027531
0.00088293
0.00058316
0.00029574
3.7046e-05
0.0046793
7.2915e-08
7.4212e-05
0.0045893
0.00011032
0.0044276
0.00014465
0.0041916
0.00017648
0.0038856
0.00020522
0.0035131
0.00023093
0.0030797
0.00024904
0.002614
0.00027137
0.0020212
0.0002803
0.0016325
0.00027462
0.00088861
0.00056588
0.0002919
3.6807e-05
0.0046425
7.7895e-08
7.3737e-05
0.0045524
0.00010962
0.0043917
0.00014373
0.0041575
0.00017536
0.0038539
0.0002039
0.0034845
0.00022956
0.0030541
0.00024726
0.0025963
0.00026919
0.0019993
0.00027998
0.0016217
0.0002743
0.00089428
0.00055136
0.00028882
3.6569e-05
0.0046058
8.2822e-08
7.3266e-05
0.0045157
0.00010892
0.004356
0.00014281
0.0041236
0.00017424
0.0038225
0.00020257
0.0034562
0.00022821
0.0030284
0.00024553
0.002579
0.00026693
0.0019779
0.00027943
0.0016092
0.00027422
0.0008995
0.00053916
0.00028642
3.6332e-05
0.0045694
8.7695e-08
7.2797e-05
0.0044792
0.00010822
0.0043206
0.0001419
0.0040899
0.00017314
0.0037913
0.00020126
0.0034281
0.00022687
0.0030028
0.00024386
0.002562
0.00026462
0.0019571
0.00027863
0.0015952
0.00027423
0.0009039
0.00052882
0.00028457
3.6097e-05
0.0045332
9.2517e-08
7.2332e-05
0.004443
0.00010753
0.0042854
0.000141
0.0040565
0.00017204
0.0037602
0.00019995
0.0034002
0.00022554
0.0029772
0.00024225
0.0025453
0.00026229
0.0019371
0.00027759
0.0015799
0.00027424
0.00090725
0.00051993
0.00028314
3.5864e-05
0.0044972
9.7286e-08
7.1869e-05
0.004407
0.00010685
0.0042504
0.0001401
0.0040232
0.00017095
0.0037294
0.00019864
0.0033725
0.00022422
0.0029517
0.00024071
0.0025288
0.00025995
0.0019179
0.00027632
0.0015636
0.00027417
0.0009094
0.00051209
0.00028201
3.5632e-05
0.0044615
1.0201e-07
7.141e-05
0.0043712
0.00010617
0.0042157
0.00013921
0.0039902
0.00016987
0.0036987
0.00019734
0.003345
0.00022291
0.0029261
0.00023922
0.0025125
0.00025763
0.0018994
0.00027482
0.0015464
0.00027396
0.00091026
0.00050499
0.00028106
3.5401e-05
0.004426
1.0667e-07
7.0953e-05
0.0043357
0.00010549
0.0041811
0.00013833
0.0039573
0.0001688
0.0036682
0.00019604
0.0033178
0.0002216
0.0029005
0.0002378
0.0024963
0.00025534
0.0018819
0.00027313
0.0015286
0.00027357
0.00090981
0.00049836
0.0002802
3.5172e-05
0.0043907
1.113e-07
7.0499e-05
0.0043003
0.00010482
0.0041468
0.00013744
0.0039247
0.00016773
0.003638
0.00019476
0.0032907
0.00022029
0.002875
0.00023644
0.0024801
0.0002531
0.0018653
0.00027127
0.0015104
0.00027299
0.0009081
0.00049199
0.00027936
3.4945e-05
0.0043556
1.1587e-07
7.0049e-05
0.0042652
0.00010415
0.0041127
0.00013657
0.0038923
0.00016667
0.0036079
0.00019347
0.0032639
0.00021899
0.0028495
0.00023513
0.002464
0.00025092
0.0018495
0.00026928
0.001492
0.0002722
0.00090518
0.00048572
0.00027847
3.4719e-05
0.0043208
1.2039e-07
6.9601e-05
0.0042304
0.00010349
0.0040788
0.0001357
0.0038601
0.00016562
0.0035779
0.0001922
0.0032374
0.00021768
0.002824
0.00023387
0.0024478
0.00024881
0.0018345
0.00026719
0.0014737
0.00027121
0.00090115
0.00047944
0.00027749
3.4494e-05
0.0042862
1.2487e-07
6.9156e-05
0.0041957
0.00010283
0.0040451
0.00013484
0.0038281
0.00016458
0.0035482
0.00019093
0.003211
0.00021637
0.0027986
0.00023266
0.0024315
0.00024679
0.0018204
0.00026501
0.0014554
0.00027003
0.00089614
0.00047307
0.0002764
3.4271e-05
0.0042518
1.293e-07
6.8714e-05
0.0041613
0.00010217
0.0040117
0.00013398
0.0037963
0.00016355
0.0035186
0.00018967
0.0031849
0.00021505
0.0027732
0.00023148
0.0024151
0.00024486
0.001807
0.00026279
0.0014375
0.00026868
0.00089025
0.00046657
0.00027518
3.4049e-05
0.0042176
1.3369e-07
6.8274e-05
0.004127
0.00010152
0.0039784
0.00013313
0.0037647
0.00016253
0.0034892
0.00018842
0.003159
0.00021373
0.0027479
0.00023034
0.0023985
0.00024302
0.0017943
0.00026055
0.00142
0.00026717
0.00088364
0.0004599
0.00027384
3.3829e-05
0.0041836
1.3803e-07
6.7838e-05
0.004093
0.00010088
0.0039454
0.00013228
0.0037333
0.00016151
0.00346
0.00018717
0.0031334
0.00021241
0.0027226
0.00022923
0.0023816
0.00024127
0.0017823
0.00025832
0.0014029
0.00026554
0.00087641
0.00045308
0.00027237
3.361e-05
0.0041499
1.4233e-07
6.7404e-05
0.0040592
0.00010024
0.0039126
0.00013144
0.0037021
0.0001605
0.0034309
0.00018594
0.0031079
0.00021107
0.0026975
0.00022814
0.0023646
0.00023962
0.0017708
0.00025611
0.0013864
0.00026382
0.00086871
0.0004461
0.00027079
3.3392e-05
0.0041164
1.4659e-07
6.6973e-05
0.0040256
9.9597e-05
0.0038799
0.0001306
0.0036711
0.0001595
0.003402
0.00018471
0.0030827
0.00020973
0.0026725
0.00022706
0.0023472
0.00023805
0.0017598
0.00025394
0.0013705
0.00026201
0.00086064
0.000439
0.00026911
3.3176e-05
0.004083
1.508e-07
6.6545e-05
0.0039923
9.8963e-05
0.0038475
0.00012977
0.0036403
0.00015851
0.0033733
0.00018349
0.0030577
0.00020838
0.0026476
0.00022599
0.0023296
0.00023658
0.0017492
0.00025183
0.0013553
0.00026015
0.00085232
0.0004318
0.00026735
3.2961e-05
0.0040499
1.5497e-07
6.612e-05
0.0039591
9.8334e-05
0.0038153
0.00012894
0.0036096
0.00015753
0.0033447
0.00018229
0.003033
0.00020702
0.0026229
0.00022492
0.0023117
0.00023519
0.001739
0.00024979
0.0013407
0.00025827
0.00084384
0.00042454
0.00026553
3.2748e-05
0.004017
1.5911e-07
6.5697e-05
0.0039262
9.7708e-05
0.0037833
0.00012812
0.0035792
0.00015655
0.0033163
0.00018109
0.0030084
0.00020566
0.0025983
0.00022385
0.0022935
0.00023387
0.0017289
0.00024783
0.0013267
0.00025637
0.0008353
0.00041725
0.00026367
3.2536e-05
0.0039843
1.632e-07
6.5277e-05
0.0038934
9.7087e-05
0.0037515
0.0001273
0.003549
0.00015558
0.003288
0.00017991
0.0029841
0.00020429
0.0025739
0.00022278
0.002275
0.00023262
0.0017191
0.00024595
0.0013134
0.00025449
0.00082676
0.00040996
0.00026178
3.2326e-05
0.0039518
1.6725e-07
6.486e-05
0.0038609
9.6469e-05
0.0037199
0.00012649
0.003519
0.00015462
0.0032599
0.00017874
0.00296
0.00020292
0.0025497
0.0002217
0.0022563
0.00023143
0.0017094
0.00024415
0.0013006
0.00025263
0.00081828
0.00040271
0.00025988
3.2117e-05
0.0039195
1.7126e-07
6.4445e-05
0.0038286
9.5856e-05
0.0036885
0.00012569
0.0034892
0.00015366
0.0032319
0.00017758
0.0029361
0.00020154
0.0025258
0.0002206
0.0022372
0.00023029
0.0016997
0.00024245
0.0012885
0.00025081
0.00080993
0.00039553
0.00025799
3.1909e-05
0.0038874
1.7524e-07
6.4033e-05
0.0037964
9.5247e-05
0.0036572
0.00012488
0.0034595
0.00015272
0.003204
0.00017643
0.0029123
0.00020016
0.0025021
0.00021948
0.0022179
0.00022919
0.00169
0.00024083
0.0012769
0.00024903
0.00080172
0.00038844
0.00025611
3.1702e-05
0.0038556
1.7917e-07
6.3624e-05
0.0037645
9.4642e-05
0.0036262
0.00012409
0.0034301
0.00015177
0.0031764
0.0001753
0.0028888
0.00019878
0.0024786
0.00021835
0.0021983
0.00022813
0.0016802
0.00023929
0.0012657
0.00024731
0.0007937
0.00038148
0.00025427
3.1497e-05
0.0038239
1.8307e-07
6.3217e-05
0.0037328
9.404e-05
0.0035954
0.00012329
0.0034008
0.00015084
0.0031488
0.00017418
0.0028655
0.0001974
0.0024554
0.0002172
0.0021785
0.0002271
0.0016703
0.00023782
0.001255
0.00024565
0.00078588
0.00037466
0.00025247
3.1293e-05
0.0037924
1.8694e-07
6.2813e-05
0.0037013
9.3443e-05
0.0035648
0.00012251
0.0033718
0.00014991
0.0031214
0.00017307
0.0028423
0.00019601
0.0024324
0.00021602
0.0021585
0.00022609
0.0016602
0.00023643
0.0012446
0.00024405
0.00077826
0.00036799
0.00025072
3.1091e-05
0.0037611
1.9077e-07
6.2412e-05
0.00367
9.285e-05
0.0035343
0.00012172
0.0033429
0.00014899
0.0030941
0.00017198
0.0028193
0.00019464
0.0024098
0.00021482
0.0021383
0.00022509
0.00165
0.00023511
0.0012346
0.00024251
0.00077086
0.00036149
0.00024901
3.089e-05
0.00373
1.9456e-07
6.2013e-05
0.0036388
9.2261e-05
0.0035041
0.00012095
0.0033142
0.00014807
0.003067
0.0001709
0.0027965
0.00019326
0.0023874
0.0002136
0.002118
0.00022409
0.0016395
0.00023384
0.0012249
0.00024104
0.00076367
0.00035516
0.00024736
3.069e-05
0.0036991
1.9832e-07
6.1617e-05
0.0036079
9.1675e-05
0.003474
0.00012017
0.0032857
0.00014716
0.00304
0.00016983
0.0027738
0.0001919
0.0023653
0.00021235
0.0020975
0.0002231
0.0016287
0.00023263
0.0012153
0.00023962
0.00075667
0.00034902
0.00024577
3.0491e-05
0.0036684
2.0204e-07
6.1224e-05
0.0035772
9.1094e-05
0.0034442
0.0001194
0.0032574
0.00014626
0.0030132
0.00016878
0.0027513
0.00019054
0.0023436
0.00021108
0.002077
0.0002221
0.0016177
0.00023145
0.001206
0.00023826
0.00074986
0.00034306
0.00024423
3.0294e-05
0.0036379
2.0574e-07
6.0832e-05
0.0035466
9.0516e-05
0.0034145
0.00011864
0.0032293
0.00014536
0.0029865
0.00016774
0.0027289
0.00018919
0.0023221
0.00020979
0.0020564
0.00022109
0.0016064
0.00023032
0.0011967
0.00023695
0.00074323
0.00033727
0.00024274
3.0098e-05
0.0036076
2.094e-07
6.0444e-05
0.0035163
8.9942e-05
0.003385
0.00011788
0.0032013
0.00014446
0.0029599
0.00016672
0.0027067
0.00018785
0.002301
0.00020848
0.0020358
0.00022006
0.0015948
0.00022921
0.0011876
0.00023569
0.00073674
0.00033167
0.0002413
2.9903e-05
0.0035775
2.1302e-07
6.0058e-05
0.0034861
8.9372e-05
0.0033557
0.00011713
0.0031736
0.00014357
0.0029334
0.0001657
0.0026845
0.00018652
0.0022802
0.00020715
0.0020151
0.00021901
0.001583
0.00022811
0.0011785
0.00023447
0.00073038
0.00032623
0.00023991
2.971e-05
0.0035476
2.1662e-07
5.9674e-05
0.0034562
8.8806e-05
0.0033265
0.00011638
0.003146
0.00014269
0.0029071
0.0001647
0.0026625
0.00018521
0.0022597
0.00020581
0.0019945
0.00021795
0.0015708
0.00022704
0.0011694
0.00023328
0.00072414
0.00032096
0.00023856
2.9517e-05
0.0035179
2.2018e-07
5.9293e-05
0.0034264
8.8244e-05
0.0032976
0.00011563
0.0031186
0.00014181
0.0028809
0.00016372
0.0026406
0.00018391
0.0022395
0.00020445
0.001974
0.00021686
0.0015584
0.00022597
0.0011603
0.00023212
0.00071798
0.00031584
0.00023724
2.9326e-05
0.0034883
2.2372e-07
5.8915e-05
0.0033968
8.7686e-05
0.0032688
0.00011489
0.0030914
0.00014093
0.0028549
0.00016274
0.0026188
0.00018262
0.0022196
0.00020307
0.0019535
0.00021575
0.0015457
0.0002249
0.0011511
0.00023099
0.00071189
0.00031086
0.00023596
2.9137e-05
0.0034589
2.2722e-07
5.8538e-05
0.0033674
8.7131e-05
0.0032402
0.00011415
0.0030644
0.00014006
0.002829
0.00016178
0.0025971
0.00018135
0.0022
0.00020169
0.0019332
0.00021461
0.0015328
0.00022383
0.0011419
0.00022986
0.00070585
0.00030602
0.0002347
2.8948e-05
0.0034298
2.307e-07
5.8165e-05
0.0033382
8.658e-05
0.0032118
0.00011342
0.0030376
0.00013919
0.0028032
0.00016082
0.0025754
0.0001801
0.0021807
0.0002003
0.001913
0.00021345
0.0015197
0.00022275
0.0011326
0.00022875
0.00069984
0.00030131
0.00023347
2.8761e-05
0.0034008
2.3415e-07
5.7793e-05
0.0033092
8.6033e-05
0.0031836
0.00011269
0.0030109
0.00013832
0.0027776
0.00015988
0.0025539
0.00017887
0.0021618
0.00019891
0.001893
0.00021226
0.0015063
0.00022165
0.0011232
0.00022765
0.00069385
0.00029671
0.00023225
2.8575e-05
0.003372
2.3757e-07
5.7424e-05
0.0032803
8.5489e-05
0.0031555
0.00011197
0.0029844
0.00013746
0.0027521
0.00015895
0.0025324
0.00017766
0.002143
0.00019751
0.0018731
0.00021105
0.0014928
0.00022055
0.0011137
0.00022654
0.00068786
0.00029221
0.00023104
2.839e-05
0.0033433
2.4096e-07
5.7058e-05
0.0032516
8.4949e-05
0.0031276
0.00011125
0.0029581
0.00013661
0.0027268
0.00015803
0.002511
0.00017646
0.0021246
0.00019611
0.0018535
0.00020981
0.0014791
0.00021942
0.0011041
0.00022543
0.00068185
0.0002878
0.00022983
2.8207e-05
0.0033149
2.4432e-07
5.6693e-05
0.0032232
8.4413e-05
0.0030999
0.00011054
0.002932
0.00013575
0.0027015
0.00015711
0.0024896
0.00017529
0.0021064
0.00019472
0.001834
0.00020855
0.0014653
0.00021828
0.0010944
0.00022431
0.00067582
0.00028348
0.00022863
2.8024e-05
0.0032866
2.4766e-07
5.6332e-05
0.0031948
8.388e-05
0.0030723
0.00010983
0.002906
0.0001349
0.0026765
0.00015621
0.0024683
0.00017413
0.0020885
0.00019333
0.0018148
0.00020727
0.0014513
0.00021711
0.0010846
0.00022318
0.00066975
0.00027923
0.00022743
2.7843e-05
0.0032585
2.5098e-07
5.5972e-05
0.0031667
8.3351e-05
0.003045
0.00010913
0.0028802
0.00013405
0.0026516
0.00015531
0.002447
0.000173
0.0020708
0.00019194
0.0017959
0.00020598
0.0014373
0.00021593
0.0010746
0.00022204
0.00066364
0.00027505
0.00022622
2.7663e-05
0.0032306
2.5426e-07
5.5615e-05
0.0031388
8.2825e-05
0.0030178
0.00010843
0.0028546
0.00013321
0.0026268
0.00015442
0.0024258
0.00017189
0.0020534
0.00019057
0.0017772
0.00020467
0.0014232
0.00021472
0.0010646
0.00022088
0.00065748
0.00027093
0.000225
2.7484e-05
0.0032029
2.5753e-07
5.526e-05
0.003111
8.2303e-05
0.0029907
0.00010774
0.0028292
0.00013237
0.0026022
0.00015354
0.0024046
0.00017079
0.0020361
0.0001892
0.0017588
0.00020334
0.001409
0.00021349
0.0010544
0.0002197
0.00065127
0.00026685
0.00022378
2.7306e-05
0.0031753
2.6076e-07
5.4907e-05
0.0030834
8.1785e-05
0.0029638
0.00010705
0.0028039
0.00013153
0.0025777
0.00015267
0.0023835
0.00016972
0.0020191
0.00018785
0.0017407
0.00020201
0.0013949
0.00021225
0.0010442
0.00021851
0.00064501
0.00026283
0.00022254
2.713e-05
0.0031479
2.6398e-07
5.4557e-05
0.003056
8.127e-05
0.0029371
0.00010636
0.0027788
0.00013069
0.0025533
0.00015179
0.0023624
0.00016866
0.0020022
0.00018652
0.0017228
0.00020067
0.0013807
0.00021098
0.0010339
0.0002173
0.00063869
0.00025884
0.00022129
2.6954e-05
0.0031207
2.6717e-07
5.4209e-05
0.0030287
8.0758e-05
0.0029106
0.00010568
0.0027539
0.00012986
0.0025292
0.00015093
0.0023413
0.00016762
0.0019855
0.0001852
0.0017052
0.00019932
0.0013666
0.0002097
0.0010235
0.00021607
0.00063232
0.00025488
0.00022002
2.678e-05
0.0030936
2.7034e-07
5.3863e-05
0.0030016
8.025e-05
0.0028842
0.00010501
0.0027292
0.00012903
0.0025052
0.00015007
0.0023203
0.0001666
0.001969
0.0001839
0.0016879
0.00019797
0.0013525
0.0002084
0.001013
0.00021482
0.00062591
0.00025096
0.00021874
2.6607e-05
0.0030667
2.7348e-07
5.3519e-05
0.0029747
7.9745e-05
0.002858
0.00010434
0.0027046
0.0001282
0.0024813
0.00014921
0.0022993
0.0001656
0.0019526
0.00018261
0.0016709
0.00019661
0.0013385
0.00020709
0.0010026
0.00021356
0.00061944
0.00024707
0.00021745
2.6435e-05
0.00304
2.7661e-07
5.3178e-05
0.002948
7.9244e-05
0.0028319
0.00010367
0.0026801
0.00012738
0.0024576
0.00014836
0.0022783
0.00016462
0.0019363
0.00018135
0.0016542
0.00019526
0.0013246
0.00020576
0.00099207
0.00021227
0.00061293
0.0002432
0.00021614
2.6264e-05
0.0030135
2.7971e-07
5.2838e-05
0.0029214
7.8746e-05
0.002806
0.00010301
0.0026559
0.00012656
0.002434
0.00014751
0.0022574
0.00016365
0.0019202
0.00018011
0.0016377
0.00019392
0.0013108
0.00020443
0.00098155
0.00021098
0.00060638
0.00023935
0.00021482
2.6094e-05
0.0029871
2.8279e-07
5.2501e-05
0.002895
7.8251e-05
0.0027802
0.00010236
0.0026318
0.00012574
0.0024107
0.00014666
0.0022365
0.0001627
0.0019041
0.00017888
0.0016215
0.00019258
0.0012971
0.00020309
0.00097104
0.00020967
0.0005998
0.00023553
0.00021349
2.5926e-05
0.0029609
2.8585e-07
5.2166e-05
0.0028688
7.776e-05
0.0027546
0.00010171
0.0026078
0.00012493
0.0023874
0.00014581
0.0022156
0.00016176
0.0018882
0.00017768
0.0016056
0.00019125
0.0012835
0.00020175
0.00096055
0.00020835
0.0005932
0.00023173
0.00021215
2.5758e-05
0.0029348
2.889e-07
5.1834e-05
0.0028427
7.7272e-05
0.0027292
0.00010106
0.002584
0.00012412
0.0023644
0.00014497
0.0021947
0.00016083
0.0018723
0.0001765
0.0015899
0.00018993
0.0012701
0.0002004
0.00095008
0.00020703
0.00058657
0.00022795
0.00021081
2.5592e-05
0.002909
2.9192e-07
5.1503e-05
0.0028168
7.6787e-05
0.0027039
0.00010042
0.0025604
0.00012331
0.0023415
0.00014412
0.0021739
0.00015992
0.0018565
0.00017535
0.0015745
0.00018863
0.0012568
0.00019906
0.00093964
0.00020569
0.00057994
0.0002242
0.00020945
2.5426e-05
0.0028832
2.9492e-07
5.1174e-05
0.002791
7.6305e-05
0.0026788
9.9786e-05
0.0025369
0.00012251
0.0023188
0.00014328
0.0021531
0.00015902
0.0018408
0.00017421
0.0015593
0.00018734
0.0012437
0.00019772
0.00092927
0.00020435
0.0005733
0.00022046
0.00020809
2.5262e-05
0.0028577
2.9791e-07
5.0848e-05
0.0027654
7.5826e-05
0.0026538
9.9155e-05
0.0025136
0.00012171
0.0022962
0.00014244
0.0021324
0.00015813
0.0018251
0.00017309
0.0015444
0.00018606
0.0012307
0.00019638
0.00091895
0.00020301
0.00056666
0.00021675
0.00020672
2.5099e-05
0.0028323
3.0087e-07
5.0524e-05
0.00274
7.535e-05
0.002629
9.8529e-05
0.0024904
0.00012091
0.0022738
0.0001416
0.0021117
0.00015725
0.0018095
0.000172
0.0015296
0.0001848
0.0012179
0.00019505
0.0009087
0.00020167
0.00056004
0.00021306
0.00020536
2.4936e-05
0.002807
3.0382e-07
5.0201e-05
0.0027147
7.4878e-05
0.0026043
9.7907e-05
0.0024674
0.00012012
0.0022516
0.00014076
0.0020911
0.00015637
0.0017939
0.00017093
0.0015151
0.00018356
0.0012053
0.00019372
0.00089854
0.00020033
0.00055343
0.0002094
0.00020399
2.4775e-05
0.002782
3.0675e-07
4.9881e-05
0.0026896
7.4408e-05
0.0025798
9.7291e-05
0.0024445
0.00011933
0.0022296
0.00013992
0.0020705
0.00015551
0.0017783
0.00016987
0.0015007
0.00018234
0.0011928
0.00019241
0.00088846
0.000199
0.00054684
0.00020577
0.00020263
2.4615e-05
0.002757
3.0967e-07
4.9563e-05
0.0026647
7.3942e-05
0.0025554
9.6679e-05
0.0024217
0.00011855
0.0022077
0.00013908
0.0020499
0.00015465
0.0017627
0.00016884
0.0014865
0.00018113
0.0011805
0.00019111
0.00087848
0.00019767
0.00054029
0.00020216
0.00020128
2.4456e-05
0.0027323
3.1257e-07
4.9247e-05
0.0026399
7.3478e-05
0.0025312
9.6072e-05
0.0023992
0.00011777
0.002186
0.00013824
0.0020295
0.0001538
0.0017472
0.00016782
0.0014725
0.00017995
0.0011684
0.00018983
0.00086861
0.00019635
0.00053377
0.00019858
0.00019992
2.4298e-05
0.0027077
3.1545e-07
4.8933e-05
0.0026153
7.3018e-05
0.0025071
9.547e-05
0.0023767
0.00011699
0.0021645
0.0001374
0.0020091
0.00015295
0.0017316
0.00016682
0.0014586
0.00017878
0.0011565
0.00018856
0.00085884
0.00019503
0.00052729
0.00019503
0.00019858
2.4141e-05
0.0026832
3.1832e-07
4.8621e-05
0.0025908
7.256e-05
0.0024831
9.4872e-05
0.0023544
0.00011622
0.0021431
0.00013656
0.0019887
0.00015211
0.0017161
0.00016584
0.0014449
0.00017764
0.0011447
0.0001873
0.00084918
0.00019373
0.00052086
0.00019152
0.00019725
2.3985e-05
0.0026589
3.2117e-07
4.8311e-05
0.0025665
7.2106e-05
0.0024593
9.428e-05
0.0023322
0.00011546
0.002122
0.00013572
0.0019685
0.00015127
0.0017005
0.00016487
0.0014313
0.00017652
0.001133
0.00018606
0.00083963
0.00019244
0.00051447
0.00018804
0.00019592
2.383e-05
0.0026347
3.2401e-07
4.8002e-05
0.0025423
7.1654e-05
0.0024357
9.3692e-05
0.0023102
0.0001147
0.0021009
0.00013489
0.0019483
0.00015044
0.001685
0.00016392
0.0014178
0.00017541
0.0011215
0.00018484
0.0008302
0.00019117
0.00050815
0.0001846
0.00019461
2.3676e-05
0.0026107
3.2684e-07
4.7696e-05
0.0025183
7.1205e-05
0.0024122
9.3109e-05
0.0022883
0.00011394
0.0020801
0.00013405
0.0019282
0.00014961
0.0016694
0.00016298
0.0014044
0.00017432
0.0011102
0.00018364
0.00082088
0.00018991
0.00050188
0.00018119
0.00019332
2.3523e-05
0.0025869
3.2965e-07
4.7392e-05
0.0024944
7.0758e-05
0.0023888
9.253e-05
0.0022665
0.00011319
0.0020594
0.00013321
0.0019082
0.00014877
0.0016538
0.00016205
0.0013912
0.00017326
0.001099
0.00018245
0.00081168
0.00018866
0.00049567
0.00017782
0.00019203
2.3371e-05
0.0025632
3.3245e-07
4.709e-05
0.0024707
7.0315e-05
0.0023656
9.1956e-05
0.0022449
0.00011245
0.002039
0.00013237
0.0018882
0.00014794
0.0016383
0.00016113
0.001378
0.00017221
0.0010879
0.00018129
0.0008026
0.00018743
0.00048952
0.00017449
0.00019076
2.322e-05
0.0025396
3.3524e-07
4.679e-05
0.0024471
6.9874e-05
0.0023425
9.1386e-05
0.0022233
0.00011171
0.0020186
0.00013153
0.0018684
0.00014711
0.0016227
0.00016022
0.0013649
0.00017117
0.0010769
0.00018014
0.00079363
0.00018622
0.00048344
0.0001712
0.00018951
2.307e-05
0.0025162
3.3801e-07
4.6491e-05
0.0024237
6.9436e-05
0.0023196
9.0821e-05
0.002202
0.00011097
0.0019985
0.00013069
0.0018487
0.00014628
0.0016071
0.00015933
0.0013518
0.00017016
0.0010661
0.00017901
0.00078478
0.00018503
0.00047743
0.00016795
0.00018828
2.2921e-05
0.002493
3.4077e-07
4.6195e-05
0.0024004
6.9e-05
0.0022968
9.0261e-05
0.0021807
0.00011024
0.0019785
0.00012986
0.0018291
0.00014545
0.0015915
0.00015844
0.0013388
0.00016916
0.0010554
0.0001779
0.00077603
0.00018385
0.00047148
0.00016474
0.00018706
2.2773e-05
0.0024698
3.4353e-07
4.5901e-05
0.0023773
6.8567e-05
0.0022741
8.9705e-05
0.0021596
0.00010952
0.0019587
0.00012902
0.0018096
0.00014462
0.0015759
0.00015755
0.0013259
0.00016817
0.0010448
0.00017681
0.00076739
0.00018269
0.0004656
0.00016157
0.00018586
2.2626e-05
0.0024469
3.4627e-07
4.5608e-05
0.0023543
6.8137e-05
0.0022516
8.9153e-05
0.0021385
0.0001088
0.001939
0.00012819
0.0017902
0.00014379
0.0015603
0.00015668
0.001313
0.0001672
0.0010342
0.00017573
0.00075886
0.00018155
0.00045979
0.00015845
0.00018467
2.248e-05
0.002424
3.49e-07
4.5317e-05
0.0023315
6.771e-05
0.0022292
8.8605e-05
0.0021177
0.00010809
0.0019196
0.00012736
0.0017709
0.00014296
0.0015447
0.0001558
0.0013002
0.00016624
0.0010238
0.00017467
0.00075042
0.00018042
0.00045404
0.00015537
0.0001835
2.2334e-05
0.0024013
3.5172e-07
4.5028e-05
0.0023088
6.7284e-05
0.0022069
8.8062e-05
0.0020969
0.00010739
0.0019002
0.00012653
0.0017518
0.00014213
0.0015291
0.00015494
0.0012874
0.00016529
0.0010135
0.00017363
0.00074208
0.00017931
0.00044836
0.00015233
0.00018235
2.219e-05
0.0023788
3.5443e-07
4.4741e-05
0.0022862
6.6862e-05
0.0021848
8.7522e-05
0.0020762
0.00010669
0.0018811
0.0001257
0.0017328
0.00014129
0.0015135
0.00015407
0.0012746
0.00016435
0.0010032
0.0001726
0.00073383
0.00017822
0.00044275
0.00014933
0.00018121
2.2047e-05
0.0023564
3.5713e-07
4.4456e-05
0.0022638
6.6442e-05
0.0021628
8.6987e-05
0.0020557
0.000106
0.0018621
0.00012488
0.0017139
0.00014046
0.0014979
0.00015321
0.0012618
0.00016342
0.00099296
0.00017159
0.00072566
0.00017714
0.0004372
0.00014638
0.00018009
2.1904e-05
0.0023341
3.5983e-07
4.4173e-05
0.0022415
6.6024e-05
0.002141
8.6456e-05
0.0020352
0.00010531
0.0018432
0.00012406
0.0016951
0.00013962
0.0014824
0.00015235
0.0012491
0.0001625
0.00098281
0.00017059
0.00071758
0.00017608
0.00043171
0.00014346
0.00017899
2.1763e-05
0.002312
3.6251e-07
4.3892e-05
0.0022194
6.5609e-05
0.0021192
8.5929e-05
0.0020149
0.00010463
0.0018245
0.00012324
0.0016765
0.00013878
0.0014668
0.00015149
0.0012364
0.00016159
0.00097271
0.0001696
0.00070957
0.00017503
0.00042627
0.00014059
0.0001779
2.1622e-05
0.00229
3.6519e-07
4.3612e-05
0.0021974
6.5196e-05
0.0020977
8.5405e-05
0.0019947
0.00010395
0.001806
0.00012242
0.001658
0.00013794
0.0014513
0.00015063
0.0012237
0.00016068
0.00096266
0.00016862
0.00070164
0.00017399
0.0004209
0.00013776
0.00017682
2.1482e-05
0.0022682
3.6786e-07
4.3334e-05
0.0021756
6.4786e-05
0.0020762
8.4886e-05
0.0019746
0.00010329
0.0017876
0.00012161
0.0016397
0.0001371
0.0014358
0.00014978
0.001211
0.00015978
0.00095266
0.00016765
0.00069377
0.00017297
0.00041558
0.00013496
0.00017576
2.1344e-05
0.0022465
3.7053e-07
4.3058e-05
0.0021539
6.4378e-05
0.0020549
8.437e-05
0.0019546
0.00010262
0.0017693
0.00012081
0.0016215
0.00013626
0.0014204
0.00014892
0.0011984
0.00015888
0.00094269
0.00016669
0.00068596
0.00017196
0.00041031
0.00013221
0.00017471
2.1206e-05
0.0022249
3.7319e-07
4.2784e-05
0.0021323
6.3972e-05
0.0020337
8.3858e-05
0.0019347
0.00010197
0.0017512
0.00012
0.0016035
0.00013542
0.001405
0.00014806
0.0011857
0.00015799
0.00093276
0.00016574
0.00067821
0.00017095
0.00040509
0.00012949
0.00017367
2.1069e-05
0.0022034
3.7584e-07
4.2511e-05
0.0021108
6.3569e-05
0.0020126
8.3349e-05
0.001915
0.00010132
0.0017332
0.00011921
0.0015856
0.00013457
0.0013896
0.0001472
0.0011731
0.0001571
0.00092287
0.00016479
0.00067052
0.00016996
0.00039993
0.00012682
0.00017264
2.0932e-05
0.0021821
3.7849e-07
4.2241e-05
0.0020895
6.3168e-05
0.0019917
8.2844e-05
0.0018953
0.00010068
0.0017154
0.00011841
0.0015679
0.00013373
0.0013743
0.00014634
0.0011605
0.00015621
0.000913
0.00016386
0.00066288
0.00016898
0.0003948
0.00012417
0.00017162
2.0797e-05
0.0021609
3.8113e-07
4.1972e-05
0.0020684
6.2769e-05
0.0019709
8.2342e-05
0.0018757
0.00010004
0.0016977
0.00011763
0.0015503
0.00013289
0.001359
0.00014548
0.0011479
0.00015533
0.00090315
0.00016293
0.00065528
0.00016801
0.00038972
0.00012157
0.00017061
2.0663e-05
0.0021399
3.8377e-07
4.1705e-05
0.0020473
6.2373e-05
0.0019503
8.1844e-05
0.0018562
9.9411e-05
0.0016801
0.00011684
0.0015328
0.00013205
0.0013438
0.00014462
0.0011353
0.00015444
0.00089333
0.000162
0.00064773
0.00016704
0.00038468
0.00011899
0.00016961
2.0529e-05
0.002119
3.864e-07
4.1439e-05
0.0020264
6.1979e-05
0.0019297
8.1348e-05
0.0018369
9.8787e-05
0.0016627
0.00011607
0.0015156
0.00013121
0.0013287
0.00014376
0.0011228
0.00015356
0.00088353
0.00016108
0.00064021
0.00016608
0.00037968
0.00011645
0.00016862
2.0396e-05
0.0020982
3.8903e-07
4.1176e-05
0.0020056
6.1587e-05
0.0019093
8.0856e-05
0.0018176
9.8169e-05
0.0016454
0.0001153
0.0014984
0.00013037
0.0013136
0.0001429
0.0011102
0.00015268
0.00087375
0.00016016
0.00063273
0.00016512
0.00037471
0.00011394
0.00016763
2.0264e-05
0.0020775
3.9166e-07
4.0914e-05
0.001985
6.1197e-05
0.001889
8.0367e-05
0.0017984
9.7558e-05
0.0016282
0.00011453
0.0014815
0.00012953
0.0012986
0.00014203
0.0010977
0.0001518
0.00086399
0.00015924
0.00062529
0.00016417
0.00036978
0.00011146
0.00016665
2.0133e-05
0.002057
3.9428e-07
4.0654e-05
0.0019645
6.081e-05
0.0018689
7.9881e-05
0.0017794
9.6952e-05
0.0016111
0.00011377
0.0014646
0.00012869
0.0012837
0.00014117
0.0010852
0.00015091
0.00085425
0.00015833
0.00061788
0.00016322
0.00036488
0.00010901
0.00016567
2.0003e-05
0.0020366
3.9691e-07
4.0395e-05
0.0019441
6.0425e-05
0.0018488
7.9399e-05
0.0017604
9.6352e-05
0.0015942
0.00011302
0.001448
0.00012786
0.0012689
0.0001403
0.0010728
0.00015003
0.00084452
0.00015741
0.00061049
0.00016228
0.00036002
0.00010659
0.0001647
1.9874e-05
0.0020163
3.9953e-07
4.0138e-05
0.0019238
6.0042e-05
0.0018289
7.8918e-05
0.0017415
9.5758e-05
0.0015773
0.00011228
0.0014315
0.00012703
0.0012541
0.00013944
0.0010604
0.00014915
0.00083482
0.0001565
0.00060314
0.00016134
0.00035517
0.00010419
0.00016373
1.9745e-05
0.0019962
4.0215e-07
3.9883e-05
0.0019037
5.9661e-05
0.0018092
7.8441e-05
0.0017227
9.517e-05
0.0015606
0.00011154
0.0014151
0.0001262
0.0012394
0.00013857
0.001048
0.00014826
0.00082513
0.00015559
0.00059581
0.0001604
0.00035036
0.00010183
0.00016277
1.9617e-05
0.0019762
4.0477e-07
3.963e-05
0.0018836
5.9282e-05
0.0017895
7.7967e-05
0.001704
9.4587e-05
0.001544
0.00011081
0.0013989
0.00012538
0.0012249