/*--------------------------------*- C++ -*----------------------------------*\
  =========                 |
  \\      /  F ield         | OpenFOAM: The Open Source CFD Toolbox
   \\    /   O peration     | Website:  https://openfoam.org
    \\  /    A nd           | Version:  6.0
     \\/     M anipulation  |
\*---------------------------------------------------------------------------*/
FoamFile
{
    version     2.0;
    format      ascii;
    class       volVectorField;
    location    "8";
    object      U;
}
// * * * * * * * * * * * * * * * * * * * * * * * * * * * * * * * * * * * * * //

dimensions      [0 1 -1 0 0 0 0];

internalField   nonuniform List<vector> 
34500
(
(0.999993 -8.27706e-05 -4.67458e-17)
(0.999951 -0.000258083 -8.1831e-18)
(0.999932 -0.000277786 1.4242e-16)
(0.99992 -0.000128544 -1.07622e-16)
(0.999767 -3.60338e-05 3.35961e-17)
(0.999478 -0.000218494 -1.01963e-16)
(0.999165 -0.000631878 -1.01633e-16)
(0.998967 -0.00110077 8.75773e-17)
(0.998908 -0.00150892 1.07878e-16)
(0.998974 -0.00180614 -6.8694e-16)
(0.999112 -0.00201806 -1.04602e-15)
(0.999285 -0.00220415 1.27619e-16)
(0.999467 -0.00236104 4.36563e-16)
(0.999816 -0.00305393 -2.09168e-16)
(0.996328 -0.00583211 7.85824e-17)
(0.999965 -0.000311145 3.27402e-17)
(0.999975 -0.000526649 9.81627e-17)
(1.00004 -0.000247611 7.18402e-17)
(1.00004 0.0002259 -3.01887e-16)
(0.999666 0.000311237 -5.06373e-16)
(0.999049 -0.000271618 -5.51552e-17)
(0.998462 -0.00124618 2.57197e-16)
(0.998138 -0.00220413 -6.82388e-16)
(0.99809 -0.00294628 -1.79958e-16)
(0.998268 -0.0034241 6.85968e-16)
(0.998566 -0.0037019 1.26951e-15)
(0.998931 -0.00389214 -6.32546e-16)
(0.999212 -0.00393901 -9.89757e-16)
(1.00038 -0.00471767 -3.98649e-16)
(0.99675 -0.00675099 5.34888e-16)
(0.999928 -0.000403391 1.05641e-17)
(1.00003 -0.000469901 -1.23594e-16)
(1.00026 0.00011078 -1.25319e-16)
(1.00044 0.000809902 4.55107e-16)
(1.00018 0.000912045 -2.82722e-17)
(0.999614 0.00019897 -1.64173e-16)
(0.999038 -0.00092987 9.80495e-17)
(0.998704 -0.00197828 3.87308e-16)
(0.99864 -0.00273129 4.05528e-19)
(0.998799 -0.00315515 -3.95574e-16)
(0.999079 -0.00332249 -7.32074e-16)
(0.99944 -0.00335886 4.15781e-16)
(0.999581 -0.00320352 2.26063e-16)
(1.00099 -0.00368326 1.65913e-16)
(0.999046 -0.0041797 -2.4961e-16)
(0.999891 -0.000397722 -1.75133e-17)
(1.00005 -0.000274206 -9.09534e-18)
(1.00042 0.000504877 4.83873e-17)
(1.00082 0.0013055 -3.04884e-16)
(1.00079 0.00140955 3.72119e-16)
(1.0004 0.000677521 3.3085e-16)
(0.999926 -0.000450019 -4.01435e-16)
(0.999609 -0.00145683 -4.22191e-16)
(0.999509 -0.00213744 4.37501e-16)
(0.9996 -0.00247144 -4.7298e-16)
(0.999797 -0.00253496 -2.45485e-16)
(1.00008 -0.00246023 -3.87039e-16)
(1.00004 -0.00223964 5.45076e-16)
(1.00122 -0.00260667 -4.84832e-17)
(1.00021 -0.0029021 2.20121e-17)
(0.999858 -0.000353579 -1.72056e-17)
(1.00002 -7.25746e-05 1.54219e-16)
(1.00043 0.000793002 6.9714e-17)
(1.00098 0.0015768 1.69464e-16)
(1.00114 0.00162235 4.67057e-17)
(1.00094 0.000869739 -1.5843e-16)
(1.00058 -0.00023316 1.02916e-16)
(1.00029 -0.0011848 2.67704e-16)
(1.00017 -0.00179899 -4.1984e-16)
(1.00021 -0.00207321 -2.31979e-16)
(1.00033 -0.00208756 1.01095e-15)
(1.00053 -0.00198138 6.36922e-16)
(1.00037 -0.00181717 -2.91122e-16)
(1.00121 -0.00223295 5.9771e-16)
(1.00027 -0.00281225 -5.98632e-16)
(0.99983 -0.000297487 1.85245e-17)
(0.999942 9.18367e-05 -9.54005e-17)
(1.00034 0.000954764 -1.86731e-16)
(1.00093 0.00163428 -5.29193e-17)
(1.00123 0.00156835 1.09432e-16)
(1.00117 0.000774073 -1.09083e-16)
(1.00093 -0.000309095 1.48717e-16)
(1.0007 -0.00121379 1.31807e-16)
(1.00058 -0.00177749 2.92471e-16)
(1.00058 -0.00201803 -1.00839e-16)
(1.00065 -0.0020188 3.05202e-18)
(1.0008 -0.0019217 -3.90982e-16)
(1.00057 -0.00184715 1.84153e-17)
(1.00113 -0.0023421 -4.73616e-16)
(0.999981 -0.00307879 7.55062e-17)
(0.99981 -0.00024031 3.28701e-18)
(0.999856 0.000210528 -3.58517e-17)
(1.00019 0.00100829 -2.9171e-17)
(1.00078 0.00153243 1.75785e-16)
(1.00115 0.00132783 -2.20482e-16)
(1.00121 0.000481624 2.75881e-16)
(1.00107 -0.000584502 -6.21733e-16)
(1.00089 -0.00144704 -3.71732e-16)
(1.0008 -0.0019681 -1.52389e-16)
(1.00079 -0.002185 6.74644e-16)
(1.00083 -0.00218246 -7.71933e-16)
(1.00095 -0.00209848 2.99579e-16)
(1.00071 -0.00209128 4.59095e-16)
(1.00109 -0.00262896 -9.70325e-17)
(0.999744 -0.00334987 -1.23141e-16)
(0.999797 -0.000189032 1.52665e-17)
(0.999777 0.000281335 3.24961e-17)
(1.00004 0.00097461 2.50589e-17)
(1.00059 0.00132256 -1.50998e-16)
(1.001 0.000975577 3.29406e-16)
(1.00115 7.99417e-05 -1.40112e-16)
(1.00109 -0.000966318 2.02223e-16)
(1.00098 -0.00178646 -1.47322e-16)
(1.00091 -0.00226619 3.99991e-16)
(1.0009 -0.00245941 1.78837e-16)
(1.00094 -0.00245033 2.46135e-16)
(1.00105 -0.00236801 -5.67221e-17)
(1.00081 -0.00239204 -5.07965e-16)
(1.00108 -0.00293036 1.15181e-15)
(0.999658 -0.00356395 1.90088e-16)
(0.99979 -0.000148198 -1.13251e-17)
(0.999713 0.000305649 9.97165e-17)
(0.999905 0.000872724 1.51496e-16)
(1.00041 0.00104485 1.12188e-16)
(1.00085 0.000567323 -4.8982e-16)
(1.00105 -0.00036662 1.41386e-16)
(1.00107 -0.00138661 3.22373e-16)
(1.001 -0.0021613 7.77252e-16)
(1.00097 -0.00259808 -3.87805e-16)
(1.00097 -0.00276352 9.07672e-17)
(1.00101 -0.00274044 4.52073e-16)
(1.00111 -0.00264584 -3.25763e-16)
(1.0009 -0.00267017 -1.55244e-16)
(1.00111 -0.00317991 -3.85141e-16)
(0.999687 -0.00369706 8.55781e-17)
(0.999785 -0.000119819 4.11015e-17)
(0.999669 0.000288696 -9.04471e-17)
(0.999806 0.000720509 8.96263e-18)
(1.00027 0.000729772 -1.10516e-16)
(1.00071 0.00014189 4.12038e-16)
(1.00096 -0.00081533 7.99764e-17)
(1.00103 -0.00180153 2.72084e-16)
(1.00102 -0.00252716 -5.77054e-16)
(1.00101 -0.00291898 4.18792e-17)
(1.00103 -0.00305241 -7.90924e-17)
(1.00108 -0.00300842 -1.40322e-16)
(1.00118 -0.00289105 4.43651e-17)
(1.00098 -0.00289518 5.97162e-16)
(1.00116 -0.00336295 -8.14757e-16)
(0.999798 -0.00376717 -2.74746e-16)
(0.999779 -0.000104225 -2.64831e-17)
(0.999641 0.000237502 3.55455e-17)
(0.999741 0.000533498 -1.48399e-16)
(1.00017 0.00039931 2.51077e-16)
(1.00061 -0.000275797 -3.63179e-16)
(1.00089 -0.00124064 -3.0491e-16)
(1.00101 -0.00218615 -3.41084e-16)
(1.00103 -0.00285991 3.92661e-17)
(1.00105 -0.00320567 -8.20664e-17)
(1.00109 -0.00330422 -4.27756e-16)
(1.00114 -0.00323474 -7.2643e-16)
(1.00124 -0.00308846 2.87975e-16)
(1.00107 -0.00306102 -3.31087e-16)
(1.00122 -0.00348285 9.19111e-16)
(0.999945 -0.00377987 5.46161e-17)
(0.999769 -0.000100406 -2.48075e-17)
(0.999627 0.000159896 -1.05159e-16)
(0.999704 0.000325197 1.51746e-16)
(1.0001 6.90819e-05 -2.35269e-16)
(1.00054 -0.000670591 7.71712e-17)
(1.00084 -0.00162905 4.57121e-16)
(1.001 -0.0025286 5.58512e-17)
(1.00106 -0.00314921 -6.80557e-17)
(1.00111 -0.00344922 1.83091e-16)
(1.00116 -0.00351198 -1.58372e-16)
(1.00122 -0.00341501 -9.59939e-17)
(1.00131 -0.00323773 -6.72534e-17)
(1.00115 -0.00317414 -2.89819e-16)
(1.00129 -0.00355262 -6.29953e-16)
(1.00011 -0.0037602 1.25567e-17)
(0.999755 -0.000106678 -2.20027e-18)
(0.999621 6.34091e-05 1.41765e-16)
(0.999689 0.000106463 -2.23116e-16)
(1.00007 -0.000250459 8.39082e-17)
(1.00051 -0.00103454 -9.4244e-17)
(1.00083 -0.0019752 -1.55826e-16)
(1.00101 -0.00282563 -3.91892e-17)
(1.0011 -0.0033934 3.68254e-16)
(1.00116 -0.00364939 -6.36031e-16)
(1.00123 -0.00367711 4.23881e-16)
(1.00129 -0.0035528 2.22278e-16)
(1.00138 -0.00334504 1.85735e-16)
(1.00124 -0.00324484 7.56737e-16)
(1.00136 -0.00358459 7.40466e-16)
(1.00028 -0.00371341 5.58937e-16)
(0.999734 -0.000120997 8.39246e-18)
(0.999619 -4.4903e-05 5.33983e-17)
(0.999688 -0.000113804 1.77397e-16)
(1.00007 -0.000552359 5.61912e-17)
(1.0005 -0.00136403 1.71743e-16)
(1.00083 -0.00227854 1.69451e-16)
(1.00104 -0.00307871 -1.19402e-17)
(1.00114 -0.00359543 4.9813e-17)
(1.00123 -0.00381024 9.46612e-16)
(1.0013 -0.00380505 -1.14978e-16)
(1.00137 -0.00365499 5.47132e-16)
(1.00146 -0.00341913 -7.45759e-16)
(1.00132 -0.00328421 1.38606e-16)
(1.00144 -0.00359131 -1.36455e-15)
(1.00044 -0.00365822 -6.28521e-16)
(0.999707 -0.000141353 1.00502e-17)
(0.999618 -0.000159176 -1.18811e-16)
(0.999695 -0.00032902 1.56108e-16)
(1.00007 -0.000832559 -2.25689e-16)
(1.0005 -0.00165852 1.58041e-16)
(1.00084 -0.00254138 2.09984e-17)
(1.00107 -0.0032919 1.96919e-16)
(1.00119 -0.00376052 -2.6258e-16)
(1.00129 -0.00393772 -8.4736e-16)
(1.00137 -0.00390252 2.51701e-16)
(1.00145 -0.00372918 -5.65409e-16)
(1.00153 -0.00346826 1.13727e-16)
(1.0014 -0.00330139 -4.95158e-16)
(1.00151 -0.00358111 2.694e-16)
(1.00058 -0.00359395 -1.10689e-16)
(0.999672 -0.000165767 3.36163e-17)
(0.999614 -0.000274522 7.26151e-17)
(0.999703 -0.000534164 -3.62037e-16)
(1.00008 -0.00108878 2.90622e-16)
(1.00051 -0.00191898 -2.82225e-16)
(1.00086 -0.00276725 -3.76341e-16)
(1.0011 -0.00347007 -3.86729e-16)
(1.00125 -0.00389434 3.41105e-16)
(1.00135 -0.00403787 7.26255e-16)
(1.00145 -0.00397605 1.64767e-16)
(1.00153 -0.00378218 9.55923e-17)
(1.00161 -0.00349957 7.06615e-17)
(1.00148 -0.00330382 -7.4093e-16)
(1.00157 -0.00356123 6.52286e-17)
(1.00072 -0.00353291 6.4497e-16)
(0.999632 -0.000192546 -9.0682e-17)
(0.999606 -0.000387339 -9.33466e-17)
(0.99971 -0.000726057 3.4539e-17)
(1.00009 -0.00132039 -2.66482e-16)
(1.00052 -0.00214764 -1.81988e-17)
(1.00088 -0.00296034 4.8628e-16)
(1.00113 -0.00361842 5.55819e-17)
(1.00129 -0.00400248 3.0748e-16)
(1.00141 -0.00411644 -6.09286e-16)
(1.00151 -0.0040314 -3.12801e-16)
(1.0016 -0.00381986 4.49139e-16)
(1.00167 -0.00351865 -1.50694e-16)
(1.00155 -0.00329685 4.88892e-16)
(1.00164 -0.00353562 7.61021e-16)
(1.00084 -0.00347019 -6.08788e-17)
(0.999586 -0.000220243 2.84088e-17)
(0.999592 -0.000494889 1.159e-17)
(0.999711 -0.000902606 1.16688e-16)
(1.0001 -0.00152762 2.24401e-18)
(1.00053 -0.00234706 9.9707e-17)
(1.00089 -0.00312477 -2.92454e-16)
(1.00116 -0.00374166 6.04751e-16)
(1.00133 -0.00408988 -1.55011e-16)
(1.00147 -0.00417823 6.59662e-16)
(1.00158 -0.00407334 -3.45042e-16)
(1.00167 -0.00384677 -5.49103e-16)
(1.00174 -0.00352983 5.29923e-16)
(1.00162 -0.0032846 -8.94548e-16)
(1.0017 -0.00350821 -1.3231e-15)
(1.00095 -0.00341523 -3.35932e-16)
(0.999534 -0.00024778 3.16111e-18)
(0.999571 -0.000595489 1.97096e-17)
(0.999706 -0.00106301 -3.15341e-17)
(1.00011 -0.0017116 1.60133e-16)
(1.00053 -0.00252022 1.0986e-16)
(1.0009 -0.00326458 -4.31101e-17)
(1.00118 -0.00384417 -3.64494e-16)
(1.00137 -0.00416084 -3.51503e-16)
(1.00152 -0.0042273 -2.37528e-16)
(1.00163 -0.00410562 4.37696e-16)
(1.00173 -0.0038664 3.39053e-16)
(1.0018 -0.00353608 -4.98506e-16)
(1.00168 -0.00326956 1.10795e-15)
(1.00176 -0.00348025 1.39397e-15)
(1.00105 -0.00336107 4.71643e-17)
(0.999478 -0.000274308 3.61964e-17)
(0.999544 -0.000688053 -4.81445e-17)
(0.999693 -0.00120704 2.31834e-16)
(1.0001 -0.00187377 -4.61111e-17)
(1.00053 -0.00266993 -1.76188e-16)
(1.00091 -0.0033833 7.4756e-17)
(1.0012 -0.00392953 -1.3118e-16)
(1.0014 -0.00421876 2.9702e-16)
(1.00156 -0.0042667 7.8109e-17)
(1.00168 -0.00413101 5.46079e-17)
(1.00179 -0.00388117 -2.60116e-16)
(1.00186 -0.00353949 3.45187e-16)
(1.00174 -0.00325353 1.76212e-16)
(1.00181 -0.00345343 1.58223e-16)
(1.00115 -0.00331539 4.0146e-16)
(0.999418 -0.000299289 -1.86092e-17)
(0.99951 -0.000772229 2.75542e-17)
(0.999673 -0.00133532 -3.75912e-16)
(1.00009 -0.00201605 -2.40413e-16)
(1.00052 -0.00279914 3.32813e-16)
(1.0009 -0.00348424 -9.01494e-17)
(1.0012 -0.004001 5.2709e-16)
(1.00142 -0.00426656 -1.43006e-16)
(1.00159 -0.00429903 -7.52453e-18)
(1.00173 -0.00415168 -1.51672e-16)
(1.00184 -0.00389293 3.89468e-16)
(1.00191 -0.00354143 -2.45491e-16)
(1.00179 -0.00323748 -8.07357e-16)
(1.00187 -0.00342774 -1.92697e-16)
(1.00123 -0.00327029 -4.58196e-16)
(0.999355 -0.000322354 2.50662e-17)
(0.999469 -0.000847973 1.13937e-16)
(0.999646 -0.0014487 3.38959e-16)
(1.00007 -0.00214033 2.6292e-16)
(1.0005 -0.00291047 -3.23479e-17)
(1.00089 -0.00357022 -1.3184e-16)
(1.0012 -0.00406117 -5.83545e-16)
(1.00143 -0.00430652 -6.78096e-17)
(1.00162 -0.00432616 -3.46651e-16)
(1.00177 -0.00416921 1.12275e-16)
(1.00188 -0.00390297 -7.14106e-16)
(1.00196 -0.00354295 3.4437e-16)
(1.00184 -0.00322233 1.16359e-15)
(1.00192 -0.00340434 -9.0061e-16)
(1.00132 -0.00323351 5.34651e-16)
(0.999289 -0.000343367 -2.02094e-17)
(0.999423 -0.000915698 -1.60349e-16)
(0.999611 -0.00154849 -1.9406e-16)
(1.00004 -0.00224876 -9.67537e-17)
(1.00047 -0.00300651 -6.19343e-17)
(1.00087 -0.00364383 8.51149e-17)
(1.00119 -0.00411239 -3.26562e-17)
(1.00144 -0.0043406 -4.4823e-16)
(1.00164 -0.00434966 -1.31978e-16)
(1.0018 -0.00418482 -3.31351e-17)
(1.00193 -0.00391222 6.50118e-16)
(1.002 -0.00354461 1.08766e-16)
(1.00189 -0.00320827 -9.67504e-16)
(1.00197 -0.00338264 5.15293e-16)
(1.00139 -0.00319695 -1.03285e-16)
(0.999221 -0.00036227 1.82705e-17)
(0.999371 -0.000975889 9.43113e-17)
(0.999571 -0.00163593 9.34572e-17)
(1 -0.00234321 1.81711e-16)
(1.00044 -0.00308946 -9.90021e-17)
(1.00085 -0.00370717 -2.7901e-17)
(1.00118 -0.00415639 2.01456e-16)
(1.00144 -0.00437018 3.00981e-16)
(1.00166 -0.00437059 -2.18187e-17)
(1.00183 -0.00419929 -3.63261e-16)
(1.00196 -0.00392119 -2.79068e-16)
(1.00204 -0.00354677 -4.90548e-16)
(1.00194 -0.0031956 2.04702e-17)
(1.00202 -0.00336324 2.67076e-16)
(1.00147 -0.00316768 -1.6173e-16)
(0.999151 -0.000379161 -9.76325e-18)
(0.999315 -0.0010293 -5.58353e-17)
(0.999524 -0.00171254 1.42044e-16)
(0.999959 -0.00242568 1.49593e-17)
(1.0004 -0.00316148 -1.26146e-16)
(1.00082 -0.0037622 1.01743e-16)
(1.00116 -0.00419485 -4.85911e-17)
(1.00144 -0.00439657 2.77736e-16)
(1.00167 -0.00438991 5.12916e-16)
(1.00185 -0.00421329 7.95433e-17)
(1.002 -0.00393037 2.40958e-16)
(1.00208 -0.00354963 2.45085e-16)
(1.00198 -0.00318423 6.04364e-17)
(1.00207 -0.00334534 -5.49467e-16)
(1.00154 -0.00313778 1.33376e-16)
(0.999079 -0.000394146 1.30973e-17)
(0.999255 -0.00107663 1.17568e-17)
(0.999473 -0.00177964 -2.902e-16)
(0.999911 -0.00249784 -1.2671e-16)
(1.00035 -0.00322431 1.78246e-16)
(1.00078 -0.0038105 -2.78413e-17)
(1.00114 -0.00422901 1.86351e-16)
(1.00143 -0.00442069 -2.47372e-16)
(1.00167 -0.0044083 1.4112e-16)
(1.00187 -0.0042273 1.17183e-16)
(1.00203 -0.00394007 1.2379e-16)
(1.00212 -0.00355346 1.57338e-16)
(1.00203 -0.00317449 2.18749e-16)
(1.00211 -0.00332981 3.08168e-17)
(1.00161 -0.00311466 7.86008e-17)
(0.999005 -0.00040743 -4.02849e-17)
(0.99919 -0.00111869 1.06588e-16)
(0.999417 -0.00183864 1.66709e-16)
(0.999859 -0.00256143 -1.06703e-16)
(1.0003 -0.0032797 -6.93802e-17)
(1.00074 -0.00385355 3.95157e-17)
(1.00111 -0.00426007 -2.02956e-16)
(1.00142 -0.00444343 -1.32874e-16)
(1.00168 -0.0044264 -1.74332e-16)
(1.00189 -0.00424175 2.77162e-16)
(1.00206 -0.00395055 -3.84207e-16)
(1.00216 -0.00355832 3.00132e-16)
(1.00207 -0.00316619 1.47016e-16)
(1.00216 -0.00331586 5.5203e-16)
(1.00168 -0.00309013 -5.05209e-16)
(0.99893 -0.000419179 1.70057e-17)
(0.999123 -0.00115617 -8.02298e-17)
(0.999358 -0.00189071 5.87779e-17)
(0.999802 -0.00261776 1.29882e-16)
(1.00025 -0.00332895 -9.01084e-17)
(1.0007 -0.00389244 -1.52329e-16)
(1.00108 -0.00428881 -7.21235e-17)
(1.00141 -0.00446534 9.9366e-17)
(1.00168 -0.00444453 -4.54571e-16)
(1.0019 -0.00425679 6.71515e-17)
(1.00209 -0.0039619 2.55459e-16)
(1.00219 -0.00356421 -7.13647e-16)
(1.00211 -0.00315944 1.44225e-16)
(1.0022 -0.00330379 2.23093e-17)
(1.00175 -0.00307219 3.72899e-16)
(0.998853 -0.00042963 -6.46538e-18)
(0.999053 -0.00118983 9.84135e-17)
(0.999295 -0.00193706 -9.49941e-17)
(0.999741 -0.00266823 -5.89632e-17)
(1.00019 -0.0033734 -9.41701e-17)
(1.00065 -0.00392825 -4.98537e-17)
(1.00105 -0.00431611 -1.07398e-16)
(1.00139 -0.00448703 7.66526e-17)
(1.00168 -0.00446315 2.93397e-17)
(1.00192 -0.00427272 -3.14661e-16)
(1.00211 -0.00397427 -3.75244e-16)
(1.00223 -0.00357117 4.16045e-16)
(1.00215 -0.00315404 -3.63222e-16)
(1.00225 -0.00329287 -1.15911e-16)
(1.00182 -0.00305171 -1.13384e-17)
(0.998776 -0.000438951 -1.95779e-17)
(0.99898 -0.00122025 -4.54381e-17)
(0.999229 -0.00197862 3.21313e-17)
(0.999678 -0.00271386 2.2884e-16)
(1.00014 -0.00341401 3.82175e-16)
(1.0006 -0.00396178 3.12133e-16)
(1.00101 -0.00434251 3.41136e-16)
(1.00137 -0.00450887 -2.1763e-16)
(1.00168 -0.00448249 -5.61594e-20)
(1.00193 -0.00428969 2.35846e-16)
(1.00214 -0.0039878 4.63329e-17)
(1.00226 -0.00357933 2.55889e-16)
(1.00219 -0.0031503 2.05597e-16)
(1.00229 -0.00328397 -5.4048e-16)
(1.00189 -0.00303734 -3.54782e-16)
(0.998697 -0.000447361 1.00715e-17)
(0.998905 -0.00124807 -8.22082e-17)
(0.999161 -0.00201639 -1.6444e-16)
(0.999612 -0.00275573 -1.61328e-16)
(1.00007 -0.0034518 1.49297e-17)
(1.00055 -0.00399384 -1.76287e-16)
(1.00097 -0.00436867 -3.83946e-16)
(1.00135 -0.00453134 2.93018e-16)
(1.00167 -0.00450289 2.38154e-16)
(1.00194 -0.00430791 -5.25032e-16)
(1.00216 -0.00400259 4.30453e-16)
(1.00229 -0.0035887 -3.13551e-16)
(1.00223 -0.00314794 -1.44554e-16)
(1.00234 -0.00327627 -1.26975e-16)
(1.00195 -0.00302068 1.51013e-16)
(0.998618 -0.000454998 3.83704e-17)
(0.998828 -0.00127372 1.76457e-17)
(0.999091 -0.00205103 8.89551e-17)
(0.999544 -0.00279458 4.13815e-17)
(1.00001 -0.00348743 4.8755e-17)
(1.00049 -0.00402493 3.05151e-16)
(1.00093 -0.00439488 -1.37994e-16)
(1.00132 -0.00455459 1.50737e-16)
(1.00166 -0.0045244 8.64581e-17)
(1.00195 -0.0043274 6.00865e-17)
(1.00219 -0.00401862 2.00689e-16)
(1.00233 -0.00359927 -4.27296e-17)
(1.00227 -0.00314708 9.49273e-18)
(1.00238 -0.00327035 8.85159e-16)
(1.00202 -0.0030101 2.79709e-18)
(0.998538 -0.000462053 -3.72488e-17)
(0.99875 -0.00129772 -1.287e-17)
(0.99902 -0.00208332 5.8212e-17)
(0.999474 -0.0028312 -1.77455e-16)
(0.999948 -0.00352162 -2.84295e-16)
(1.00044 -0.00405563 -2.72477e-16)
(1.00089 -0.00442162 2.30859e-16)
(1.0013 -0.00457897 -8.43422e-17)
(1.00166 -0.00454728 9.86886e-18)
(1.00196 -0.00434831 -5.22063e-18)
(1.00221 -0.00403599 -2.76877e-16)
(1.00236 -0.00361103 -2.50339e-16)
(1.00231 -0.00314748 -1.61424e-16)
(1.00243 -0.00326542 2.4794e-17)
(1.00208 -0.0029969 -5.53894e-17)
(0.998457 -0.000468627 -1.86099e-17)
(0.99867 -0.00132038 4.92529e-17)
(0.998946 -0.00211374 4.84917e-17)
(0.999403 -0.0028661 7.88545e-17)
(0.999882 -0.00355485 1.07911e-16)
(1.00038 -0.0040863 1.70551e-18)
(1.00085 -0.00444909 2.30995e-16)
(1.00128 -0.00460461 -5.1498e-16)
(1.00165 -0.00457162 2.62566e-16)
(1.00197 -0.00437073 2.67465e-16)
(1.00223 -0.00405477 -3.8247e-16)
(1.00239 -0.00362413 7.14016e-16)
(1.00235 -0.00314946 3.75859e-16)
(1.00247 -0.00326241 -7.02559e-16)
(1.00215 -0.00299 -2.09044e-16)
(0.998375 -0.000474872 3.84855e-17)
(0.998588 -0.0013421 2.99128e-17)
(0.998871 -0.00214286 4.71676e-18)
(0.99933 -0.00289991 -3.53739e-17)
(0.999816 -0.00358766 2.05655e-17)
(1.00033 -0.00411738 2.89789e-16)
(1.00081 -0.00447765 -4.66351e-17)
(1.00125 -0.00463177 3.3053e-16)
(1.00164 -0.0045976 -4.87452e-17)
(1.00197 -0.00439477 -2.96112e-16)
(1.00225 -0.00407505 6.12225e-16)
(1.00243 -0.00363855 -3.6705e-16)
(1.00239 -0.00315275 -4.9705e-16)
(1.00252 -0.00326044 2.10717e-16)
(1.00221 -0.00298046 3.51913e-16)
(0.998293 -0.000480852 -3.20184e-17)
(0.998506 -0.00136307 -1.34767e-17)
(0.998795 -0.00217099 -1.76089e-16)
(0.999257 -0.00293292 -8.61134e-17)
(0.999749 -0.00362033 5.309e-17)
(1.00027 -0.00414903 -2.92557e-16)
(1.00077 -0.00450738 -8.59982e-17)
(1.00123 -0.00466046 2.88376e-16)
(1.00163 -0.00462521 -2.43619e-16)
(1.00198 -0.00442038 7.12881e-17)
(1.00228 -0.00409677 -3.40898e-16)
(1.00246 -0.00365427 1.07577e-17)
(1.00243 -0.00315751 2.69092e-16)
(1.00256 -0.00326015 1.42128e-16)
(1.00228 -0.00297704 -5.53196e-17)
(0.99821 -0.000486692 3.05541e-17)
(0.998422 -0.00138358 -9.91696e-17)
(0.998717 -0.00219858 8.32587e-17)
(0.999182 -0.00296559 5.44737e-17)
(0.999681 -0.00365325 -4.10559e-17)
(1.00021 -0.00418158 -1.75924e-16)
(1.00072 -0.00453855 5.33542e-17)
(1.0012 -0.00469089 -1.32118e-16)
(1.00163 -0.0046546 -2.22889e-16)
(1.00199 -0.00444769 -2.79585e-17)
(1.0023 -0.00412001 -4.93111e-16)
(1.00249 -0.00367128 5.04454e-16)
(1.00247 -0.00316347 3.91912e-17)
(1.00261 -0.00326071 -8.10583e-17)
(1.00234 -0.00297056 -7.88781e-18)
(0.998126 -0.000492427 -3.74945e-17)
(0.998337 -0.00140378 1.0214e-16)
(0.998639 -0.00222581 -2.34687e-17)
(0.999106 -0.00299812 -2.1396e-16)
(0.999613 -0.0036866 -1.01918e-16)
(1.00016 -0.00421515 1.18398e-16)
(1.00068 -0.00457121 -1.73838e-16)
(1.00117 -0.00472307 -1.94627e-16)
(1.00162 -0.0046858 3.31097e-16)
(1.002 -0.00447671 1.15031e-16)
(1.00232 -0.00414484 5.17565e-16)
(1.00253 -0.00368973 -3.88894e-16)
(1.00251 -0.00317102 1.39842e-16)
(1.00266 -0.00326314 -1.57893e-16)
(1.00241 -0.0029704 5.2533e-18)
(0.998041 -0.000498155 2.32089e-17)
(0.998251 -0.00142387 -5.91183e-17)
(0.998559 -0.00225301 7.34951e-17)
(0.99903 -0.00303086 3.18785e-16)
(0.999544 -0.0037207 1.35392e-16)
(1.0001 -0.00425001 8.39947e-17)
(1.00064 -0.00460558 3.45493e-16)
(1.00115 -0.00475718 1.64152e-16)
(1.00161 -0.00471894 -2.70163e-16)
(1.002 -0.00450756 4.6005e-16)
(1.00234 -0.00417131 2.55767e-16)
(1.00256 -0.00370959 -2.16162e-16)
(1.00255 -0.00317985 -4.13501e-16)
(1.0027 -0.00326653 -1.61227e-16)
(1.00247 -0.0029672 6.21334e-17)
(0.997955 -0.000503887 4.7682e-18)
(0.998164 -0.00144393 -1.26063e-16)
(0.998479 -0.00228028 -9.35697e-17)
(0.998953 -0.0030639 -2.19701e-16)
(0.999475 -0.0037556 3.53807e-17)
(1.00004 -0.00428615 -3.4142e-16)
(1.00059 -0.00464162 -3.66925e-16)
(1.00112 -0.00479316 -1.47528e-16)
(1.0016 -0.00475394 3.14202e-16)
(1.00201 -0.00454016 -3.33416e-16)
(1.00236 -0.00419935 1.1808e-16)
(1.00259 -0.00373086 2.18963e-16)
(1.0026 -0.00319013 3.32228e-16)
(1.00275 -0.0032716 2.03348e-16)
(1.00254 -0.0029702 1.72819e-17)
(0.997868 -0.000509703 3.35381e-17)
(0.998076 -0.00146411 2.06075e-16)
(0.998397 -0.00230787 9.59791e-17)
(0.998875 -0.00309749 1.8447e-16)
(0.999405 -0.00379155 1.10724e-16)
(0.999981 -0.00432379 4.64702e-17)
(1.00055 -0.00467951 5.37484e-17)
(1.00109 -0.00483116 -1.23609e-16)
(1.00159 -0.00479093 -1.25161e-16)
(1.00202 -0.00457461 1.46583e-17)
(1.00239 -0.00422902 -8.05446e-16)
(1.00263 -0.00375352 -3.14359e-16)
(1.00264 -0.0032016 3.30611e-16)
(1.0028 -0.00327746 -7.39544e-17)
(1.0026 -0.00296981 -2.04399e-16)
(0.997781 -0.0005156 -4.50806e-17)
(0.997988 -0.00148445 -1.3212e-16)
(0.998315 -0.00233584 -1.89886e-16)
(0.998797 -0.0031317 6.24333e-17)
(0.999335 -0.00382858 -2.09859e-16)
(0.999923 -0.00436295 3.89753e-17)
(1.00051 -0.00471923 -4.84762e-17)
(1.00107 -0.00487115 -8.91793e-18)
(1.00158 -0.00482989 -1.49732e-16)
(1.00203 -0.00461092 -7.84717e-17)
(1.00241 -0.00426039 2.76254e-17)
(1.00267 -0.00377772 2.73187e-16)
(1.00268 -0.00321466 -1.3748e-16)
(1.00285 -0.00328523 2.72608e-16)
(1.00267 -0.00297591 9.61681e-17)
(0.997692 -0.000521641 2.41074e-17)
(0.997898 -0.00150509 1.26638e-16)
(0.998231 -0.00236436 2.41351e-16)
(0.998718 -0.00316673 -6.97517e-17)
(0.999264 -0.00386689 -1.69046e-17)
(0.999864 -0.00440379 2.56451e-16)
(1.00046 -0.00476095 2.18103e-16)
(1.00104 -0.00491328 -1.49521e-16)
(1.00157 -0.00487096 4.00038e-16)
(1.00204 -0.00464919 3.62624e-16)
(1.00243 -0.0042935 3.8519e-16)
(1.0027 -0.00380342 -1.76957e-17)
(1.00273 -0.00322902 -3.05189e-16)
(1.0029 -0.00329388 -3.21528e-16)
(1.00274 -0.00297868 -3.09499e-17)
(0.997603 -0.000527809 -2.06633e-17)
(0.997807 -0.00152601 -6.6885e-17)
(0.998147 -0.00239346 -2.00141e-16)
(0.998638 -0.00320258 1.28928e-16)
(0.999194 -0.00390645 1.23796e-16)
(0.999805 -0.00444626 -1.71896e-16)
(1.00042 -0.00480457 -8.67246e-17)
(1.00101 -0.00495744 8.399e-18)
(1.00156 -0.00491403 -1.77728e-16)
(1.00204 -0.00468932 -3.10764e-16)
(1.00246 -0.0043283 -5.73101e-16)
(1.00274 -0.00383062 6.19328e-17)
(1.00277 -0.00324487 3.72975e-16)
(1.00295 -0.00330424 3.38685e-16)
(1.00281 -0.00298787 -7.11816e-17)
(0.997513 -0.000534162 -1.64572e-17)
(0.997716 -0.00154733 -1.34632e-17)
(0.998062 -0.00242327 1.75247e-16)
(0.998558 -0.00323942 -1.65422e-16)
(0.999122 -0.00394744 -3.27116e-16)
(0.999746 -0.00449051 1.58758e-16)
(1.00037 -0.00485025 9.0141e-17)
(1.00099 -0.00500376 4.17037e-16)
(1.00156 -0.00495921 5.96963e-17)
(1.00205 -0.0047314 2.89626e-16)
(1.00248 -0.00436483 8.5907e-16)
(1.00278 -0.00385926 -2.3544e-16)
(1.00282 -0.00326192 -9.9754e-17)
(1.003 -0.00331532 -1.17279e-17)
(1.00288 -0.00299338 -2.83944e-17)
(0.997421 -0.000540675 4.60294e-17)
(0.997623 -0.00156903 5.03354e-17)
(0.997976 -0.0024538 -1.5079e-16)
(0.998477 -0.00327723 1.40211e-16)
(0.999051 -0.00398982 -9.45292e-17)
(0.999686 -0.00453651 -3.04119e-16)
(1.00033 -0.00489794 1.3426e-17)
(1.00096 -0.00505219 -3.58312e-17)
(1.00155 -0.0050065 -2.21089e-16)
(1.00206 -0.00477545 1.86458e-16)
(1.00251 -0.00440317 -8.02317e-16)
(1.00282 -0.00388954 -1.46138e-17)
(1.00286 -0.00328064 -1.78478e-16)
(1.00306 -0.00332835 3.35566e-17)
(1.00295 -0.00300561 -8.40803e-17)
(0.997329 -0.000547398 -1.17439e-17)
(0.99753 -0.00159121 -1.19786e-17)
(0.997889 -0.00248517 2.08543e-17)
(0.998395 -0.00331618 -1.55958e-16)
(0.998978 -0.00403375 -2.81845e-17)
(0.999627 -0.00458441 3.71388e-16)
(1.00029 -0.00494779 -2.70709e-16)
(1.00094 -0.00510289 -3.35192e-16)
(1.00154 -0.005056 3.58696e-16)
(1.00207 -0.00482155 -3.23982e-16)
(1.00254 -0.00444335 4.09767e-16)
(1.00286 -0.0039214 3.87497e-16)
(1.00291 -0.00330065 2.78998e-16)
(1.00311 -0.00334225 -1.86018e-16)
(1.00302 -0.00301424 -6.3415e-17)
(0.997235 -0.000554298 -1.26764e-17)
(0.997435 -0.00161382 -7.36504e-17)
(0.9978 -0.00251735 -9.93168e-17)
(0.998312 -0.0033562 7.29182e-17)
(0.998906 -0.00407917 1.84794e-16)
(0.999567 -0.00463411 6.49428e-17)
(1.00024 -0.00499969 2.51719e-16)
(1.00091 -0.00515572 5.48642e-17)
(1.00153 -0.00510761 -4.71695e-16)
(1.00208 -0.00486962 1.6506e-16)
(1.00256 -0.0044853 -2.32961e-16)
(1.0029 -0.00395484 -1.93147e-16)
(1.00296 -0.0033222 -2.60097e-16)
(1.00316 -0.00335792 4.12732e-17)
(1.0031 -0.00302952 1.52818e-16)
(0.99714 -0.000561424 -1.94731e-17)
(0.99734 -0.00163697 3.50844e-17)
(0.997711 -0.00255045 4.2355e-17)
(0.998229 -0.00339745 -1.46257e-16)
(0.998833 -0.00412621 7.13673e-17)
(0.999507 -0.00468577 -2.16718e-16)
(1.0002 -0.00505377 -2.64929e-17)
(1.00088 -0.00521083 3.25785e-16)
(1.00153 -0.00516144 -2.07794e-16)
(1.00209 -0.00491975 -2.74139e-16)
(1.00259 -0.00452907 2.35262e-16)
(1.00294 -0.00398982 -6.97138e-17)
(1.00301 -0.00334496 -7.37737e-16)
(1.00322 -0.0033743 7.5532e-17)
(1.00317 -0.00304085 1.0991e-16)
(0.997044 -0.000568742 -1.00361e-17)
(0.997243 -0.00166061 3.4255e-17)
(0.997621 -0.00258443 1.28707e-17)
(0.998145 -0.00343986 1.94466e-17)
(0.998759 -0.00417482 1.23327e-16)
(0.999446 -0.00473932 6.8513e-17)
(1.00016 -0.00510997 -2.25763e-16)
(1.00086 -0.00526817 -2.05204e-17)
(1.00152 -0.00521746 6.2233e-16)
(1.00211 -0.00497196 -1.99473e-16)
(1.00262 -0.00457474 -5.83051e-18)
(1.00298 -0.00402655 2.94947e-17)
(1.00306 -0.00336943 2.80472e-17)
(1.00328 -0.00339273 -5.2214e-17)
(1.00325 -0.00305921 1.73468e-17)
(0.996947 -0.000576295 2.64224e-17)
(0.997146 -0.00168482 -6.98995e-17)
(0.99753 -0.0026194 -8.00015e-17)
(0.998061 -0.0034836 9.98867e-20)
(0.998685 -0.00422514 -1.86314e-16)
(0.999386 -0.00479492 -2.97813e-17)
(1.00011 -0.00516845 4.37707e-17)
(1.00083 -0.00532787 -4.9576e-17)
(1.00151 -0.0052758 -4.21544e-16)
(1.00212 -0.00502633 5.60857e-16)
(1.00265 -0.00462235 -3.19584e-17)
(1.00302 -0.00406493 -5.84423e-17)
(1.00311 -0.00339524 3.44274e-16)
(1.00334 -0.00341197 -3.87511e-16)
(1.00333 -0.0030737 8.13324e-18)
(0.996849 -0.000584046 2.80408e-18)
(0.997047 -0.00170957 8.38944e-17)
(0.997438 -0.00265531 2.25725e-16)
(0.997975 -0.00352857 -5.7061e-17)
(0.99861 -0.00427709 1.21138e-16)
(0.999325 -0.00485245 -1.88433e-16)
(1.00007 -0.00522909 -2.25691e-16)
(1.00081 -0.00538982 5.46613e-18)
(1.00151 -0.00533636 2.45617e-16)
(1.00213 -0.00508277 -4.89694e-16)
(1.00268 -0.00467184 1.21916e-16)
(1.00307 -0.00410498 -2.11353e-17)
(1.00317 -0.00342266 2.66239e-16)
(1.00339 -0.00343305 8.24008e-17)
(1.00341 -0.00309513 -1.28286e-16)
(0.996749 -0.000592038 1.07788e-18)
(0.996947 -0.00173491 -9.10989e-17)
(0.997345 -0.00269225 -1.28916e-16)
(0.997889 -0.00357491 2.12735e-17)
(0.998535 -0.00433081 -2.25159e-17)
(0.999264 -0.00491206 1.70974e-16)
(1.00002 -0.00529203 3.70432e-16)
(1.00078 -0.00545414 -3.28582e-16)
(1.0015 -0.00539925 3.73594e-16)
(1.00214 -0.00514136 3.29141e-17)
(1.00271 -0.00472325 7.3207e-17)
(1.00311 -0.00414665 -1.41063e-16)
(1.00322 -0.00345133 2.72186e-16)
(1.00346 -0.00345479 1.5457e-16)
(1.00349 -0.00311235 2.01311e-16)
(0.996649 -0.000600236 -8.82777e-18)
(0.996847 -0.00176083 8.69388e-17)
(0.99725 -0.00273017 1.58887e-16)
(0.997802 -0.00362256 5.4892e-17)
(0.998459 -0.00438622 1.60918e-16)
(0.999202 -0.00497369 1.23595e-16)
(0.999979 -0.00535722 -3.33082e-16)
(1.00076 -0.00552079 6.66885e-16)
(1.0015 -0.00546446 -2.09336e-16)
(1.00216 -0.00520215 -6.97257e-17)
(1.00274 -0.00477669 -2.51787e-16)
(1.00316 -0.00419016 -1.10584e-16)
(1.00328 -0.00348182 -3.02979e-16)
(1.00352 -0.00347867 -1.12035e-16)
(1.00357 -0.0031369 4.85147e-17)
(0.996546 -0.000608681 -3.13665e-17)
(0.996745 -0.00178739 -9.30272e-17)
(0.997155 -0.0027692 -1.10984e-17)
(0.997714 -0.00367165 1.09378e-16)
(0.998383 -0.00444349 -1.46435e-16)
(0.99914 -0.00503748 -1.07609e-16)
(0.999935 -0.00542481 4.16889e-16)
(1.00073 -0.00558993 -1.24226e-16)
(1.00149 -0.00553211 -5.31351e-16)
(1.00217 -0.00526521 7.29798e-17)
(1.00277 -0.00483217 -1.28006e-16)
(1.00321 -0.00423541 2.36385e-16)
(1.00333 -0.00351366 3.78525e-16)
(1.00358 -0.00350335 3.38033e-16)
(1.00365 -0.00315728 -2.82463e-16)
(0.996443 -0.000617337 1.86335e-18)
(0.996641 -0.00181454 -1.79852e-17)
(0.997058 -0.00280924 -7.44025e-17)
(0.997625 -0.00372211 4.64893e-17)
(0.998306 -0.00450251 -8.13013e-17)
(0.999078 -0.00510334 1.38712e-16)
(0.999891 -0.00549468 -1.19868e-16)
(1.00071 -0.00566142 4.13544e-17)
(1.00149 -0.00560209 -1.11663e-16)
(1.00219 -0.00533046 2.83293e-16)
(1.0028 -0.00488965 3.4618e-16)
(1.00325 -0.00428244 2.01148e-18)
(1.00339 -0.0035472 -6.0268e-16)
(1.00365 -0.00352998 -4.1134e-16)
(1.00374 -0.00318492 2.79708e-16)
(0.996338 -0.000626244 4.20326e-17)
(0.996537 -0.00184236 7.59652e-17)
(0.996961 -0.0028504 -8.45442e-17)
(0.997535 -0.00377405 -1.3293e-16)
(0.998228 -0.00456341 1.26147e-16)
(0.999015 -0.0051714 -1.20043e-16)
(0.999847 -0.00556697 -1.04737e-16)
(1.00068 -0.00573542 -5.64367e-16)