1.45 	0 	0 	-0.308064
2.35 	0 	0 	-0.126018
