1.275 	2.15223e-18 	-2.76991e-20 	-0.0343381 	-0.000449607 	-1.94578e-22
1.825 	2.15223e-18 	-1.39322e-20 	-0.00923887 	-0.00277838 	1.73394e-21
2.375 	2.15223e-18 	-2.66896e-23 	0.115945 	-0.00325682 	-7.237e-22
