1.275 	2.15223e-18 	-2.76991e-20 	-0.0344309 	-0.00043619 	-1.92024e-22
1.825 	2.15223e-18 	-1.39322e-20 	-0.00940577 	-0.00276377 	1.70072e-21
2.375 	2.15223e-18 	-2.66896e-23 	0.115473 	-0.0032551 	-7.09544e-22
