/*--------------------------------*- C++ -*----------------------------------*\
  =========                 |
  \\      /  F ield         | OpenFOAM: The Open Source CFD Toolbox
   \\    /   O peration     | Website:  https://openfoam.org
    \\  /    A nd           | Version:  6.0
     \\/     M anipulation  |
\*---------------------------------------------------------------------------*/
FoamFile
{
    version     2.0;
    format      ascii;
    class       volVectorField;
    location    "197";
    object      U;
}
// * * * * * * * * * * * * * * * * * * * * * * * * * * * * * * * * * * * * * //

dimensions      [0 1 -1 0 0 0 0];

internalField   nonuniform List<vector> 
34500
(
(0.999996 7.701e-06 -4.63302e-17)
(0.99997 -5.33551e-06 -8.1352e-18)
(0.99992 -3.09537e-05 1.42214e-16)
(0.999852 -7.4704e-05 -1.07654e-16)
(0.999777 -0.000140267 3.35505e-17)
(0.999704 -0.000226957 -1.01465e-16)
(0.999644 -0.000331702 -1.00982e-16)
(0.999604 -0.000448501 8.65439e-17)
(0.999587 -0.00057195 1.07246e-16)
(0.999596 -0.000697229 -6.83009e-16)
(0.999629 -0.000818352 -1.04018e-15)
(0.999681 -0.00095396 1.26805e-16)
(0.99975 -0.00107168 4.34025e-16)
(0.99999 -0.0013789 -2.07369e-16)
(0.996826 -0.00317453 7.70822e-17)
(0.999992 2.2793e-05 3.24462e-17)
(0.999943 -8.219e-06 9.76318e-17)
(0.999854 -6.16957e-05 7.17505e-17)
(0.999734 -0.00014688 -3.02173e-16)
(0.999602 -0.000270534 -5.0583e-16)
(0.999477 -0.000430628 -5.50361e-17)
(0.999376 -0.000620747 2.55494e-16)
(0.999311 -0.000830066 -6.77197e-16)
(0.99929 -0.00104765 -1.78611e-16)
(0.999316 -0.00126494 6.81336e-16)
(0.999386 -0.00146752 1.26187e-15)
(0.999492 -0.00168817 -6.28989e-16)
(0.999591 -0.00186041 -9.84026e-16)
(1.00018 -0.00225538 -3.95003e-16)
(0.99673 -0.00409232 5.25309e-16)
(0.999989 3.76634e-05 1.04674e-17)
(0.999945 -6.50689e-06 -1.2291e-16)
(0.999869 -7.04523e-05 -1.25156e-16)
(0.999768 -0.000160609 4.55613e-16)
(0.999659 -0.000282929 -2.86115e-17)
(0.999558 -0.000434264 -1.63993e-16)
(0.99948 -0.000607791 9.78043e-17)
(0.999436 -0.000794007 3.84517e-16)
(0.999431 -0.000982496 2.42171e-19)
(0.999468 -0.00116694 -3.92837e-16)
(0.99954 -0.00133177 -7.27757e-16)
(0.999653 -0.00150873 4.13517e-16)
(0.999692 -0.00164197 2.24729e-16)
(1.00036 -0.00191229 1.64502e-16)
(0.99805 -0.00283074 -2.46219e-16)
(0.999985 5.21015e-05 -1.73545e-17)
(0.999948 -5.63681e-06 -9.02326e-18)
(0.999887 -7.99248e-05 4.83169e-17)
(0.999808 -0.000174198 -3.05347e-16)
(0.999724 -0.000293565 3.72165e-16)
(0.999649 -0.0004344 3.29865e-16)
(0.999594 -0.000590167 -3.99379e-16)
(0.999569 -0.000753504 -4.19797e-16)
(0.999576 -0.000915379 4.34835e-16)
(0.999618 -0.00107274 -4.70327e-16)
(0.999687 -0.00121141 -2.4431e-16)
(0.999798 -0.00136306 -3.85147e-16)
(0.999781 -0.0014952 5.42091e-16)
(1.00037 -0.00170786 -4.80431e-17)
(0.998768 -0.00244959 2.16377e-17)
(0.999979 6.64616e-05 -1.70432e-17)
(0.999943 -5.95546e-06 1.53309e-16)
(0.999885 -9.46174e-05 6.95489e-17)
(0.999811 -0.000201494 1.69734e-16)
(0.999735 -0.000331622 4.6738e-17)
(0.999667 -0.000481225 -1.58213e-16)
(0.99962 -0.000643522 1.02501e-16)
(0.999602 -0.000811994 2.66233e-16)
(0.999616 -0.000977271 -4.17552e-16)
(0.999664 -0.00113794 -2.309e-16)
(0.999737 -0.00127966 1.00611e-15)
(0.999858 -0.00143438 6.33943e-16)
(0.99982 -0.00158473 -2.89592e-16)
(1.0003 -0.00177573 5.92643e-16)
(0.99911 -0.00246062 -5.91565e-16)
(0.999972 8.10334e-05 1.83517e-17)
(0.999934 -6.10407e-06 -9.4806e-17)
(0.999876 -0.000110011 -1.86326e-16)
(0.999804 -0.000231561 -5.2931e-17)
(0.999731 -0.000375685 1.09416e-16)
(0.999666 -0.000538431 -1.08823e-16)
(0.999624 -0.000712549 1.48146e-16)
(0.999612 -0.000891658 1.3116e-16)
(0.999633 -0.00106532 2.9094e-16)
(0.99969 -0.00123256 -1.00227e-16)
(0.99977 -0.00137801 2.88068e-18)
(0.999907 -0.00153127 -3.89128e-16)
(0.999871 -0.00168504 1.83115e-17)
(1.00024 -0.00184062 -4.69277e-16)
(0.999349 -0.0023518 7.46381e-17)
(0.999963 9.58608e-05 3.25541e-18)
(0.999925 -5.6675e-06 -3.55861e-17)
(0.999869 -0.000123955 -2.90175e-17)
(0.999802 -0.000258483 1.75726e-16)
(0.999735 -0.00041369 -2.20431e-16)
(0.999679 -0.00058544 2.75418e-16)
(0.999645 -0.00076625 -6.19148e-16)
(0.999642 -0.000950007 -3.69784e-16)
(0.999672 -0.00112555 -1.51568e-16)
(0.999739 -0.00129221 6.71207e-16)
(0.999826 -0.00143421 -7.68127e-16)
(0.999974 -0.00157714 2.98016e-16)
(0.999948 -0.00172447 4.56258e-16)
(1.00022 -0.00184109 -9.59766e-17)
(0.999529 -0.00220567 -1.21482e-16)
(0.999953 0.000110948 1.5116e-17)
(0.999915 -4.87238e-06 3.22848e-17)
(0.999863 -0.000137113 2.50268e-17)
(0.999803 -0.000283782 -1.50854e-16)
(0.999744 -0.000448587 3.28836e-16)
(0.999697 -0.000627244 -1.39576e-16)
(0.999674 -0.000812283 2.01517e-16)
(0.999681 -0.000998017 -1.46253e-16)
(0.999721 -0.00117299 3.97521e-16)
(0.999796 -0.00133687 1.77734e-16)
(0.999889 -0.00147413 2.44738e-16)
(1.00005 -0.00160606 -5.65129e-17)
(1.00004 -0.00174684 -5.04786e-16)
(1.00024 -0.00183355 1.13996e-15)
(0.999677 -0.00210547 1.876e-16)
(0.999942 0.000126335 -1.12156e-17)
(0.999903 -3.84483e-06 9.89482e-17)
(0.999855 -0.000150168 1.50786e-16)
(0.9998 -0.000309326 1.11909e-16)
(0.99975 -0.000484202 -4.88627e-16)
(0.999713 -0.000670339 1.40953e-16)
(0.9997 -0.00086032 3.20684e-16)
(0.999716 -0.00104881 7.72427e-16)
(0.999766 -0.00122421 -3.85382e-16)
(0.999851 -0.00138629 9.00449e-17)
(0.999949 -0.00152009 4.4909e-16)
(1.00011 -0.00164237 -3.23789e-16)
(1.00012 -0.00177602 -1.54123e-16)
(1.00027 -0.00183861 -3.81448e-16)
(0.999819 -0.00203333 8.44879e-17)
(0.999929 0.000142078 4.06839e-17)
(0.99989 -2.51264e-06 -8.973e-17)
(0.999844 -0.000163027 8.85198e-18)
(0.999795 -0.000335039 -1.10171e-16)
(0.999752 -0.000520541 4.10607e-16)
(0.999724 -0.000714827 7.96052e-17)
(0.999721 -0.000910438 2.70228e-16)
(0.999748 -0.00110225 -5.73063e-16)
(0.999807 -0.00127857 4.15887e-17)
(0.999902 -0.00143908 -7.86877e-17)
(1.00001 -0.00156947 -1.39685e-16)
(1.00018 -0.001682 4.41436e-17)
(1.00021 -0.00180604 5.92708e-16)
(1.00032 -0.0018465 -8.05769e-16)
(0.999961 -0.00197175 -2.70784e-16)
(0.999916 0.000158195 -2.62207e-17)
(0.999876 -7.99386e-07 3.52471e-17)
(0.999833 -0.000175433 -1.47516e-16)
(0.999788 -0.000360306 2.49936e-16)
(0.999753 -0.000556491 -3.61556e-16)
(0.999734 -0.000758964 -3.03073e-16)
(0.999742 -0.000960132 -3.38855e-16)
(0.999779 -0.00115497 3.91155e-17)
(0.999849 -0.00133178 -8.14183e-17)
(0.999954 -0.00149012 -4.24561e-16)
(1.00007 -0.00161653 -7.21295e-16)
(1.00024 -0.00171906 2.85942e-16)
(1.00029 -0.00183201 -3.28661e-16)
(1.00039 -0.00185295 9.08775e-16)
(1.0001 -0.0019217 5.39903e-17)
(0.9999 0.000174682 -2.45524e-17)
(0.999861 1.30527e-06 -1.04225e-16)
(0.99982 -0.000187311 1.50727e-16)
(0.999781 -0.000384925 -2.34151e-16)
(0.999753 -0.000591722 7.68702e-17)
(0.999744 -0.000802356 4.54201e-16)
(0.999762 -0.001009 5.53979e-17)
(0.999811 -0.00120667 -6.73565e-17)
(0.999892 -0.00138371 1.81575e-16)
(1.00001 -0.00153961 -1.56947e-16)
(1.00013 -0.00166199 -9.51096e-17)
(1.00031 -0.00175511 -6.68154e-17)
(1.00038 -0.0018569 -2.87429e-16)
(1.00046 -0.00186164 -6.22639e-16)
(1.00023 -0.00188525 1.24741e-17)
(0.999884 0.000191513 -2.17643e-18)
(0.999844 3.76974e-06 1.40485e-16)
(0.999806 -0.000198732 -2.21506e-16)
(0.999773 -0.000409014 8.34065e-17)
(0.999753 -0.000626478 -9.3566e-17)
(0.999753 -0.000845479 -1.54769e-16)
(0.999782 -0.0010579 -3.88987e-17)
(0.999842 -0.00125869 3.65109e-16)
(0.999933 -0.00143626 -6.30396e-16)
(1.00006 -0.00158998 4.20404e-16)
(1.00019 -0.00170875 2.20608e-16)
(1.00037 -0.00179338 1.84194e-16)
(1.00046 -0.00188412 7.5034e-16)
(1.00054 -0.00187485 7.31571e-16)
(1.00036 -0.00185988 5.51167e-16)
(0.999865 0.000208657 8.30243e-18)
(0.999826 6.55767e-06 5.28723e-17)
(0.999791 -0.000209769 1.76055e-16)
(0.999763 -0.000432696 5.577e-17)
(0.999751 -0.000660956 1.70649e-16)
(0.99976 -0.000888659 1.68072e-16)
(0.999799 -0.00110734 -1.1849e-17)
(0.99987 -0.0013118 4.93064e-17)
(0.999973 -0.00149045 9.37975e-16)
(1.00011 -0.00164248 -1.13953e-16)
(1.00025 -0.00175801 5.42454e-16)
(1.00043 -0.00183484 -7.39583e-16)
(1.00054 -0.00191416 1.37149e-16)
(1.00062 -0.00189158 -1.34765e-15)
(1.00048 -0.00184196 -6.19259e-16)
(0.999846 0.000226073 9.93876e-18)
(0.999807 9.62847e-06 -1.17672e-16)
(0.999775 -0.000220496 1.54784e-16)
(0.999753 -0.000456056 -2.24104e-16)
(0.999748 -0.000695221 1.56846e-16)
(0.999766 -0.000931902 2.07215e-17)
(0.999815 -0.00115727 1.95048e-16)
(0.999898 -0.00136588 -2.60063e-16)
(1.00001 -0.0015461 -8.39285e-16)
(1.00016 -0.00169677 2.49368e-16)
(1.00031 -0.0018092 -5.60505e-16)
(1.0005 -0.00187846 1.12908e-16)
(1.00061 -0.00194569 -4.90872e-16)
(1.0007 -0.00190968 2.66261e-16)
(1.0006 -0.00182859 -1.08983e-16)
(0.999825 0.000243719 3.3235e-17)
(0.999786 1.29416e-05 7.18806e-17)
(0.999758 -0.000230971 -3.58939e-16)
(0.999741 -0.000479161 2.88383e-16)
(0.999743 -0.000729295 -2.79971e-16)
(0.999771 -0.000975109 -3.73008e-16)
(0.99983 -0.00120741 -3.82993e-16)
(0.999923 -0.00142045 3.37671e-16)
(1.00005 -0.00160249 7.19081e-16)
(1.0002 -0.00175194 1.63088e-16)
(1.00036 -0.00186113 9.47597e-17)
(1.00056 -0.00192278 7.01413e-17)
(1.00069 -0.0019772 -7.33896e-16)
(1.00078 -0.00192756 6.45336e-17)
(1.00072 -0.00181831 6.35347e-16)
(0.999803 0.000261551 -8.96503e-17)
(0.999764 1.64526e-05 -9.23886e-17)
(0.999739 -0.000241269 3.42834e-17)
(0.999727 -0.000502104 -2.64339e-16)
(0.999738 -0.000763247 -1.79674e-17)
(0.999774 -0.00101824 4.81695e-16)
(0.999844 -0.00125753 5.5079e-17)
(0.999948 -0.00147506 3.04147e-16)
(1.00008 -0.00165897 -6.03034e-16)
(1.00025 -0.0018071 -3.09786e-16)
(1.00042 -0.00191276 4.44843e-16)
(1.00062 -0.00196667 -1.49186e-16)
(1.00076 -0.00200785 4.8432e-16)
(1.00086 -0.00194468 7.51126e-16)
(1.00083 -0.00181086 -6.00769e-17)
(0.99978 0.000279528 2.80853e-17)
(0.999741 2.01226e-05 1.14744e-17)
(0.999718 -0.000251446 1.15614e-16)
(0.999712 -0.00052497 2.25878e-18)
(0.999731 -0.000797163 9.88656e-17)
(0.999777 -0.00106133 -2.89656e-16)
(0.999857 -0.00130757 5.98317e-16)
(0.999973 -0.00152949 -1.53511e-16)
(1.00012 -0.00171514 6.52653e-16)
(1.0003 -0.0018618 -3.41459e-16)
(1.00048 -0.00196363 -5.4376e-16)
(1.00069 -0.00200975 5.24919e-16)
(1.00084 -0.00203766 -8.85415e-16)
(1.00095 -0.00196151 -1.30512e-15)
(1.00095 -0.00180681 -3.30808e-16)
(0.999755 0.000297612 3.12702e-18)
(0.999716 2.39136e-05 1.94967e-17)
(0.999697 -0.000261556 -3.12134e-17)
(0.999696 -0.000547843 1.58664e-16)
(0.999722 -0.000831154 1.08826e-16)
(0.999778 -0.00110449 -4.26746e-17)
(0.99987 -0.0013576 -3.60643e-16)
(0.999997 -0.00158377 -3.47669e-16)
(1.00015 -0.00177101 -2.35012e-16)
(1.00035 -0.00191605 4.33106e-16)
(1.00054 -0.00201387 3.3563e-16)
(1.00075 -0.00205236 -4.93566e-16)
(1.00092 -0.00206734 1.09683e-15)
(1.00103 -0.00197906 1.37516e-15)
(1.00105 -0.00180676 4.65309e-17)
(0.999729 0.000315772 3.57567e-17)
(0.99969 2.77948e-05 -4.75934e-17)
(0.999673 -0.000271635 2.29423e-16)
(0.999678 -0.000570782 -4.56939e-17)
(0.999712 -0.000865318 -1.74403e-16)
(0.999779 -0.00114787 7.39396e-17)
(0.999881 -0.00140784 -1.29722e-16)
(1.00002 -0.00163817 2.93543e-16)
(1.00019 -0.00182691 7.71681e-17)
(1.00039 -0.00197032 5.39496e-17)
(1.0006 -0.0020641 -2.57406e-16)
(1.00082 -0.0020953 3.41747e-16)
(1.00099 -0.00209792 1.74257e-16)
(1.00111 -0.00199837 1.55788e-16)
(1.00116 -0.00181091 3.95193e-16)
(0.999702 0.00033398 -1.8382e-17)
(0.999663 3.17345e-05 2.72446e-17)
(0.999648 -0.00028172 -3.71894e-16)
(0.999659 -0.00059384 -2.37939e-16)
(0.999701 -0.00089975 3.29322e-16)
(0.999777 -0.00119165 -8.91565e-17)
(0.999891 -0.00145854 5.20821e-16)
(1.00004 -0.00169306 -1.41406e-16)
(1.00022 -0.00188335 -7.51044e-18)
(1.00044 -0.00202522 -1.50015e-16)
(1.00065 -0.00211511 3.85239e-16)
(1.00088 -0.00213943 -2.4286e-16)
(1.00107 -0.00213023 -7.98614e-16)
(1.0012 -0.00202002 -1.90176e-16)
(1.00126 -0.00181881 -4.51365e-16)
(0.999674 0.000352214 2.47449e-17)
(0.999634 3.57072e-05 1.12561e-16)
(0.999622 -0.000291835 3.35193e-16)
(0.999638 -0.000617047 2.60152e-16)
(0.999688 -0.000934507 -3.20681e-17)
(0.999775 -0.00123594 -1.30276e-16)
(0.9999 -0.00150993 -5.7657e-16)
(1.00006 -0.0017488 -6.70359e-17)
(1.00026 -0.00194079 -3.4249e-16)
(1.00048 -0.00208132 1.10933e-16)
(1.00071 -0.00216747 -7.06122e-16)
(1.00095 -0.00218525 3.40674e-16)
(1.00114 -0.00216461 1.15051e-15)
(1.00128 -0.00204395 -8.87396e-16)
(1.00136 -0.00182955 5.26141e-16)
(0.999645 0.000370459 -1.99529e-17)
(0.999604 3.96859e-05 -1.58377e-16)
(0.999595 -0.000302012 -1.91839e-16)
(0.999616 -0.000640431 -9.56835e-17)
(0.999674 -0.000969622 -6.12804e-17)
(0.99977 -0.00128081 8.41315e-17)
(0.999907 -0.00156214 -3.22188e-17)
(1.00008 -0.00180559 -4.42541e-16)
(1.00029 -0.00199948 -1.3026e-16)
(1.00053 -0.00213889 -3.27978e-17)
(1.00077 -0.00222141 6.42714e-16)
(1.00101 -0.00223281 1.07512e-16)
(1.00122 -0.00220085 -9.56533e-16)
(1.00137 -0.00206955 5.07782e-16)
(1.00147 -0.001842 -1.01829e-16)
(0.999614 0.000388706 1.8024e-17)
(0.999572 4.36511e-05 9.31211e-17)
(0.999566 -0.000312265 9.23328e-17)
(0.999592 -0.000663995 1.79572e-16)
(0.999658 -0.00100508 -9.784e-17)
(0.999765 -0.00132623 -2.75212e-17)
(0.999913 -0.00161515 1.98847e-16)
(1.0001 -0.0018634 2.97139e-16)
(1.00032 -0.0020594 -2.14163e-17)
(1.00057 -0.00219781 -3.58763e-16)
(1.00082 -0.0022767 -2.75793e-16)
(1.00108 -0.00228167 -4.84854e-16)
(1.0013 -0.00223827 2.03429e-17)
(1.00146 -0.00209596 2.62922e-16)
(1.00157 -0.00185527 -1.5918e-16)
(0.999582 0.000406953 -9.63735e-18)
(0.99954 4.7583e-05 -5.51067e-17)
(0.999536 -0.000322619 1.40225e-16)
(0.999567 -0.000687744 1.47075e-17)
(0.999641 -0.00104085 -1.24549e-16)
(0.999757 -0.00137213 1.00438e-16)
(0.999917 -0.0016688 -4.79789e-17)
(1.00012 -0.00192203 2.73974e-16)
(1.00035 -0.00212025 5.06225e-16)
(1.00061 -0.00225771 7.86163e-17)
(1.00088 -0.0023328 2.38002e-16)
(1.00114 -0.00233115 2.42268e-16)
(1.00137 -0.00227613 5.98117e-17)
(1.00155 -0.00212243 -5.4105e-16)
(1.00168 -0.00186885 1.31221e-16)
(0.999549 0.000425205 1.29093e-17)
(0.999505 5.14714e-05 1.16064e-17)
(0.999504 -0.000333082 -2.86476e-16)
(0.999541 -0.000711667 -1.25155e-16)
(0.999623 -0.00107686 1.75963e-16)
(0.999749 -0.00141835 -2.74679e-17)
(0.99992 -0.00172289 1.83713e-16)
(1.00013 -0.00198116 -2.4401e-16)
(1.00038 -0.00218161 1.39103e-16)
(1.00065 -0.00231807 1.15693e-16)
(1.00093 -0.00238915 1.22128e-16)
(1.00121 -0.00238061 1.55412e-16)
(1.00145 -0.00231387 2.16061e-16)
(1.00163 -0.00214865 3.0415e-17)
(1.00178 -0.00188295 7.71844e-17)
(0.999515 0.000443471 -3.97187e-17)
(0.99947 5.53067e-05 1.05103e-16)
(0.999471 -0.000343668 1.64489e-16)
(0.999514 -0.000735763 -1.05295e-16)
(0.999603 -0.00111309 -6.84548e-17)
(0.999739 -0.0014648 3.89632e-17)
(0.999923 -0.0017772 -2.00139e-16)
(1.00015 -0.00204049 -1.30959e-16)
(1.00041 -0.00224311 -1.72016e-16)
(1.0007 -0.00237845 2.73405e-16)
(1.00099 -0.00244532 -3.79302e-16)
(1.00128 -0.00242976 2.96274e-16)
(1.00153 -0.0023514 1.45117e-16)
(1.00172 -0.00217483 5.43173e-16)
(1.00188 -0.00189815 -4.9713e-16)
(0.999479 0.000461767 1.67597e-17)
(0.999433 5.9089e-05 -7.91086e-17)
(0.999437 -0.000354376 5.79223e-17)
(0.999485 -0.000760027 1.28112e-16)
(0.999582 -0.0011495 -8.88203e-17)
(0.999729 -0.00151141 -1.50111e-16)
(0.999924 -0.00183161 -7.10728e-17)
(1.00016 -0.00209987 9.79454e-17)
(1.00044 -0.00230456 -4.48032e-16)
(1.00074 -0.00243872 6.61088e-17)
(1.00104 -0.00250127 2.52024e-16)
(1.00134 -0.00247868 -7.04387e-16)
(1.00161 -0.00238903 1.42233e-16)
(1.00181 -0.00220155 2.17896e-17)
(1.00199 -0.00191501 3.66569e-16)
(0.999442 0.000480109 -6.37149e-18)
(0.999395 6.28179e-05 9.69557e-17)
(0.999402 -0.000365218 -9.36734e-17)
(0.999455 -0.000784478 -5.81419e-17)
(0.999561 -0.00118611 -9.27319e-17)
(0.999718 -0.00155819 -4.90399e-17)
(0.999925 -0.00188615 -1.0574e-16)
(1.00018 -0.00215932 7.5494e-17)
(1.00046 -0.00236604 2.90329e-17)
(1.00078 -0.00249901 -3.10247e-16)
(1.00109 -0.0025573 -3.70112e-16)
(1.00141 -0.00252786 4.10573e-16)
(1.00168 -0.00242742 -3.58389e-16)
(1.0019 -0.00222955 -1.14116e-16)
(1.00209 -0.00193411 -1.12257e-17)
(0.999404 0.000498518 -1.92797e-17)
(0.999356 6.65021e-05 -4.47888e-17)
(0.999365 -0.000376191 3.16343e-17)
(0.999424 -0.000809131 2.25424e-16)
(0.999538 -0.00122298 3.76463e-16)
(0.999705 -0.00160525 3.07338e-16)
(0.999925 -0.00194097 3.3579e-16)
(1.00019 -0.00221906 -2.14223e-16)
(1.00049 -0.00242785 6.72797e-20)
(1.00082 -0.00255974 2.32345e-16)
(1.00115 -0.00261392 4.5751e-17)
(1.00147 -0.00257793 2.52284e-16)
(1.00176 -0.00246721 2.02728e-16)
(1.00199 -0.00225938 -5.31171e-16)
(1.00219 -0.00195551 -3.48608e-16)
(0.999364 0.000517012 9.9196e-18)
(0.999315 7.01479e-05 -8.09518e-17)
(0.999327 -0.000387303 -1.61929e-16)
(0.999391 -0.000834019 -1.58951e-16)
(0.999513 -0.00126018 1.46094e-17)
(0.999692 -0.00165271 -1.73512e-16)
(0.999924 -0.00199628 -3.7779e-16)
(1.0002 -0.00227939 2.88353e-16)
(1.00052 -0.00249038 2.34518e-16)
(1.00086 -0.0026214 -5.17109e-16)
(1.0012 -0.00267171 4.24182e-16)
(1.00154 -0.00262946 -3.0922e-16)
(1.00184 -0.00250886 -1.42533e-16)
(1.00208 -0.00229129 -1.24632e-16)
(1.00229 -0.00197898 1.48516e-16)
(0.999323 0.000535611 3.77601e-17)
(0.999273 7.37699e-05 1.737e-17)
(0.999287 -0.000398546 8.75808e-17)
(0.999357 -0.000859158 4.06841e-17)
(0.999488 -0.00129777 4.78663e-17)
(0.999677 -0.00170072 3.00089e-16)
(0.999921 -0.0020523 -1.35592e-16)
(1.00021 -0.00234061 1.48164e-16)
(1.00054 -0.002554 8.50691e-17)
(1.0009 -0.00268437 5.92827e-17)
(1.00125 -0.00273103 1.97507e-16)
(1.0016 -0.00268273 -4.21074e-17)
(1.00192 -0.00255246 9.35811e-18)
(1.00217 -0.00232511 8.69289e-16)
(1.00239 -0.00200396 2.76288e-18)
(0.99928 0.000554332 -3.66515e-17)
(0.999229 7.73787e-05 -1.26589e-17)
(0.999246 -0.000409921 5.72599e-17)
(0.999321 -0.000884568 -1.74585e-16)
(0.99946 -0.00133581 -2.79641e-16)
(0.99966 -0.00174938 -2.67938e-16)
(0.999917 -0.00210918 2.27021e-16)
(1.00022 -0.00240292 -8.30291e-17)
(1.00057 -0.00261893 9.68234e-18)
(1.00094 -0.00274886 -5.01788e-18)
(1.00131 -0.00279201 -2.72806e-16)
(1.00167 -0.00273771 -2.46552e-16)
(1.00199 -0.00259782 -1.58984e-16)
(1.00226 -0.00236043 2.41305e-17)
(1.00249 -0.00202986 -5.44027e-17)
(0.999236 0.000573192 -1.82976e-17)
(0.999184 8.09919e-05 4.8429e-17)
(0.999203 -0.000421411 4.76485e-17)
(0.999284 -0.00091024 7.75416e-17)
(0.999431 -0.0013743 1.06061e-16)
(0.999642 -0.0017987 1.6761e-18)
(0.999911 -0.00216695 2.26922e-16)
(1.00023 -0.00246636 -5.0599e-16)
(1.00059 -0.00268517 2.58022e-16)
(1.00097 -0.00281482 2.63143e-16)
(1.00136 -0.0028545 -3.76453e-16)
(1.00173 -0.00279414 7.03037e-16)
(1.00207 -0.00264451 3.70069e-16)
(1.00235 -0.00239674 -6.89555e-16)
(1.00259 -0.00205621 -2.05136e-16)
(0.99919 0.000592202 3.78382e-17)
(0.999137 8.46208e-05 2.93823e-17)
(0.999159 -0.000433007 4.58835e-18)
(0.999245 -0.000936164 -3.47606e-17)
(0.999401 -0.00141323 2.01647e-17)
(0.999622 -0.00184867 2.84509e-16)
(0.999904 -0.0022256 -4.58586e-17)
(1.00024 -0.00253086 3.24709e-16)
(1.00061 -0.00275262 -4.80455e-17)
(1.00101 -0.00288204 -2.91069e-16)
(1.00141 -0.00291822 6.02259e-16)
(1.0018 -0.00285164 -3.61417e-16)
(1.00215 -0.00269211 -4.89263e-16)
(1.00244 -0.00243366 2.06806e-16)
(1.00269 -0.0020828 3.45717e-16)
(0.999143 0.000611374 -3.14657e-17)
(0.999089 8.82816e-05 -1.32654e-17)
(0.999113 -0.000444689 -1.72987e-16)
(0.999205 -0.000962312 -8.45431e-17)
(0.999369 -0.00145255 5.2067e-17)
(0.999601 -0.00189922 -2.8722e-16)
(0.999895 -0.002285 -8.44325e-17)
(1.00024 -0.00259626 2.83004e-16)
(1.00063 -0.00282104 -2.39338e-16)
(1.00104 -0.00295024 7.01843e-17)
(1.00146 -0.00298282 -3.3536e-16)
(1.00186 -0.00290985 1.05503e-17)
(1.00223 -0.0027403 2.64818e-16)
(1.00253 -0.00247096 1.39335e-16)
(1.00279 -0.00210961 -5.42909e-17)
(0.999094 0.000630713 3.00173e-17)
(0.99904 9.19816e-05 -9.73963e-17)
(0.999066 -0.000456449 8.17596e-17)
(0.999163 -0.000988667 5.35133e-17)
(0.999335 -0.00149223 -4.03489e-17)
(0.999578 -0.00195027 -1.72529e-16)
(0.999885 -0.00234504 5.23119e-17)
(1.00025 -0.00266241 -1.29746e-16)
(1.00065 -0.00289025 -2.18762e-16)
(1.00108 -0.0030192 -2.73422e-17)
(1.00151 -0.00304808 -4.84651e-16)
(1.00193 -0.00296857 4.95973e-16)
(1.0023 -0.00278896 3.85471e-17)
(1.00262 -0.00250866 -7.95423e-17)
(1.00289 -0.00213679 -7.73822e-18)
(0.999044 0.000650224 -3.68173e-17)
(0.998989 9.5731e-05 1.00263e-16)
(0.999017 -0.000468275 -2.30327e-17)
(0.999119 -0.00101521 -2.09824e-16)
(0.9993 -0.00153223 -9.99763e-17)
(0.999553 -0.00200177 1.16142e-16)
(0.999874 -0.00240564 -1.7042e-16)
(1.00025 -0.00272919 -1.90893e-16)
(1.00067 -0.00296011 3.24863e-16)
(1.00111 -0.00308879 1.13037e-16)
(1.00156 -0.0031139 5.08538e-16)
(1.00199 -0.00302778 -3.82474e-16)
(1.00238 -0.00283815 1.37434e-16)
(1.00271 -0.0025469 -1.54731e-16)
(1.00299 -0.00216457 5.15842e-18)
(0.998991 0.000669904 2.27878e-17)
(0.998936 9.95298e-05 -5.80204e-17)
(0.998967 -0.00048017 7.20731e-17)
(0.999074 -0.00104193 3.12634e-16)
(0.999263 -0.00157254 1.32674e-16)
(0.999528 -0.0020537 8.23119e-17)
(0.999862 -0.00246677 3.38494e-16)
(1.00025 -0.00279657 1.6086e-16)
(1.00069 -0.0030306 -2.64944e-16)
(1.00115 -0.00315901 4.51425e-16)
(1.00161 -0.00318035 2.51038e-16)
(1.00205 -0.00308759 -2.12456e-16)
(1.00246 -0.00288805 -4.06361e-16)
(1.0028 -0.00258588 -1.57904e-16)
(1.00309 -0.00219313 6.09573e-17)
(0.998938 0.000689752 4.67896e-18)
(0.998882 0.000103381 -1.23613e-16)
(0.998915 -0.000492133 -9.17381e-17)
(0.999028 -0.00106885 -2.15266e-16)
(0.999225 -0.00161316 3.45797e-17)
(0.999501 -0.00210607 -3.34272e-16)
(0.999848 -0.00252845 -3.59363e-16)
(1.00026 -0.00286459 -1.44551e-16)
(1.0007 -0.00310177 3.07947e-16)
(1.00118 -0.00322995 -3.27097e-16)
(1.00166 -0.00324754 1.15662e-16)
(1.00212 -0.00314819 2.15002e-16)
(1.00254 -0.00293882 3.26382e-16)
(1.00289 -0.00262577 1.99165e-16)
(1.00319 -0.00222258 1.69109e-17)
(0.998883 0.00070976 3.28888e-17)
(0.998827 0.000107276 2.02034e-16)
(0.998862 -0.000504183 9.40331e-17)
(0.99898 -0.00109599 1.80715e-16)
(0.999186 -0.00165414 1.08281e-16)
(0.999473 -0.00215892 4.56473e-17)
(0.999834 -0.00259074 5.2657e-17)
(1.00026 -0.00293333 -1.20982e-16)
(1.00072 -0.00317376 -1.22679e-16)
(1.00121 -0.00330177 1.43761e-17)
(1.00171 -0.00331567 -7.90312e-16)
(1.00218 -0.00320975 -3.08649e-16)
(1.00262 -0.00299063 3.2454e-16)
(1.00298 -0.00266668 -7.23763e-17)
(1.00329 -0.00225293 -2.00435e-16)
(0.998826 0.000729923 -4.42042e-17)
(0.99877 0.000111212 -1.29468e-16)
(0.998808 -0.000516331 -1.85943e-16)
(0.998931 -0.00112336 6.10876e-17)
(0.999146 -0.0016955 -2.05428e-16)
(0.999444 -0.00221231 3.82668e-17)
(0.999818 -0.00265371 -4.73672e-17)
(1.00026 -0.00300288 -8.64683e-18)
(1.00074 -0.00324666 -1.46596e-16)
(1.00125 -0.00337459 -7.68643e-17)
(1.00176 -0.00338485 2.72171e-17)
(1.00225 -0.00327239 2.68047e-16)
(1.00269 -0.00304357 -1.35093e-16)
(1.00307 -0.00270864 2.66691e-16)
(1.00339 -0.00228419 9.42514e-17)
(0.998768 0.000750228 2.36256e-17)
(0.998711 0.000115174 1.24029e-16)
(0.998751 -0.000528602 2.36235e-16)
(0.99888 -0.00115102 -6.82616e-17)
(0.999103 -0.00173731 -1.65614e-17)
(0.999413 -0.0022663 2.50765e-16)
(0.999801 -0.00271745 2.1323e-16)
(1.00025 -0.00307335 -1.46104e-16)
(1.00075 -0.00332058 3.91413e-16)
(1.00128 -0.00344852 3.5509e-16)
(1.0018 -0.00345519 3.77571e-16)
(1.00231 -0.00333619 -1.74329e-17)
(1.00277 -0.00309768 -2.99491e-16)
(1.00316 -0.00275167 -3.14537e-16)
(1.00349 -0.00231634 -3.03102e-17)
(0.998709 0.000770669 -2.02444e-17)
(0.998651 0.000119156 -6.54968e-17)
(0.998693 -0.000541016 -1.95802e-16)
(0.998828 -0.00117898 1.26016e-16)
(0.99906 -0.00177959 1.20919e-16)
(0.999381 -0.00232095 -1.67905e-16)
(0.999783 -0.002782 -8.47657e-17)
(1.00025 -0.00314477 8.37901e-18)
(1.00077 -0.00339558 -1.73952e-16)
(1.00131 -0.00352361 -3.04245e-16)
(1.00185 -0.00352674 -5.6135e-16)
(1.00237 -0.00340117 6.06241e-17)
(1.00285 -0.00315294 3.6566e-16)
(1.00325 -0.00279575 3.31075e-16)
(1.00359 -0.00234938 -6.9641e-17)
(0.998648 0.000791232 -1.61099e-17)
(0.998589 0.000123138 -1.31746e-17)
(0.998634 -0.0005536 1.71346e-16)
(0.998774 -0.00120729 -1.61677e-16)
(0.999015 -0.00182241 -3.19496e-16)
(0.999348 -0.0023763 1.55055e-16)
(0.999764 -0.00284743 8.79884e-17)
(1.00025 -0.00321723 4.07434e-16)
(1.00078 -0.00347172 5.82542e-17)
(1.00134 -0.0035999 2.83288e-16)
(1.0019 -0.00359952 8.41179e-16)
(1.00244 -0.00346736 -2.30761e-16)
(1.00293 -0.0032094 -9.79336e-17)
(1.00335 -0.00284089 -1.15575e-17)
(1.0037 -0.00238331 -2.77369e-17)
(0.998585 0.000811912 4.50543e-17)
(0.998526 0.000127112 4.92217e-17)
(0.998573 -0.000566374 -1.47366e-16)
(0.998719 -0.00123598 1.36901e-16)
(0.998968 -0.00186579 -9.21478e-17)
(0.999313 -0.00243241 -2.96675e-16)
(0.999743 -0.00291377 1.30383e-17)
(1.00024 -0.00329074 -3.50447e-17)
(1.00079 -0.00354903 -2.16046e-16)
(1.00137 -0.00367743 1.82113e-16)
(1.00195 -0.00367356 -7.85186e-16)
(1.0025 -0.00353479 -1.42901e-17)
(1.00301 -0.00326707 -1.74936e-16)
(1.00344 -0.00288715 3.26746e-17)
(1.0038 -0.00241817 -8.21627e-17)
(0.998522 0.000832697 -1.14969e-17)
(0.99846 0.000131057 -1.17281e-17)
(0.99851 -0.000579366 2.03915e-17)
(0.998661 -0.00126508 -1.5224e-16)
(0.99892 -0.0019098 -2.73342e-17)
(0.999277 -0.00248932 3.62253e-16)
(0.999721 -0.0029811 -2.64011e-16)
(1.00024 -0.00336538 -3.27004e-16)
(1.0008 -0.00362756 3.50136e-16)
(1.0014 -0.00375625 -3.16781e-16)
(1.002 -0.00374893 4.0091e-16)
(1.00257 -0.00360353 3.79271e-16)
(1.00308 -0.00332603 2.73148e-16)
(1.00353 -0.00293459 -1.81729e-16)
(1.0039 -0.00245399 -6.19297e-17)
(0.998456 0.000853582 -1.2399e-17)
(0.998394 0.000134964 -7.19636e-17)
(0.998445 -0.000592595 -9.69057e-17)
(0.998602 -0.00129463 7.11254e-17)
(0.99887 -0.00195446 1.80268e-16)
(0.999239 -0.00254709 6.32313e-17)
(0.999698 -0.00304945 2.45362e-16)
(1.00023 -0.0034412 5.36277e-17)
(1.00082 -0.00370739 -4.60353e-16)
(1.00143 -0.00383643 1.6109e-16)
(1.00204 -0.00382569 -2.27699e-16)
(1.00263 -0.00367364 -1.89112e-16)
(1.00316 -0.00338631 -2.54704e-16)
(1.00362 -0.00298323 4.02469e-17)
(1.004 -0.00249073 1.49559e-16)
(0.99839 0.000874558 -1.90313e-17)
(0.998325 0.000138814 3.42766e-17)
(0.998379 -0.000606085 4.13835e-17)
(0.998542 -0.00132466 -1.4256e-16)
(0.998818 -0.00199982 6.95729e-17)
(0.999199 -0.00260578 -2.11097e-16)
(0.999674 -0.00311891 -2.58593e-17)
(1.00022 -0.00351828 3.17501e-16)
(1.00083 -0.00378858 -2.02517e-16)
(1.00146 -0.00391805 -2.67698e-16)
(1.00209 -0.00390392 2.29927e-16)
(1.00269 -0.0037452 -6.82481e-17)
(1.00324 -0.00344798 -7.21738e-16)
(1.00371 -0.00303309 7.36358e-17)
(1.0041 -0.00252834 1.07586e-16)
(0.998321 0.000895623 -9.79578e-18)
(0.998255 0.000142595 3.34338e-17)
(0.998311 -0.000619851 1.25962e-17)
(0.998479 -0.00135519 1.90034e-17)
(0.998765 -0.00204592 1.20061e-16)
(0.999158 -0.00266542 6.67164e-17)
(0.999647 -0.00318953 -2.19743e-16)
(1.00021 -0.00359668 -2.00652e-17)
(1.00083 -0.00387121 6.06575e-16)
(1.00149 -0.00400118 -1.94554e-16)
(1.00213 -0.00398368 -5.72015e-18)
(1.00276 -0.00381823 2.87745e-17)
(1.00332 -0.00351104 2.77755e-17)
(1.00381 -0.00308413 -5.09825e-17)
(1.0042 -0.00256673 1.69822e-17)
(0.998252 0.000916769 2.58139e-17)
(0.998183 0.000146292 -6.81986e-17)
(0.998242 -0.000633915 -7.79021e-17)
(0.998415 -0.00138624 1.49229e-19)
(0.99871 -0.00209279 -1.81289e-16)
(0.999116 -0.00272606 -2.89518e-17)
(0.99962 -0.00326135 4.2667e-17)
(1.0002 -0.00367646 -4.8316e-17)
(1.00084 -0.00395535 -4.10673e-16)
(1.00151 -0.00408588 5.46813e-16)
(1.00218 -0.004065 -3.12065e-17)
(1.00282 -0.00389276 -5.71425e-17)
(1.0034 -0.00357545 3.36815e-16)
(1.0039 -0.00313631 -3.77726e-16)
(1.0043 -0.00260584 7.97432e-18)
(0.99818 0.000937997 2.73894e-18)
(0.99811 0.000149895 8.18149e-17)
(0.99817 -0.000648285 2.19884e-16)
(0.998349 -0.00141783 -5.5454e-17)
(0.998653 -0.00214043 1.17818e-16)
(0.999072 -0.00278773 -1.83087e-16)
(0.999591 -0.00333441 -2.19271e-16)
(1.00019 -0.00375764 5.26675e-18)
(1.00085 -0.00404099 2.39113e-16)
(1.00154 -0.00417213 -4.77261e-16)
(1.00223 -0.00414788 1.18886e-16)
(1.00288 -0.00396873 -2.06629e-17)
(1.00348 -0.00364116 2.60202e-16)
(1.00399 -0.00318951 8.04018e-17)
(1.00441 -0.00264555 -1.25213e-16)
(0.998108 0.0009593 1.05252e-18)
(0.998035 0.000153389 -8.87966e-17)
(0.998097 -0.000662978 -1.25495e-16)
(0.998282 -0.00144997 2.07706e-17)
(0.998595 -0.00218888 -2.18886e-17)
(0.999026 -0.00285043 1.6619e-16)
(0.999561 -0.00340871 3.60009e-16)
(1.00018 -0.00384024 -3.19356e-16)
(1.00086 -0.00412816 3.63286e-16)
(1.00156 -0.00425995 3.21139e-17)
(1.00227 -0.00423227 7.12757e-17)
(1.00295 -0.0040461 -1.37658e-16)
(1.00356 -0.0037081 2.65774e-16)
(1.00409 -0.00324367 1.50617e-16)
(1.00451 -0.00268581 1.96697e-16)
(0.998033 0.000980681 -8.60809e-18)
(0.997958 0.000156768 8.47028e-17)
(0.998022 -0.000678001 1.54574e-16)
(0.998212 -0.00148267 5.3408e-17)
(0.998535 -0.00223811 1.56222e-16)
(0.998978 -0.00291416 1.19986e-16)
(0.999529 -0.00348425 -3.23301e-16)
(1.00017 -0.00392423 6.47769e-16)
(1.00086 -0.00421682 -2.0377e-16)
(1.00159 -0.00434927 -6.77937e-17)
(1.00232 -0.00431813 -2.45385e-16)
(1.00301 -0.00412481 -1.07771e-16)
(1.00364 -0.00377619 -2.95776e-16)
(1.00418 -0.00329874 -1.08978e-16)
(1.00462 -0.00272662 4.73092e-17)
(0.997957 0.00100213 -3.05696e-17)
(0.997879 0.000160017 -9.05828e-17)
(0.997945 -0.000693369 -1.08402e-17)
(0.998141 -0.00151592 1.06248e-16)
(0.998473 -0.00228815 -1.42172e-16)
(0.99893 -0.00297891 -1.04405e-16)
(0.999496 -0.00356102 4.04569e-16)
(1.00015 -0.0040096 -1.2084e-16)
(1.00087 -0.00430695 -5.16307e-16)
(1.00161 -0.00444008 7.10618e-17)
(1.00236 -0.00440542 -1.24594e-16)
(1.00307 -0.00420483 2.30521e-16)
(1.00372 -0.00384542 3.69251e-16)
(1.00428 -0.00335471 3.28924e-16)
(1.00472 -0.00276802 -2.75695e-16)
(0.997879 0.00102366 1.83335e-18)
(0.997798 0.000163132 -1.74728e-17)
(0.997867 -0.000709088 -7.23303e-17)
(0.998068 -0.00154974 4.50886e-17)
(0.99841 -0.00233898 -7.8833e-17)
(0.998879 -0.00304468 1.34462e-16)
(0.999461 -0.00363898 -1.16254e-16)
(1.00013 -0.00409632 3.9901e-17)
(1.00087 -0.0043985 -1.08222e-16)
(1.00164 -0.00453233 2.75349e-16)
(1.0024 -0.00449409 3.36921e-16)
(1.00314 -0.00428611 1.94741e-18)
(1.0038 -0.00391576 -5.87673e-16)
(1.00437 -0.00341157 -3.99938e-16)