1.45 	0 	0 	-0.305741
2.35 	0 	0 	-0.133253
