1.45 	0 	0 	-0.292138
2.35 	0 	0 	-0.127448
