1.45 	0 	0 	0.00749735 	-0.00423005 	3.92603e-21
2.35 	0 	0 	0.131193 	-0.00903314 	1.74584e-21
