1.275 	2.15223e-18 	-2.76991e-20 	-0.0343314 	-0.000450096 	-1.94727e-22
1.825 	2.15223e-18 	-1.39322e-20 	-0.00922682 	-0.0027782 	1.73586e-21
2.375 	2.15223e-18 	-2.66896e-23 	0.11598 	-0.00325584 	-7.24514e-22
