1.45 	0 	0 	0.0467735 	-0.00751244 	3.60457e-21
2.35 	0 	0 	0.259938 	-0.0119777 	4.98504e-22
