1.45 	0 	0 	0.0640582 	-0.00861004 	3.48016e-21
2.35 	0 	0 	0.302419 	-0.0125809 	1.78545e-22
