/*--------------------------------*- C++ -*----------------------------------*\
  =========                 |
  \\      /  F ield         | OpenFOAM: The Open Source CFD Toolbox
   \\    /   O peration     | Website:  https://openfoam.org
    \\  /    A nd           | Version:  6.0
     \\/     M anipulation  |
\*---------------------------------------------------------------------------*/
FoamFile
{
    version     2.0;
    format      ascii;
    class       surfaceScalarField;
    location    "0.1";
    object      phi;
}
// * * * * * * * * * * * * * * * * * * * * * * * * * * * * * * * * * * * * * //

dimensions      [0 3 -1 0 0 0 0];

internalField   nonuniform List<scalar> 
47678
(
2.98116e-05
0.00388594
5.35769e-10
5.98496e-05
0.00381845
8.91166e-05
0.00368589
0.000116964
0.00349034
0.000142855
0.00323518
0.000166313
0.00292481
0.000186915
0.00256461
0.000204296
0.00216079
0.000218145
0.00172041
0.000228218
0.00125103
0.000234332
0.000761898
0.000266694
0.000237352
2.96243e-05
0.00385632
-2.73349e-10
5.94725e-05
0.0037886
8.85533e-05
0.00365681
0.000116222
0.00346268
0.000141947
0.00320946
0.000165254
0.00290151
0.000185724
0.00254414
0.000202994
0.00214353
0.000216757
0.00170666
0.000226756
0.00124104
0.000233005
0.000755672
0.000263575
0.000236162
2.9438e-05
0.00382688
-1.45121e-09
5.90971e-05
0.00375894
8.79928e-05
0.00362792
0.000115485
0.00343519
0.000141045
0.0031839
0.000164204
0.00287835
0.000184544
0.0025238
0.000201704
0.00212637
0.00021538
0.00169299
0.00022531
0.00123111
0.00023155
0.000749428
0.000260484
0.000234626
2.92527e-05
0.00379763
-2.73815e-09
5.87236e-05
0.00372947
8.74353e-05
0.00359921
0.000114753
0.00340787
0.00014015
0.00315851
0.00016316
0.00285535
0.000183371
0.0025036
0.000200421
0.00210933
0.000214013
0.00167941
0.000223877
0.00122126
0.000230059
0.000743266
0.00025758
0.000232999
2.90686e-05
0.00376857
-4.25923e-09
5.83523e-05
0.00370019
8.68811e-05
0.00357068
0.000114024
0.00338073
0.000139259
0.00313327
0.000162123
0.00283248
0.000182204
0.00248352
0.000199146
0.00209238
0.000212653
0.0016659
0.000222457
0.00121145
0.000228571
0.000737146
0.000254751
0.000231383
2.88855e-05
0.00373969
-5.84897e-09
5.7983e-05
0.00367109
8.63302e-05
0.00354233
0.0001133
0.00335376
0.000138374
0.0031082
0.000161092
0.00280977
0.000181045
0.00246357
0.00019788
0.00207556
0.000211302
0.00165248
0.000221048
0.00120172
0.000227101
0.000731111
0.000252083
0.000229804
2.87033e-05
0.00371099
-7.36031e-09
5.76157e-05
0.00364218
8.57824e-05
0.00351417
0.000112581
0.00332696
0.000137495
0.00308329
0.000160068
0.0027872
0.000179894
0.00244374
0.000196622
0.00205883
0.000209961
0.00163914
0.000219651
0.00119203
0.000225648
0.000725105
0.000249456
0.00022826
2.8522e-05
0.00368248
-8.76445e-09
5.72505e-05
0.00361345
8.52379e-05
0.00348618
0.000111866
0.00330033
0.000136621
0.00305854
0.000159051
0.00276477
0.000178751
0.00242405
0.000195372
0.00204221
0.000208628
0.00162589
0.000218262
0.0011824
0.000224212
0.000719171
0.00024696
0.000226744
2.83417e-05
0.00365414
-9.87369e-09
5.68873e-05
0.0035849
8.46967e-05
0.00345837
0.000111155
0.00327387
0.000135753
0.00303394
0.00015804
0.00274248
0.000177615
0.00240447
0.000194131
0.00202569
0.000207303
0.00161272
0.000216883
0.00117282
0.000222788
0.000713257
0.000244485
0.000225249
2.81623e-05
0.00362599
-1.06165e-08
5.65264e-05
0.00355654
8.41589e-05
0.00343074
0.000110449
0.00324758
0.000134891
0.0030095
0.000157035
0.00272034
0.000176486
0.00238502
0.000192898
0.00200929
0.000205987
0.00159964
0.000215512
0.0011633
0.000221375
0.000707408
0.000242118
0.000223775
2.79839e-05
0.00359802
-1.0963e-08
5.61675e-05
0.00352835
8.36244e-05
0.00340328
0.000109747
0.00322146
0.000134034
0.00298521
0.000156038
0.00269834
0.000175365
0.00236569
0.000191672
0.00199298
0.00020468
0.00158663
0.000214149
0.00115383
0.000219973
0.000701575
0.000239757
0.00022232
2.78064e-05
0.00357022
-1.08737e-08
5.58108e-05
0.00350035
8.30932e-05
0.003376
0.00010905
0.00319551
0.000133182
0.00296108
0.000155046
0.00267648
0.000174251
0.00234649
0.000190455
0.00197678
0.000203381
0.00157371
0.000212795
0.00114442
0.00021858
0.000695803
0.000237486
0.00022088
2.76299e-05
0.0035426
-1.04043e-08
5.54562e-05
0.00347252
8.25654e-05
0.00334889
0.000108357
0.00316971
0.000132336
0.0029371
0.000154061
0.00265475
0.000173144
0.00232741
0.000189246
0.00196067
0.00020209
0.00156086
0.000211449
0.00113506
0.000217196
0.000690045
0.000235212
0.000219454
2.74543e-05
0.00351516
-9.6061e-09
5.51038e-05
0.00344487
8.20408e-05
0.00332196
0.000107669
0.00314409
0.000131495
0.00291328
0.000153083
0.00263316
0.000172044
0.00230845
0.000188045
0.00194468
0.000200808
0.0015481
0.000210111
0.00112576
0.000215822
0.000684346
0.000233018
0.00021804
2.72797e-05
0.00348789
-8.54078e-09
5.47535e-05
0.0034174
8.15195e-05
0.00329519
0.000106985
0.00311862
0.00013066
0.0028896
0.00015211
0.00261171
0.000170952
0.00228961
0.000186851
0.00192878
0.000199534
0.00153541
0.000208781
0.00111651
0.000214456
0.000678661
0.000230813
0.000216638
2.71061e-05
0.00346079
-7.28744e-09
5.44053e-05
0.0033901
8.10014e-05
0.00326859
0.000106305
0.00309332
0.00012983
0.00286608
0.000151144
0.0025904
0.000169867
0.00227089
0.000185666
0.00191298
0.000198269
0.00152282
0.00020746
0.00110733
0.000213098
0.000673035
0.000228683
0.000215247
2.69334e-05
0.00343386
-5.89582e-09
5.40593e-05
0.00336298
8.04865e-05
0.00324217
0.000105629
0.00306817
0.000129005
0.0028427
0.000150184
0.00256922
0.000168788
0.00225228
0.000184488
0.00189728
0.000197012
0.00151029
0.000206147
0.00109818
0.000211749
0.000667421
0.000226539
0.000213867
2.67617e-05
0.00340711
-4.40842e-09
5.37154e-05
0.00333602
7.99749e-05
0.00321591
0.000104958
0.00304319
0.000128185
0.00281948
0.00014923
0.00254818
0.000167717
0.0022338
0.000183317
0.00188168
0.000195762
0.00149785
0.000204842
0.00108911
0.000210408
0.000661865
0.000224465
0.000212498
2.65909e-05
0.00338052
-2.8528e-09
5.33735e-05
0.00330924
7.94664e-05
0.00318981
0.000104291
0.00301837
0.000127371
0.0027964
0.000148283
0.00252726
0.000166652
0.00221543
0.000182154
0.00186618
0.000194521
0.00148548
0.000203545
0.00108008
0.000209076
0.000656322
0.000222372
0.000211139
2.64212e-05
0.0033541
-1.23368e-09
5.30338e-05
0.00328263
7.8961e-05
0.00316389
0.000103628
0.0029937
0.000126562
0.00277346
0.000147341
0.00250649
0.000165595
0.00219718
0.000180999
0.00185078
0.000193288
0.00147319
0.000202256
0.00107112
0.000207752
0.000650836
0.000220346
0.00020979
2.62524e-05
0.00332784
4.49951e-10
5.2696e-05
0.00325618
7.84588e-05
0.00313812
0.00010297
0.00296919
0.000125758
0.00275068
0.000146406
0.00248584
0.000164544
0.00217904
0.000179851
0.00183547
0.000192063
0.00146098
0.000200975
0.0010622
0.000206437
0.000645362
0.0002183
0.00020845
2.60846e-05
0.00330176
2.20898e-09
5.23604e-05
0.00322991
7.79597e-05
0.00311253
0.000102315
0.00294483
0.000124959
0.00272803
0.000145476
0.00246532
0.0001635
0.00216102
0.000178711
0.00182026
0.000190846
0.00144885
0.000199702
0.00105335
0.00020513
0.000639945
0.000216322
0.00020712
2.59177e-05
0.00327584
4.05591e-09
5.20268e-05
0.0032038
7.74636e-05
0.00308709
0.000101665
0.00292063
0.000124165
0.00270553
0.000144553
0.00244493
0.000162463
0.0021431
0.000177578
0.00180514
0.000189637
0.00143678
0.000198438
0.00104454
0.000203831
0.000634541
0.000214322
0.000205799
2.57519e-05
0.00325008
5.99785e-09
5.16952e-05
0.00317785
7.69707e-05
0.00306181
0.000101019
0.00289658
0.000123376
0.00268318
0.000143635
0.00242467
0.000161432
0.00212531
0.000176452
0.00179012
0.000188435
0.00142481
0.000197181
0.0010358
0.00020254
0.000629192
0.000212389
0.000204487
2.5587e-05
0.00322448
8.03272e-09
5.13657e-05
0.00315208
7.64809e-05
0.0030367
0.000100376
0.00287269
0.000122593
0.00266096
0.000142724
0.00240454
0.000160408
0.00210762
0.000175334
0.00177519
0.000187241
0.00141289
0.000195933
0.0010271
0.000201257
0.000623856
0.000210435
0.000203184
2.54231e-05
0.00319905
1.0146e-08
5.10382e-05
0.00312646
7.59941e-05
0.00301174
9.97383e-05
0.00284894
0.000121814
0.00263888
0.000141818
0.00238454
0.000159391
0.00209005
0.000174222
0.00176036
0.000186055
0.00140107
0.000194692
0.00101847
0.000199982
0.000618575
0.000208545
0.00020189
2.52602e-05
0.00317378
1.23068e-08
5.07128e-05
0.00310101
7.55104e-05
0.00298694
9.91042e-05
0.00282535
0.000121041
0.00261695
0.000140918
0.00236466
0.00015838
0.00207259
0.000173118
0.00174562
0.000184876
0.0013893
0.000193459
0.00100988
0.000198715
0.000613306
0.000206631
0.000200605
2.50983e-05
0.00314867
1.44723e-08
5.03894e-05
0.00307572
7.50298e-05
0.0029623
9.84743e-05
0.00280191
0.000120272
0.00259515
0.000140024
0.00234491
0.000157375
0.00205524
0.000172021
0.00173098
0.000183705
0.00137762
0.000192234
0.00100136
0.000197457
0.000608092
0.00020478
0.000199329
2.49374e-05
0.00312371
1.6588e-08
5.00681e-05
0.00305059
7.45523e-05
0.00293782
9.78483e-05
0.00277861
0.000119508
0.00257349
0.000139135
0.00232528
0.000156378
0.00203799
0.000170931
0.00171642
0.000182542
0.00136601
0.000191017
0.000992875
0.000196206
0.000602891
0.000202906
0.000198061
2.47775e-05
0.00309892
1.85963e-08
4.97487e-05
0.00302561
7.40777e-05
0.00291349
9.72264e-05
0.00275546
0.000118749
0.00255197
0.000138252
0.00230578
0.000155386
0.00202086
0.000169848
0.00170196
0.000181385
0.00135447
0.000189807
0.000984459
0.000194963
0.000597744
0.000201091
0.000196802
2.46186e-05
0.00307428
2.04414e-08
4.94314e-05
0.0030008
7.36063e-05
0.00288932
9.66084e-05
0.00273246
0.000117995
0.00253058
0.000137375
0.0022864
0.000154401
0.00200383
0.000168772
0.00168759
0.000180237
0.001343
0.000188605
0.000976083
0.000193729
0.000592608
0.000199252
0.000195552
2.44607e-05
0.00304979
2.20784e-08
4.91161e-05
0.00297615
7.31378e-05
0.0028653
9.59945e-05
0.0027096
0.000117246
0.00250933
0.000136504
0.00226714
0.000153422
0.00198692
0.000167702
0.00167331
0.000179095
0.00133162
0.000187411
0.000967772
0.000192502
0.000587526
0.000197468
0.000194309
2.43038e-05
0.00302547
2.34772e-08
4.88029e-05
0.00295165
7.26724e-05
0.00284143
9.53845e-05
0.00268689
0.000116502
0.00248821
0.000135638
0.002248
0.00015245
0.0019701
0.00016664
0.00165912
0.000177961
0.00132029
0.000186224
0.000959501
0.000191283
0.000582456
0.000195658
0.000193075
2.41479e-05
0.00300129
2.46285e-08
4.84917e-05
0.0029273
7.22099e-05
0.00281771
9.47784e-05
0.00266432
0.000115762
0.00246723
0.000134778
0.00222899
0.000151483
0.0019534
0.000165584
0.00164502
0.000176834
0.00130904
0.000185045
0.000951295
0.000190071
0.000577438
0.000193902
0.000191849
2.39931e-05
0.00297728
2.55417e-08
4.81824e-05
0.00290311
7.17505e-05
0.00279414
9.41762e-05
0.0026419
0.000115028
0.00244638
0.000133923
0.00221009
0.000150523
0.0019368
0.000164535
0.001631
0.000175714
0.00129786
0.000183874
0.000943128
0.000188868
0.000572431
0.00019212
0.000190631
2.38393e-05
0.00295341
2.62447e-08
4.78752e-05
0.00287908
7.1294e-05
0.00277072
9.35779e-05
0.00261961
0.000114298
0.00242566
0.000133074
0.00219132
0.000149569
0.0019203
0.000163493
0.00161708
0.000174602
0.00128675
0.000182709
0.000935025
0.000187672
0.000567477
0.000190389
0.000189421
2.36866e-05
0.0029297
2.67746e-08
4.757e-05
0.00285519
7.08404e-05
0.00274745
9.29834e-05
0.00259747
0.000113572
0.00240507
0.00013223
0.00217266
0.000148621
0.00190391
0.000162457
0.00160324
0.000173496
0.00127571
0.000181553
0.00092696
0.000186483
0.000562534
0.000188631
0.000188219
2.35349e-05
0.00290613
2.71734e-08
4.72669e-05
0.00283146
7.03898e-05
0.00272433
9.23927e-05
0.00257547
0.000112852
0.00238461
0.000131391
0.00215412
0.000147679
0.00188762
0.000161428
0.00158949
0.000172398
0.00126474
0.000180403
0.000918959
0.000185303
0.000557642
0.000186923
0.000187024
2.33842e-05
0.00288272
2.7477e-08
4.69657e-05
0.00280788
6.99421e-05
0.00270135
9.18059e-05
0.0025536
0.000112135
0.00236428
0.000130558
0.0021357
0.000146743
0.00187144
0.000160405
0.00157583
0.000171306
0.00125384
0.000179261
0.000910996
0.000184129
0.00055276
0.00018519
0.000185837
2.32346e-05
0.00285946
2.77124e-08
4.66665e-05
0.00278445
6.94974e-05
0.00267852
9.12228e-05
0.00253188
0.000111424
0.00234408
0.00012973
0.00211739
0.000145813
0.00185536
0.000159389
0.00156225
0.000170221
0.00124301
0.000178126
0.000903095
0.000182963
0.00054793
0.000183505
0.000184658
2.30861e-05
0.00283635
2.7892e-08
4.63692e-05
0.00276117
6.90555e-05
0.00265583
9.06435e-05
0.00251029
0.000110717
0.00232401
0.000128908
0.0020992
0.000144889
0.00183937
0.000158379
0.00154876
0.000169143
0.00123224
0.000176999
0.000895232
0.000181805
0.000543111
0.000181793
0.000183486
2.29385e-05
0.00281338
2.80176e-08
4.6074e-05
0.00273803
6.86165e-05
0.00263329
9.00679e-05
0.00248884
0.000110014
0.00230406
0.00012809
0.00208113
0.000143971
0.00182349
0.000157376
0.00153536
0.000168073
0.00122155
0.000175878
0.000887431
0.000180654
0.000538341
0.000180131
0.000182323
2.2792e-05
0.00279056
2.80817e-08
4.57807e-05
0.00271504
6.81804e-05
0.00261089
8.94961e-05
0.00246752
0.000109317
0.00228424
0.000127278
0.00206316
0.000143058
0.00180771
0.000156379
0.00152203
0.000167008
0.00121092
0.000174765
0.000879666
0.00017951
0.000533582
0.000178442
0.000181167
2.26465e-05
0.00276789
2.80774e-08
4.54893e-05
0.0026922
6.7747e-05
0.00258864
8.89278e-05
0.00244634
0.000108623
0.00226455
0.000126471
0.00204532
0.000142152
0.00179203
0.000155389
0.0015088
0.000165951
0.00120036
0.000173659
0.000871962
0.000178374
0.000528873
0.000176803
0.000180018
2.2502e-05
0.00274536
2.80019e-08
4.51999e-05
0.0026695
6.73165e-05
0.00256652
8.83633e-05
0.0024253
0.000107934
0.00224497
0.000125669
0.00202758
0.000141251
0.00177645
0.000154404
0.00149564
0.0001649
0.00118986
0.000172559
0.000864295
0.000177245
0.000524173
0.000175136
0.000178878
2.23586e-05
0.00272297
2.78651e-08
4.49123e-05
0.00264695
6.68888e-05
0.00254454
8.78023e-05
0.00240439
0.000107249
0.00222553
0.000124873
0.00200996
0.000140356
0.00176097
0.000153426
0.00148257
0.000163856
0.00117943
0.000171467
0.000856688
0.000176123
0.000519523
0.00017352
0.000177744
2.22161e-05
0.00270073
2.76885e-08
4.46267e-05
0.00262454
6.64639e-05
0.00252271
8.7245e-05
0.0023836
0.000106569
0.0022062
0.000124081
0.00199244
0.000139466
0.00174558
0.000152455
0.00146958
0.000162819
0.00116906
0.000170382
0.000849117
0.000175008
0.00051488
0.000171875
0.000176619
2.20746e-05
0.00267862
2.75075e-08
4.4343e-05
0.00260227
6.60417e-05
0.00250101
8.66913e-05
0.00236296
0.000105893
0.002187
0.000123294
0.00197504
0.000138583
0.00173029
0.000151489
0.00145667
0.000161788
0.00115877
0.000169304
0.000841606
0.000173901
0.000510287
0.000170282
0.0001755
2.19341e-05
0.00265666
2.73631e-08
4.40611e-05
0.00258014
6.56222e-05
0.00247945
8.6141e-05
0.00234244
0.000105221
0.00216792
0.000122513
0.00195775
0.000137705
0.0017151
0.00015053
0.00144385
0.000160764
0.00114853
0.000168232
0.000834129
0.0001728
0.000505703
0.000168662
0.000174389
2.17946e-05
0.00263484
2.7298e-08
4.37811e-05
0.00255816
6.52055e-05
0.00245802
8.55943e-05
0.00232205
0.000104554
0.00214896
0.000121736
0.00194057
0.000136832
0.0017
0.000149576
0.0014311
0.000159746
0.00113836
0.000167167
0.000826712
0.000171707
0.000501168
0.000167093
0.000173286
2.1656e-05
0.00261316
2.73457e-08
4.35029e-05
0.00253631
6.47914e-05
0.00243673
8.50511e-05
0.00230179
0.000103891
0.00213013
0.000120964
0.00192349
0.000135965
0.001685
0.000148629
0.00141843
0.000158735
0.00112825
0.00016611
0.000819329
0.000170621
0.000496641
0.000165495
0.000172189
2.15184e-05
0.00259161
2.75264e-08
4.32265e-05
0.0025146
6.438e-05
0.00241558
8.45114e-05
0.00228166
0.000103232
0.00211141
0.000120197
0.00190653
0.000135104
0.0016701
0.000147688
0.00140585
0.000157731
0.00111821
0.000165059
0.000812005
0.000169542
0.000492163
0.00016395
0.0001711
2.13817e-05
0.0025702
2.78389e-08
4.2952e-05
0.00249303
6.39713e-05
0.00239456
8.39752e-05
0.00226165
0.000102577
0.0020928
0.000119435
0.00188967
0.000134248
0.00165528
0.000146753
0.00139334
0.000156732
0.00110823
0.000164015
0.000804715
0.000168469
0.000487694
0.000162376
0.000170017
2.1246e-05
0.00254893
2.82625e-08
4.26793e-05
0.0024716
6.35652e-05
0.00237368
8.34423e-05
0.00224178
0.000101926
0.00207432
0.000118678
0.00187292
0.000133397
0.00164056
0.000145824
0.00138092
0.000155741
0.00109831
0.000162977
0.000797482
0.000167404
0.000483273
0.000160852
0.000168942
2.11112e-05
0.00252779
2.87554e-08
4.24083e-05
0.0024503
6.31617e-05
0.00235292
8.29129e-05
0.00222203
0.00010128
0.00205595
0.000117926
0.00185627
0.000132552
0.00162594
0.000144901
0.00136857
0.000154755
0.00108845
0.000161946
0.000790283
0.000166345
0.000478861
0.000159301
0.000167874
2.09772e-05
0.00250678
2.92639e-08
4.21392e-05
0.00242914
6.27608e-05
0.0023323
8.23868e-05
0.0022024
0.000100638
0.0020377
0.000117179
0.00183973
0.000131713
0.0016114
0.000143983
0.0013563
0.000153776
0.00107866
0.000160922
0.000783141
0.000165294
0.000474497
0.000157796
0.000166812
2.08442e-05
0.00248591
2.97253e-08
4.18718e-05
0.00240811
6.23625e-05
0.00231181
8.18641e-05
0.0021829
9.99996e-05
0.00201957
0.000116436
0.00182329
0.000130878
0.00159696
0.000143072
0.0013441
0.000152803
0.00106893
0.000159905
0.000776031
0.000164249
0.00047014
0.000156261
0.000165757
2.07121e-05
0.00246516
3.00809e-08
4.16061e-05
0.00238722
6.19668e-05
0.00229145
8.13448e-05
0.00216352
9.93655e-05
0.00200155
0.000115698
0.00180696
0.00013005
0.00158261
0.000142166
0.00133199
0.000151837
0.00105926
0.000158894
0.000768978
0.000163211
0.000465829
0.000154773
0.00016471
2.05809e-05
0.00244455
3.02787e-08
4.13422e-05
0.00236646
6.15736e-05
0.00227122
8.08288e-05
0.00214427
9.87354e-05
0.00198364
0.000114965
0.00179073
0.000129226
0.00156835
0.000141267
0.00131994
0.000150877
0.00104965
0.000157889
0.000761957
0.00016218
0.000461527
0.000153254
0.000163669
2.04505e-05
0.00242407
3.02837e-08
4.10799e-05
0.00234583
6.11829e-05
0.00225112
8.03161e-05
0.00212514
9.81094e-05
0.00196585
0.000114237
0.00177461
0.000128408
0.00155418
0.000140373
0.00130798
0.000149922
0.0010401
0.000156891
0.000754991
0.000161155
0.000457269
0.00015178
0.000162634
2.0321e-05
0.00240372
3.00758e-08
4.08194e-05
0.00232533
6.07947e-05
0.00223114
7.98066e-05
0.00210613
9.74874e-05
0.00194817
0.000113513
0.00175858
0.000127595
0.00154009
0.000139485
0.00129609
0.000148975
0.00103061
0.0001559
0.000748057
0.000160137
0.000453019
0.000150276
0.000161607
2.01923e-05
0.0023835
2.96541e-08
4.05605e-05
0.00230496
6.0409e-05
0.00221129
7.93004e-05
0.00208724
9.68694e-05
0.0019306
0.000112794
0.00174266
0.000126787
0.0015261
0.000138602
0.00128427
0.000148033
0.00102118
0.000154915
0.000741179
0.000159125
0.000448813
0.000148816
0.000160586
2.00645e-05
0.0023634
2.90287e-08
4.03033e-05
0.00228472
6.00258e-05
0.00219157
7.87975e-05
0.00206846
9.62554e-05
0.00191314
0.000112079
0.00172683
0.000125984
0.00151219
0.000137726
0.00127253
0.000147097
0.0010118
0.000153936
0.000734331
0.000158121
0.000444614
0.000147327
0.000159572
1.99375e-05
0.00234344
2.82207e-08
4.00478e-05
0.00226461
5.9645e-05
0.00217198
7.82978e-05
0.00204981
9.56452e-05
0.0018958
0.000111369
0.00171111
0.000125187
0.00149838
0.000136855
0.00126086
0.000146168
0.00100249
0.000152964
0.000727537
0.000157122
0.000440459
0.000145883
0.000158565
1.98114e-05
0.0023236
2.72506e-08
3.97939e-05
0.00224463
5.92667e-05
0.0021525
7.78013e-05
0.00203128
9.50391e-05
0.00187856
0.000110664
0.00169549
0.000124395
0.00148465
0.000135989
0.00124926
0.000145244
0.000993232
0.000151998
0.000720774
0.000156131
0.000436309
0.000144408
0.000157564
1.96861e-05
0.00230389
2.61391e-08
3.95416e-05
0.00222478
5.88909e-05
0.00213315
7.7308e-05
0.00201286
9.44368e-05
0.00186143
0.000109963
0.00167996
0.000123608
0.001471
0.00013513
0.00123775
0.000144326
0.000984038
0.000151038
0.000714065
0.000155145
0.000432204
0.000142981
0.00015657
1.95616e-05
0.0022843
2.48976e-08
3.9291e-05
0.00220505
5.85174e-05
0.00211393
7.68179e-05
0.00199456
9.38384e-05
0.00184441
0.000109267
0.00166453
0.000122826
0.00145744
0.000134275
0.00122629
0.000143415
0.000974894
0.000150085
0.000707386
0.000154167
0.000428105
0.000141525
0.000155583
1.94379e-05
0.00226484
2.35334e-08
3.9042e-05
0.00218544
5.81463e-05
0.00209482
7.63309e-05
0.00197638
9.32439e-05
0.0018275
0.000108575
0.0016492
0.000122049
0.00144397
0.000133427
0.00121492
0.000142509
0.000965815
0.000149138
0.000700759
0.000153194
0.00042405
0.000140116
0.000154602
1.93151e-05
0.0022455
2.20447e-08
3.87946e-05
0.00216597
5.77777e-05
0.00207584
7.58471e-05
0.00195831
9.26532e-05
0.0018107
0.000107888
0.00163397
0.000121277
0.00143058
0.000132584
0.00120361
0.000141609
0.000956784
0.000148197
0.000694163
0.000152228
0.00042
0.000138676
0.000153627
1.9193e-05
0.00222629
2.04303e-08
3.85488e-05
0.00214661
5.74114e-05
0.00205698
7.53663e-05
0.00194036
9.20663e-05
0.001794
0.000107205
0.00161883
0.00012051
0.00141728
0.000131746
0.00119237
0.000140715
0.000947817
0.000147262
0.000687618
0.000151268
0.000415995
0.000137284
0.00015266
1.90718e-05
0.0022072
1.8687e-08
3.83045e-05
0.00212738
5.70474e-05
0.00203824
7.48887e-05
0.00192252
9.14832e-05
0.0017774
0.000106527
0.00160379
0.000119748
0.00140406
0.000130914
0.00118121
0.000139827
0.000938899
0.000146333
0.000681103
0.000150315
0.000411996
0.000135864
0.000151698
1.89514e-05
0.00218823
1.68202e-08
3.80618e-05
0.00210827
5.66858e-05
0.00201962
7.44142e-05
0.00190479
9.09039e-05
0.00176092
0.000105853
0.00158884
0.000118991
0.00139092
0.000130087
0.00117011
0.000138945
0.000930043
0.00014541
0.00067464
0.000149368
0.00040804
0.00013449
0.000150743
1.88317e-05
0.00216938
1.48394e-08
3.78207e-05
0.00208928
5.63266e-05
0.00200111
7.39428e-05
0.00188718
9.03283e-05
0.00174453
0.000105183
0.00157399
0.000118239
0.00137786
0.000129266
0.00115908
0.000138068
0.000921235
0.000144493
0.000668204
0.000148427
0.00040409
0.000133088
0.000149794
1.87129e-05
0.00215066
1.27649e-08
3.75812e-05
0.00207041
5.59696e-05
0.00198272
7.34744e-05
0.00186967
8.97565e-05
0.00172825
0.000104518
0.00155923
0.000117492
0.00136489
0.00012845
0.00114813
0.000137198
0.00091249
0.000143583
0.000661821
0.000147492
0.000400183
0.000131731
0.000148851
1.85949e-05
0.00213205
1.06203e-08
3.73432e-05
0.00205167
5.5615e-05
0.00196445
7.3009e-05
0.00185228
8.91884e-05
0.00171207
0.000103857
0.00154456
0.00011675
0.001352
0.000127639
0.00113724
0.000136333
0.000903791
0.000142678
0.000655465
0.000146563
0.000396282
0.000130346
0.000147914
1.84776e-05
0.00211356
8.43528e-09
3.71068e-05
0.00203304
5.52627e-05
0.0019463
7.25467e-05
0.001835
8.86241e-05
0.001696
0.0001032
0.00152998
0.000116012
0.00133919
0.000126834
0.00112642
0.000135473
0.000895154
0.000141779
0.00064916
0.00014564
0.000392423
0.000129004
0.000146983
1.83612e-05
0.0020952
6.23573e-09
3.68719e-05
0.00201453
5.49127e-05
0.00192826
7.20874e-05
0.00181782
8.80634e-05
0.00168002
0.000102548
0.0015155
0.00011528
0.00132646
0.000126034
0.00111566
0.000134619
0.000886563
0.000140886
0.000642882
0.000144724
0.000388569
0.000127635
0.000146059
1.82455e-05
0.00207695
4.04635e-09
3.66386e-05
0.00199613
5.4565e-05
0.00191033
7.16311e-05
0.00180076
8.75064e-05
0.00166415
0.0001019
0.00150111
0.000114552
0.00131381
0.000125239
0.00110498
0.000133771
0.000878033
0.000139999
0.000636655
0.000143813
0.000384756
0.000126308
0.00014514
1.81306e-05
0.00205881
1.88217e-09
3.64068e-05
0.00197786
5.42196e-05
0.00189252
7.11779e-05
0.0017838
8.6953e-05
0.00164837
0.000101256
0.00148681
0.000113829
0.00130123
0.000124449
0.00109436
0.000132928
0.000869548
0.000139118
0.000630455
0.000142908
0.000380949
0.000124954
0.000144228
1.80165e-05
0.0020408
-2.45871e-10
3.61765e-05
0.0019597
5.38764e-05
0.00187482
7.07275e-05
0.00176695
8.64032e-05
0.0016327
0.000100617
0.0014726
0.000113111
0.00128874
0.000123664
0.00108381
0.000132091
0.000861124
0.000138243
0.000624304
0.000142009
0.000377182
0.000123641
0.000143322
1.79032e-05
0.00202289
-2.33684e-09
3.59478e-05
0.00194166
5.35355e-05
0.00185723
7.02802e-05
0.00175021
8.58571e-05
0.00161712
9.99812e-05
0.00145847
0.000112397
0.00127633
0.000122885
0.00107331
0.000131259
0.000852744
0.000137373
0.00061818
0.000141117
0.000373421
0.000122302
0.000142422
1.77907e-05
0.00200511
-4.3913e-09
3.57206e-05
0.00192373
5.31968e-05
0.00183976
6.98357e-05
0.00173357
8.53145e-05
0.00160165
9.935e-05
0.00144444
0.000111688
0.00126399
0.000122111
0.0010629
0.000130433
0.000844424
0.000136509
0.000612104
0.00014023
0.0003697
0.000121002
0.000141528
1.76789e-05
0.00198744
-6.41591e-09
3.54949e-05
0.00190591
5.28604e-05
0.0018224
6.93942e-05
0.00171704
8.47755e-05
0.00158627
9.87229e-05
0.00143049
0.000110984
0.00125173
0.000121342
0.00105254
0.000129612
0.000836148
0.00013565
0.000606055
0.000139349
0.000365984
0.000119677
0.00014064
1.75679e-05
0.00196988
-8.41459e-09
3.52707e-05
0.00188821
5.25261e-05
0.00180514
6.89555e-05
0.00170061
8.424e-05
0.00157099
9.80999e-05
0.00141664
0.000110284
0.00123955
0.000120577
0.00104225
0.000128796
0.000827931
0.000134798
0.000600055
0.000138474
0.000362307
0.000118391
0.000139758
1.74577e-05
0.00195243
-1.03942e-08
3.50479e-05
0.00187062
5.21941e-05
0.001788
6.85198e-05
0.00168429
8.3708e-05
0.0015558
9.7481e-05
0.00140287
0.000109589
0.00122744
0.000119818
0.00103201
0.000127986
0.000819757
0.000133951
0.00059408
0.000137604
0.000358636
0.000117081
0.000138881
1.73483e-05
0.00193509
-1.23568e-08
3.48267e-05
0.00185314
5.18642e-05
0.00177096
6.80869e-05
0.00166807
8.31795e-05
0.00154071
9.68661e-05
0.00138918
0.000108899
0.00121541
0.000119064
0.00102185
0.000127182
0.000811641
0.000133109
0.000588152
0.00013674
0.000355003
0.000115809
0.00013801
1.72396e-05
0.00191787
-1.43065e-08
3.46069e-05
0.00183578
5.15365e-05
0.00175403
6.76568e-05
0.00165195
8.26544e-05
0.00152572
9.62553e-05
0.00137558
0.000108213
0.00120346
0.000118315
0.00101175
0.000126382
0.000803568
0.000132273
0.000582251
0.000135883
0.000351377
0.000114515
0.000137144
1.71316e-05
0.00190075
-1.62422e-08
3.43886e-05
0.00181852
5.1211e-05
0.00173721
6.72296e-05
0.00163594
8.21329e-05
0.00151082
9.56486e-05
0.00136207
0.000107531
0.00119158
0.000117571
0.00100171
0.000125588
0.000795553
0.000131443
0.000576396
0.00013503
0.000347788
0.000113258
0.000136285
1.70245e-05
0.00188374
-1.81643e-08
3.41718e-05
0.00180137
5.08877e-05
0.0017205
6.68053e-05
0.00162002
8.16148e-05
0.00149601
9.50458e-05
0.00134864
0.000106854
0.00117977
0.000116831
0.00099173
0.000124799
0.00078758
0.000130618
0.000570567
0.000134184
0.000344205
0.000111979
0.00013543
1.6918e-05
0.00186685
-2.00671e-08
3.39565e-05
0.00178434
5.05665e-05
0.00170389
6.63837e-05
0.00160421
8.11001e-05
0.0014813
9.4447e-05
0.0013353
0.000106182
0.00116804
0.000116097
0.000981818
0.000124015
0.000779663
0.000129798
0.000564784
0.000133342
0.000340659
0.000110737
0.000134582
1.68124e-05
0.00185005
-2.19453e-08
3.37426e-05
0.00176741
5.02475e-05
0.00168739
6.5965e-05
0.00158849
8.05888e-05
0.00146667
9.38522e-05
0.00132203
0.000105514
0.00115637
0.000115367
0.000971962
0.000123236
0.000771788
0.000128984
0.000559026
0.000132507
0.00033712
0.000109474
0.000133739
1.67075e-05
0.00183337
-2.37866e-08
3.35302e-05
0.00175059
4.99307e-05
0.00167099
6.5549e-05
0.00157287
8.0081e-05
0.00145215
9.32613e-05
0.00130886
0.00010485
0.00114479
0.000114642
0.000962172
0.000122463
0.000763969
0.000128175
0.000553314
0.000131677
0.000333617
0.000108245
0.000132902
1.66033e-05
0.00181679
-2.55808e-08
3.33193e-05
0.00173387
4.96159e-05
0.0016547
6.51358e-05
0.00155736
7.95764e-05
0.00143771
9.26744e-05
0.00129576
0.000104191
0.00113327
0.000113922
0.000952438
0.000121694
0.000756191
0.000127372
0.000547626
0.000130852
0.00033012
0.000106997
0.000132071
1.64999e-05
0.00180032
-2.73138e-08
3.31098e-05
0.00171726
4.93033e-05
0.0016385
6.47254e-05
0.00154194
7.90753e-05
0.00142336
9.20913e-05
0.00128275
0.000103536
0.00112183
0.000113207
0.00094277
0.000120931
0.000748469
0.000126574
0.000541984
0.000130033
0.000326659
0.000105782
0.000131245
1.63972e-05
0.00178395
-2.89787e-08
3.29016e-05
0.00170076
4.89928e-05
0.00162241
6.43177e-05
0.00152661
7.85774e-05
0.0014091
9.1512e-05
0.00126982
0.000102885
0.00111046
0.000112496
0.000933156
0.000120173
0.000740786
0.000125781
0.000536366
0.000129219
0.000323206
0.000104548
0.000130425
1.62951e-05
0.00176769
-3.05712e-08
3.26949e-05
0.00168436
4.86843e-05
0.00160643
6.39126e-05
0.00151139
7.80828e-05
0.00139494
9.09365e-05
0.00125697
0.000102239
0.00109916
0.00011179
0.000923608
0.000119419
0.000733159
0.000124993
0.000530793
0.000128411
0.000319786
0.000103346
0.000129611
1.61938e-05
0.00175152
-3.20999e-08
3.24896e-05
0.00166807
4.83778e-05
0.00159054
6.35103e-05
0.00149626
7.75915e-05
0.00138086
9.03648e-05
0.00124419
0.000101597
0.00108793
0.000111089
0.000914113
0.000118671
0.000725571
0.000124211
0.000525244
0.000127608
0.000316374
0.000102125
0.000128802
1.60932e-05
0.00173546
-3.35778e-08
3.22857e-05
0.00165188
4.80734e-05
0.00157476
6.31105e-05
0.00148123
7.71033e-05
0.00136687
8.97969e-05
0.0012315
0.000100959
0.00107677
0.000110392
0.000904683
0.000117927
0.000718038
0.000123433
0.000519739
0.00012681
0.000312996
0.000100935
0.000127998
1.59933e-05
0.00171951
-3.50284e-08
3.20831e-05
0.00163579
4.7771e-05
0.00155907
6.27134e-05
0.00146629
7.66184e-05
0.00135296
8.92327e-05
0.00121889
0.000100325
0.00106567
0.0001097
0.000895305
0.000117189
0.000710543
0.000122661
0.000514258
0.000126018
0.000309625
9.97268e-05
0.0001272
1.5894e-05
0.00170365
-3.64714e-08
3.18818e-05
0.0016198
4.74706e-05
0.00154348
6.23189e-05
0.00145144
7.61367e-05
0.00133915
8.86722e-05
0.00120636
9.96955e-05
0.00105465
0.000109013
0.000885992
0.000116455
0.000703102
0.000121894
0.00050882
0.000125231
0.000306288
9.85496e-05
0.000126407
1.57954e-05
0.00168789
-3.79258e-08
3.16819e-05
0.00160392
4.71722e-05
0.001528
6.1927e-05
0.00143669
7.56581e-05
0.00132542
8.81154e-05
0.0011939
9.90702e-05
0.0010437
0.00010833
0.00087673
0.000115726
0.000695699
0.000121132
0.000503406
0.000124449
0.000302957
9.73552e-05
0.000125619
1.56975e-05
0.00167223
-3.9395e-08
3.14833e-05
0.00158814
4.68757e-05
0.00151261
6.15377e-05
0.00142203
7.51827e-05
0.00131178
8.75623e-05
0.00118153
9.84489e-05