/*--------------------------------*- C++ -*----------------------------------*\
  =========                 |
  \\      /  F ield         | OpenFOAM: The Open Source CFD Toolbox
   \\    /   O peration     | Website:  https://openfoam.org
    \\  /    A nd           | Version:  6.0
     \\/     M anipulation  |
\*---------------------------------------------------------------------------*/
FoamFile
{
    version     2.0;
    format      ascii;
    class       volVectorField;
    location    "0.1";
    object      U;
}
// * * * * * * * * * * * * * * * * * * * * * * * * * * * * * * * * * * * * * //

dimensions      [0 1 -1 0 0 0 0];

internalField   nonuniform List<vector> 
24000
(
(0.999995 -4.901e-06 -7.95943e-17)
(0.999952 -2.47996e-05 1.0836e-16)
(0.999884 -6.59003e-05 -1.90489e-16)
(0.999814 -0.000125692 2.10171e-16)
(0.999761 -0.000198526 -1.03677e-15)
(0.999741 -0.000271057 -6.14591e-16)
(0.999758 -0.000325601 6.29232e-16)
(0.999812 -0.000338852 -1.39415e-15)
(0.999899 -0.000275399 4.37551e-16)
(0.999999 -0.000113147 -3.21588e-16)
(1.00007 0.000356489 -3.10689e-16)
(1.00192 0.0022916 -4.56332e-16)
(0.99999 -1.62637e-05 1.16682e-16)
(0.999915 -6.16503e-05 -1.60343e-16)
(0.999799 -0.000141242 3.55942e-16)
(0.999682 -0.000247869 -8.88563e-17)
(0.999597 -0.00037406 4.61428e-16)
(0.999573 -0.000497558 6.21517e-16)
(0.999615 -0.000584337 -3.50054e-16)
(0.999725 -0.000593217 1.48083e-15)
(0.999891 -0.000461261 -3.10683e-16)
(1.00009 -0.000151836 1.59533e-17)
(1.00013 0.00066485 8.11267e-17)
(1.00338 0.00353817 1.52019e-16)
(0.999989 -2.89147e-05 -8.88732e-17)
(0.999926 -8.89666e-05 2.1605e-16)
(0.999831 -0.000174403 -1.23366e-16)
(0.999743 -0.000272754 4.51019e-16)
(0.999689 -0.00037867 2.51281e-16)
(0.999691 -0.000473216 2.31118e-16)
(0.999754 -0.00052386 5.17626e-16)
(0.999876 -0.000495175 -6.58239e-16)
(1.00004 -0.000331058 -3.67255e-16)
(1.00024 -1.00537e-05 -1.29577e-16)
(1.00017 0.000770732 -2.89508e-17)
(1.0035 0.00309477 4.81017e-16)
(0.999989 -4.24542e-05 -3.79483e-17)
(0.999937 -0.000116148 -2.04416e-16)
(0.999863 -0.000206948 -3.1559e-16)
(0.9998 -0.00029978 -2.23595e-16)
(0.999769 -0.000392165 -1.30948e-16)
(0.999788 -0.000469529 -9.04659e-16)
(0.999861 -0.000501883 -1.43315e-15)
(0.999985 -0.00045957 1.63733e-16)
(1.00014 -0.00029348 4.68789e-17)
(1.00035 5.23664e-06 6.44061e-16)
(1.0002 0.000694047 -4.10506e-16)
(1.00321 0.00258155 -5.63047e-16)
(0.999986 -5.60939e-05 6.76052e-17)
(0.999935 -0.00014442 3.29995e-17)
(0.999865 -0.000247736 1.59933e-16)
(0.999805 -0.000350966 -7.5584e-17)
(0.999775 -0.000453549 2.07671e-16)
(0.999797 -0.000542882 1.86901e-16)
(0.999874 -0.000588166 1.44985e-15)
(1 -0.000559206 -9.47167e-17)
(1.00017 -0.000405573 -2.79401e-16)
(1.00041 -0.000117408 7.59011e-17)
(1.00026 0.000523199 2.83301e-16)
(1.00289 0.00223433 -1.49159e-16)
(0.999982 -6.93084e-05 3.91219e-18)
(0.99993 -0.000171422 -1.89885e-17)
(0.999862 -0.000287877 -2.13473e-17)
(0.999801 -0.000403825 -3.86455e-18)
(0.999774 -0.000518922 -8.61873e-16)
(0.999799 -0.000621434 1.05465e-15)
(0.999881 -0.000679873 2.92867e-17)
(1.00002 -0.000662335 1.46025e-16)
(1.0002 -0.000515595 6.90535e-16)
(1.00047 -0.000221115 -3.39704e-16)
(1.00036 0.000399604 5.14104e-16)
(1.00266 0.00201282 3.41886e-16)
(0.999977 -8.19344e-05 -3.5404e-18)
(0.999928 -0.000196387 2.04766e-16)
(0.999866 -0.000323429 -2.07627e-16)
(0.999813 -0.00044771 -1.01216e-16)
(0.999796 -0.000567586 4.4292e-16)
(0.999833 -0.000671763 -2.1787e-16)
(0.999925 -0.000729768 -6.03384e-16)
(1.00008 -0.000710118 -3.13009e-16)
(1.00027 -0.000559506 1.21965e-16)
(1.00057 -0.00025082 6.00785e-16)
(1.00049 0.00035403 -1.21356e-15)
(1.00251 0.00187879 3.13578e-16)
(0.999973 -9.39049e-05 -5.22932e-17)
(0.999928 -0.000219968 7.92721e-17)
(0.999874 -0.000356664 2.39248e-16)
(0.999831 -0.000487904 4.52824e-16)
(0.999828 -0.000609967 2.41043e-16)
(0.99988 -0.000711199 -2.67456e-16)
(0.999986 -0.000762602 -2.90788e-16)
(1.00015 -0.000734499 -1.39366e-16)
(1.00035 -0.000575579 4.81288e-17)
(1.00067 -0.000253274 -1.30154e-16)
(1.00063 0.000332587 1.03905e-15)
(1.00243 0.00176514 -5.42337e-16)
(0.999967 -0.000105121 2.05893e-17)
(0.999926 -0.000242707 -1.94671e-16)
(0.999879 -0.000389763 1.46013e-17)
(0.999845 -0.000529718 -7.22638e-17)
(0.999854 -0.000656864 7.29131e-17)
(0.999919 -0.000758308 -6.1054e-17)
(1.00004 -0.000805806 5.11548e-17)
(1.00022 -0.000771223 5.58079e-16)
(1.00043 -0.000605719 -6.91522e-17)
(1.00076 -0.000273369 -7.88226e-16)
(1.00077 0.00029301 -8.76496e-16)
(1.00239 0.00163352 9.65043e-16)
(0.999961 -0.000115488 7.31751e-17)
(0.999922 -0.000264665 4.86608e-18)
(0.999882 -0.000422795 1.84348e-16)
(0.999854 -0.000572994 -4.8321e-16)
(0.999872 -0.000708219 -1.1531e-16)
(0.999948 -0.000814001 5.21809e-16)
(1.00008 -0.000862107 -4.43205e-16)
(1.00027 -0.000824948 -6.68339e-16)
(1.0005 -0.000655773 2.04634e-16)
(1.00085 -0.000315465 2.05073e-16)
(1.0009 0.00023505 6.51757e-16)
(1.00237 0.00149664 -1.3652e-16)
(0.999954 -0.000124964 -1.00366e-16)
(0.999919 -0.000285822 -2.31037e-17)
(0.999885 -0.000455161 -2.19705e-16)
(0.999865 -0.000615611 3.65483e-17)
(0.999891 -0.000759527 1.67066e-16)
(0.999977 -0.000871115 -3.60117e-16)
(1.00012 -0.000921949 2.70528e-16)
(1.00033 -0.000884113 7.53041e-16)
(1.00057 -0.000712365 -5.61339e-16)
(1.00093 -0.000363745 2.23768e-16)
(1.00103 0.000176452 -8.44254e-16)
(1.00238 0.00137713 -8.94566e-16)
(0.999946 -0.000133554 6.51588e-18)
(0.999915 -0.000306278 1.91908e-16)
(0.999889 -0.000486719 -1.92427e-16)
(0.999877 -0.000656591 1.48785e-16)
(0.999913 -0.000808122 -4.57168e-16)
(1.00001 -0.000924689 -2.03672e-16)
(1.00016 -0.000977904 6.63128e-17)
(1.00038 -0.000939113 -3.0243e-16)
(1.00064 -0.000764223 -3.93572e-16)
(1.00102 -0.00040613 3.62122e-16)
(1.00116 0.000128243 2.84617e-16)
(1.00242 0.00127916 9.97889e-18)
(0.999937 -0.000141289 2.45165e-17)
(0.99991 -0.00032622 -1.91782e-17)
(0.999893 -0.000517812 5.30214e-16)
(0.999892 -0.000696392 1.5292e-16)
(0.999938 -0.000854225 2.61323e-16)
(1.00005 -0.000974282 -2.92065e-16)
(1.00021 -0.00102858 -1.47682e-16)
(1.00045 -0.000987749 1.20399e-16)
(1.00071 -0.000808868 4.64845e-16)
(1.00111 -0.000441104 -1.21661e-15)
(1.00129 8.9277e-05 -4.84758e-16)
(1.00246 0.00119381 5.36494e-16)
(0.999927 -0.000148202 -7.57178e-17)
(0.999905 -0.000345804 -6.73785e-17)
(0.999897 -0.000548865 -4.19039e-16)
(0.999907 -0.000735999 -3.31045e-16)
(0.999965 -0.000899486 -2.31972e-16)
(1.00009 -0.00102214 3.64571e-16)
(1.00027 -0.0010766 2.50685e-16)
(1.00051 -0.00103308 -2.76121e-16)
(1.00079 -0.000850041 -3.70422e-16)
(1.0012 -0.000473763 -1.32592e-16)
(1.00142 5.24944e-05 6.88463e-16)
(1.00251 0.00111147 -4.76767e-16)
(0.999916 -0.000154334 4.07571e-17)
(0.999898 -0.000365123 3.22104e-17)
(0.999898 -0.00058017 4.94983e-17)
(0.99992 -0.000776247 7.89584e-17)
(0.99999 -0.000945614 8.20861e-17)
(1.00012 -0.00107101 -1.48074e-16)
(1.00032 -0.00112571 7.76444e-18)
(1.00058 -0.00107974 -3.82434e-16)
(1.00087 -0.000893121 3.62001e-16)
(1.00129 -0.000510026 1.37903e-15)
(1.00154 1.19614e-05 -2.04693e-16)
(1.00257 0.00102769 6.64024e-16)
(0.999904 -0.000159717 -3.93538e-17)
(0.99989 -0.000384196 1.48581e-18)
(0.999898 -0.000611797 1.4772e-16)
(0.99993 -0.000817484 2.08844e-16)
(1.00001 -0.000993532 2.30985e-16)
(1.00016 -0.00112259 -1.50058e-16)
(1.00037 -0.00117842 -2.41612e-16)
(1.00064 -0.00113084 5.90769e-16)
(1.00095 -0.000941423 1.43019e-16)
(1.00138 -0.000552654 -1.48629e-15)
(1.00166 -3.36815e-05 2.34656e-16)
(1.00263 0.000943917 2.20117e-17)
(0.99989 -0.000164387 9.00433e-17)
(0.99988 -0.000403008 3.30739e-17)
(0.999896 -0.000643653 -3.19291e-16)
(0.999939 -0.000859592 1.37765e-16)
(1.00003 -0.00104319 -5.60666e-17)
(1.00019 -0.00117701 3.66928e-16)
(1.00042 -0.00123498 6.24658e-16)
(1.0007 -0.0011866 1.05158e-16)
(1.00102 -0.000994758 5.09779e-16)
(1.00147 -0.000600384 1.23561e-15)
(1.00178 -8.18005e-05 1.42748e-15)
(1.0027 0.000864245 -5.29868e-16)
(0.999876 -0.000168379 3.46087e-17)
(0.999869 -0.000421515 -2.74308e-17)
(0.999892 -0.000675553 3.03693e-16)
(0.999946 -0.000902166 -2.76956e-16)
(1.00005 -0.00109389 3.9198e-16)
(1.00023 -0.00123316 4.02644e-18)
(1.00046 -0.00129388 -4.0609e-16)
(1.00076 -0.00124497 1.28019e-16)
(1.0011 -0.00105043 -4.41397e-16)
(1.00156 -0.000649717 -2.15919e-16)
(1.00189 -0.000128593 -5.72579e-16)
(1.00277 0.000791495 -1.05187e-16)
(0.99986 -0.000171729 -4.15046e-17)
(0.999857 -0.00043969 -2.30981e-16)
(0.999887 -0.000707349 -1.26399e-16)
(0.999951 -0.000944843 1.55103e-16)
(1.00007 -0.00114487 -2.8167e-17)
(1.00026 -0.0012898 -2.61704e-16)
(1.00051 -0.0013533 -5.45725e-17)
(1.00083 -0.00130359 -3.37235e-17)
(1.00118 -0.00110565 -5.29823e-16)
(1.00164 -0.000697809 -3.88439e-16)
(1.002 -0.000172081 -1.71657e-15)
(1.00285 0.000725046 1.01235e-15)
(0.999843 -0.000174471 -3.95462e-17)
(0.999844 -0.000457514 2.40467e-16)
(0.999881 -0.000738969 -1.71615e-16)
(0.999957 -0.000987462 7.65807e-17)
(1.00009 -0.00119579 -1.87984e-16)
(1.00029 -0.00134628 -4.2582e-16)
(1.00055 -0.00141231 5.40201e-17)
(1.00089 -0.00136131 -6.89678e-17)
(1.00126 -0.00115934 2.86816e-16)
(1.00173 -0.000744115 4.45515e-16)
(1.00211 -0.000213024 1.53617e-15)
(1.00293 0.000662326 -9.79075e-16)
(0.999825 -0.000176642 2.84449e-17)
(0.99983 -0.000474997 -1.11953e-17)
(0.999874 -0.000770436 2.72158e-17)
(0.999961 -0.00103012 -6.35147e-17)
(1.0001 -0.00124681 -2.36208e-16)
(1.00032 -0.00140282 -9.44397e-18)
(1.0006 -0.00147117 -1.25276e-16)
(1.00095 -0.0014186 -6.69146e-16)
(1.00134 -0.00121235 4.03092e-16)
(1.00183 -0.000790148 2.18169e-16)
(1.00222 -0.00025385 6.49821e-17)
(1.00301 0.000600373 2.20125e-16)
(0.999806 -0.000178276 3.25361e-17)
(0.999815 -0.000492149 -2.63817e-16)
(0.999866 -0.000801806 5.16464e-16)
(0.999965 -0.001073 4.91374e-17)
(1.00012 -0.00129834 1.4328e-16)
(1.00035 -0.00146004 8.68543e-16)
(1.00065 -0.00153077 7.14279e-16)
(1.00102 -0.00147671 3.61475e-16)
(1.00142 -0.00126634 -9.57619e-16)
(1.00192 -0.000837891 -2.79127e-16)
(1.00233 -0.0002967 9.21904e-17)
(1.0031 0.000538031 -3.28622e-17)
(0.999785 -0.000179409 -6.09738e-17)
(0.999799 -0.000508992 1.05094e-16)
(0.999857 -0.000833136 -6.9638e-17)
(0.999967 -0.0011163 -8.84204e-17)
(1.00014 -0.00135076 -2.549e-16)
(1.00038 -0.00151855 -5.04323e-16)
(1.0007 -0.00159197 -2.74112e-16)
(1.00108 -0.00153673 -2.17374e-17)
(1.0015 -0.00132256 2.7754e-16)
(1.00201 -0.000888516 -2.64515e-16)
(1.00244 -0.000342373 -1.55844e-15)
(1.00318 0.000475355 7.84946e-16)
(0.999764 -0.00018008 4.45191e-17)
(0.999782 -0.000525542 6.34139e-18)
(0.999847 -0.000864437 -1.89506e-16)
(0.999968 -0.00116008 -1.44912e-16)
(1.00015 -0.00140426 -8.04085e-17)
(1.00041 -0.00157862 -1.1885e-16)
(1.00074 -0.0016551 -2.16804e-16)
(1.00114 -0.00159902 -2.31274e-16)
(1.00158 -0.00138129 -6.7396e-17)
(1.0021 -0.000941971 -2.4541e-16)
(1.00255 -0.000390342 9.25346e-17)
(1.00327 0.000413707 -1.56214e-16)
(0.999742 -0.000180335 1.526e-17)
(0.999764 -0.000541827 1.49328e-16)
(0.999836 -0.000895701 4.08681e-17)
(0.999967 -0.00120432 -1.56917e-17)
(1.00016 -0.00145882 9.87469e-17)
(1.00044 -0.00164018 2.77487e-16)
(1.00079 -0.00172 1.0681e-16)
(1.00121 -0.00166331 2.67127e-16)
(1.00166 -0.0014421 3.1309e-16)
(1.00219 -0.000997492 -3.05354e-16)
(1.00265 -0.00043963 1.00088e-15)
(1.00336 0.000354414 -6.16309e-16)
(0.999718 -0.000180226 -2.0693e-17)
(0.999745 -0.000557876 -1.95374e-17)
(0.999824 -0.000926894 -1.47657e-16)
(0.999966 -0.00124893 -9.7166e-17)
(1.00018 -0.00151426 -3.48273e-17)
(1.00047 -0.00170298 -1.7872e-16)
(1.00083 -0.0017863 1.04009e-17)
(1.00127 -0.00172906 -3.10938e-16)
(1.00173 -0.00150428 -2.70053e-17)
(1.00228 -0.0010542 1.04939e-15)
(1.00276 -0.00048937 4.94286e-16)
(1.00345 0.000297998 5.25861e-17)
(0.999693 -0.000179819 -9.84512e-18)
(0.999725 -0.00057374 -1.14622e-16)
(0.999811 -0.000958006 -5.05014e-17)
(0.999963 -0.0012938 -7.54403e-17)
(1.00019 -0.00157039 5.56936e-16)
(1.0005 -0.00176674 -1.29027e-16)
(1.00088 -0.00185365 1.53594e-16)
(1.00133 -0.00179583 -1.59567e-16)
(1.00181 -0.00156732 -2.54892e-16)
(1.00237 -0.00111156 -2.64613e-16)
(1.00286 -0.000539138 -1.95752e-17)
(1.00354 0.000244192 -1.99248e-16)
(0.999667 -0.000179183 3.409e-17)
(0.999705 -0.000589481 -4.08388e-17)
(0.999798 -0.000989046 1.71524e-16)
(0.999961 -0.00133885 3.46227e-16)
(1.0002 -0.00162703 -5.2662e-16)
(1.00052 -0.00183125 4.98417e-16)
(1.00092 -0.0019218 -2.75617e-16)
(1.00139 -0.00186335 -1.43893e-16)
(1.00189 -0.00163095 -1.93813e-16)
(1.00246 -0.00116929 -3.54277e-16)
(1.00297 -0.00058876 -1.50168e-16)
(1.00363 0.000192992 -1.19547e-16)
(0.99964 -0.000178399 -5.8229e-18)
(0.999684 -0.000605181 -1.56623e-17)
(0.999784 -0.00102008 -1.5773e-17)
(0.999958 -0.00138406 -3.35149e-16)
(1.00021 -0.00168409 -1.43878e-16)
(1.00055 -0.00189639 -1.3038e-17)
(1.00097 -0.00199065 -3.89248e-16)
(1.00146 -0.00193155 7.17365e-16)
(1.00197 -0.00169509 -5.83909e-18)
(1.00256 -0.00122734 2.50271e-16)
(1.00307 -0.000638189 1.77072e-16)
(1.00373 0.000144578 -5.3651e-18)
(0.999612 -0.00017755 -1.8892e-17)
(0.999662 -0.000620931 1.07846e-16)
(0.99977 -0.00105119 3.21121e-17)
(0.999954 -0.00142945 4.60641e-16)
(1.00022 -0.0017415 2.51372e-16)
(1.00058 -0.00196208 -4.21692e-16)
(1.00101 -0.00206013 1.9148e-16)
(1.00152 -0.00200034 -3.77941e-16)
(1.00205 -0.00175968 1.30833e-15)
(1.00265 -0.00128559 -1.01654e-16)
(1.00318 -0.000687257 2.2318e-17)
(1.00382 9.88299e-05 -1.39346e-16)
(0.999583 -0.000176719 -1.9713e-17)
(0.99964 -0.000636838 7.53417e-17)
(0.999755 -0.00108253 -9.04916e-17)
(0.999951 -0.00147509 -4.47068e-16)
(1.00023 -0.00179925 4.62899e-16)
(1.0006 -0.00202826 2.70773e-16)
(1.00106 -0.00213017 3.42467e-16)
(1.00158 -0.00206966 1.53234e-16)
(1.00213 -0.0018246 -1.0869e-16)
(1.00274 -0.00134388 5.45399e-16)
(1.00328 -0.000735776 -9.87983e-16)
(1.00392 5.562e-05 1.10927e-15)
(0.999552 -0.000175986 2.74688e-17)
(0.999616 -0.000653001 -1.44198e-16)
(0.99974 -0.00111424 -8.41757e-17)
(0.999947 -0.00152111 -2.68102e-17)
(1.00024 -0.00185739 -1.77048e-16)
(1.00063 -0.00209489 -5.02992e-18)
(1.0011 -0.00220068 -2.81503e-16)
(1.00164 -0.00213936 -2.13043e-16)
(1.00221 -0.00188966 -1.20169e-15)
(1.00283 -0.00140198 -3.96439e-16)
(1.00339 -0.000783563 -2.54538e-16)
(1.00402 1.45974e-05 -2.97497e-17)
(0.99952 -0.000175425 1.05343e-17)
(0.999591 -0.000669521 -1.1855e-17)
(0.999723 -0.0011465 -4.25902e-17)
(0.999942 -0.00156767 3.2524e-16)
(1.00025 -0.00191602 -5.52164e-16)
(1.00066 -0.00216197 -4.09744e-16)
(1.00114 -0.00227157 3.52034e-16)
(1.0017 -0.00220932 -2.32884e-17)
(1.00229 -0.00195473 7.28269e-17)
(1.00293 -0.0014598 4.20125e-16)
(1.0035 -0.000830674 -1.67689e-16)
(1.00412 -2.48662e-05 3.00665e-16)
(0.999487 -0.000175099 -1.51748e-17)
(0.999565 -0.000686477 1.70028e-16)
(0.999706 -0.00117944 2.88365e-16)
(0.999937 -0.00161496 -9.60584e-17)
(1.00026 -0.00197526 4.35142e-17)
(1.00068 -0.00222953 1.82051e-16)
(1.00119 -0.00234281 -4.20276e-16)
(1.00177 -0.00227947 4.4249e-16)
(1.00237 -0.00201976 3.43989e-16)
(1.00302 -0.00151737 -2.83278e-16)
(1.0036 -0.000877331 3.23947e-18)
(1.00422 -6.35581e-05 -1.88592e-17)
(0.999453 -0.000175066 -4.29483e-18)
(0.999537 -0.000703937 -2.47007e-16)
(0.999686 -0.00121319 -4.84725e-17)
(0.999931 -0.00166314 5.78909e-17)
(1.00027 -0.0020353 6.51397e-16)
(1.00071 -0.00229772 5.20079e-17)
(1.00123 -0.0024145 3.90223e-16)
(1.00183 -0.0023499 -7.22704e-16)
(1.00245 -0.00208492 3.62884e-16)
(1.00311 -0.00157501 -4.3568e-16)
(1.00371 -0.000924077 9.33474e-16)
(1.00432 -0.00010216 -4.61147e-16)
(0.999418 -0.000175371 2.14683e-17)
(0.999508 -0.000721941 1.09511e-16)
(0.999666 -0.00124782 -1.1628e-16)
(0.999923 -0.00171237 4.78579e-17)
(1.00028 -0.00209632 -3.91845e-16)
(1.00074 -0.00236672 -1.3795e-16)
(1.00128 -0.00248683 2.26446e-17)
(1.00189 -0.00242085 5.17874e-16)
(1.00253 -0.00215053 3.12502e-16)
(1.00321 -0.00163317 -2.15574e-17)
(1.00381 -0.000971524 1.22986e-15)
(1.00442 -0.000141627 -6.03239e-16)
(0.999382 -0.000176055 1.44327e-18)
(0.999477 -0.000740518 1.19527e-16)
(0.999643 -0.00128338 1.19389e-16)
(0.999914 -0.00176278 -1.43888e-17)
(1.00028 -0.00215853 2.86564e-16)
(1.00076 -0.0024368 3.70534e-16)
(1.00132 -0.00256011 -1.13066e-16)
(1.00196 -0.00249271 5.20203e-16)
(1.00262 -0.00221708 -1.19346e-15)
(1.0033 -0.00169245 -1.32311e-16)
(1.00392 -0.00102033 -1.77036e-15)
(1.00452 -0.000183012 1.39176e-16)
(0.999346 -0.000177155 -6.22658e-17)
(0.999446 -0.000759673 7.43693e-17)
(0.99962 -0.00131985 -2.12478e-17)
(0.999903 -0.00181443 1.54961e-16)
(1.00029 -0.00222211 -2.13365e-16)
(1.00079 -0.00250822 -5.19969e-16)
(1.00137 -0.00263469 -3.99959e-17)
(1.00202 -0.0025659 -3.70792e-16)
(1.00269 -0.00228506 1.27126e-15)
(1.00339 -0.00175335 -4.27928e-17)
(1.00402 -0.0010709 3.79921e-16)
(1.00463 -0.000226499 6.95539e-16)
(0.999308 -0.000178706 1.54844e-17)
(0.999413 -0.000779407 -3.18843e-16)
(0.999594 -0.0013572 1.09868e-16)
(0.999891 -0.00186731 -5.09459e-16)
(1.00029 -0.00228715 2.54873e-16)
(1.00081 -0.00258122 8.43813e-16)
(1.00141 -0.0027109 -2.18777e-16)
(1.00208 -0.0026408 -5.17984e-16)
(1.00277 -0.00235488 -4.04558e-16)
(1.00349 -0.0018162 -7.99313e-17)
(1.00413 -0.00112344 3.93753e-16)
(1.00473 -0.000271721 -6.35935e-16)
(0.99927 -0.00018074 3.55118e-17)
(0.999379 -0.000799712 9.26341e-17)
(0.999568 -0.00139537 -3.33652e-16)
(0.999877 -0.00192135 4.62018e-16)
(1.0003 -0.00235365 -6.94595e-16)
(1.00083 -0.00265587 -6.93794e-16)
(1.00145 -0.00278888 2.6448e-16)
(1.00214 -0.00271759 9.2999e-16)
(1.00285 -0.00242666 -5.23744e-16)
(1.00358 -0.00188099 2.10635e-16)
(1.00423 -0.0011777 -1.69921e-16)
(1.00483 -0.000318139 5.95701e-17)
(0.999231 -0.000183294 -6.04899e-18)
(0.999344 -0.000820582 1.99924e-16)
(0.999541 -0.00143426 2.66202e-16)
(0.999862 -0.00197641 -3.16797e-16)
(1.0003 -0.00242147 1.5411e-16)
(1.00085 -0.00273208 4.27379e-16)
(1.00149 -0.00286858 1.43711e-16)
(1.0022 -0.0027962 -9.6398e-17)
(1.00293 -0.00250026 7.34147e-16)
(1.00367 -0.0019474 3.73344e-16)
(1.00434 -0.00123318 7.01024e-17)
(1.00493 -0.000365348 6.28435e-17)
(0.999191 -0.000186401 1.35986e-17)
(0.999308 -0.000842015 -2.23027e-16)
(0.999512 -0.0014738 -5.89085e-17)
(0.999846 -0.00203231 1.24068e-16)
(1.0003 -0.00249037 7.49966e-16)
(1.00087 -0.00280959 -3.84638e-16)
(1.00153 -0.00294973 -3.27676e-16)
(1.00225 -0.0028763 -7.44627e-17)
(1.00301 -0.00257524 -7.26107e-16)
(1.00376 -0.00201487 4.21906e-16)
(1.00444 -0.0012892 -5.86226e-17)
(1.00504 -0.000412482 3.7379e-16)
(0.999151 -0.000190095 -1.07903e-17)
(0.999272 -0.000864022 1.39647e-16)
(0.999484 -0.00151392 -9.63339e-17)
(0.99983 -0.00208887 3.61404e-16)
(1.0003 -0.00256007 -7.04541e-16)
(1.00089 -0.00288804 4.94968e-16)
(1.00156 -0.0030319 -4.81464e-17)
(1.00231 -0.00295742 -5.03008e-17)
(1.00308 -0.00265106 7.51309e-16)
(1.00386 -0.00208282 -2.89468e-16)
(1.00455 -0.0013452 -2.36529e-16)
(1.00514 -0.000459012 -9.44084e-17)
(0.99911 -0.000194405 1.51882e-18)
(0.999235 -0.000886623 -2.60284e-17)
(0.999454 -0.00155458 1.17384e-16)
(0.999813 -0.00214593 -4.00865e-16)
(1.0003 -0.00263029 3.47846e-16)
(1.0009 -0.00296705 1.16367e-16)
(1.0016 -0.00311464 1.67598e-16)
(1.00237 -0.00303904 -8.74871e-16)
(1.00316 -0.0027272 -3.66958e-16)
(1.00395 -0.00215073 -1.31889e-15)
(1.00465 -0.00140088 -6.88351e-16)
(1.00525 -0.000504623 -7.02336e-16)
(0.999068 -0.000199356 -1.97173e-17)
(0.999197 -0.000909853 1.80428e-17)
(0.999425 -0.00159578 -2.19963e-16)
(0.999795 -0.00220343 1.44584e-17)
(1.00029 -0.00270086 -8.83691e-17)
(1.00092 -0.00304636 5.24652e-18)
(1.00164 -0.00319764 3.096e-16)
(1.00243 -0.00312084 1.18275e-15)
(1.00323 -0.00280336 1.02789e-16)
(1.00404 -0.0022184 8.23127e-16)
(1.00476 -0.00145613 -1.20556e-16)
(1.00536 -0.000549337 1.27447e-15)
(0.999025 -0.00020496 1.89709e-17)
(0.999158 -0.000933752 1.09541e-17)
(0.999395 -0.00163756 2.97263e-16)
(0.999778 -0.00226134 -1.73815e-16)
(1.00029 -0.00277171 -2.035e-16)
(1.00094 -0.00312584 -2.35016e-16)
(1.00168 -0.00328073 -1.42536e-16)
(1.00248 -0.00320266 -4.74223e-16)
(1.00331 -0.00287944 8.53174e-17)
(1.00413 -0.00228585 8.17767e-16)
(1.00486 -0.00151114 7.92525e-16)
(1.00547 -0.000593255 -1.13178e-15)
(0.998981 -0.000211222 -1.93681e-17)
(0.999118 -0.000958365 -2.39508e-16)
(0.999364 -0.00167999 -1.27474e-16)
(0.99976 -0.00231974 2.91962e-17)
(1.00029 -0.00284289 5.10144e-16)
(1.00095 -0.00320555 -4.04463e-16)
(1.00171 -0.003364 -3.60918e-16)
(1.00254 -0.00328463 -4.46066e-16)
(1.00339 -0.00295563 -5.34589e-16)
(1.00423 -0.00235334 -1.7668e-15)
(1.00497 -0.00156658 -5.89813e-16)
(1.00558 -0.000637167 5.73712e-16)
(0.998936 -0.000218134 9.69319e-18)
(0.999078 -0.000983732 2.00031e-16)
(0.999332 -0.00172313 6.03132e-17)
(0.999742 -0.00237874 3.72018e-16)
(1.00029 -0.00291452 -5.88806e-16)
(1.00097 -0.00328563 5.73872e-16)
(1.00175 -0.0034476 -6.83501e-18)
(1.0026 -0.00336694 1.05114e-15)
(1.00347 -0.00303218 3.79373e-16)
(1.00432 -0.00242114 2.30402e-15)
(1.00507 -0.00162265 3.27992e-16)
(1.00569 -0.000681084 5.34628e-16)
(0.998889 -0.000225678 -1.97901e-17)
(0.999036 -0.00100989 4.29694e-17)
(0.9993 -0.00176707 9.35571e-17)
(0.999723 -0.00243845 -1.45488e-16)
(1.00029 -0.00298677 5.0309e-16)
(1.00099 -0.00336626 -6.05456e-16)
(1.00179 -0.00353177 5.52706e-16)
(1.00265 -0.00344988 -1.4186e-16)
(1.00354 -0.00310941 2.31431e-16)
(1.00441 -0.00248958 -1.68014e-15)
(1.00518 -0.00167925 9.96522e-16)
(1.0058 -0.00072469 -1.19296e-15)
(0.998842 -0.000233827 2.12864e-17)
(0.998993 -0.00103684 -1.1895e-16)
(0.999266 -0.00181186 -1.72889e-16)
(0.999702 -0.00249898 -1.70879e-16)
(1.00028 -0.00305977 5.2107e-17)
(1.001 -0.00344762 -1.59387e-16)
(1.00182 -0.00361672 -3.01051e-16)
(1.00271 -0.00353366 -6.67893e-16)
(1.00362 -0.00318753 -2.39125e-16)
(1.00451 -0.00255885 3.92671e-16)
(1.00529 -0.00173638 -9.78858e-16)
(1.00592 -0.000767814 6.89662e-16)
(0.998793 -0.000242549 5.12903e-17)
(0.998948 -0.00106461 1.44645e-17)
(0.999231 -0.00185755 -4.60055e-17)
(0.999681 -0.00256043 1.24179e-16)
(1.00028 -0.00313365 -6.86971e-16)
(1.00102 -0.00352987 1.1627e-16)
(1.00186 -0.00370262 5.03718e-16)
(1.00277 -0.00361847 -2.81133e-16)
(1.0037 -0.00326673 9.44058e-17)
(1.0046 -0.00262912 -1.2359e-16)
(1.00539 -0.0017944 2.23418e-16)
(1.00603 -0.000810987 -5.19627e-16)
(0.998743 -0.000251807 -3.34817e-17)
(0.998902 -0.00109318 7.35169e-17)
(0.999194 -0.00190415 -1.34484e-16)
(0.999658 -0.00262285 -8.05451e-17)
(1.00027 -0.00320852 5.11054e-16)
(1.00103 -0.00361312 2.11331e-16)
(1.0019 -0.00378959 -2.23032e-16)
(1.00282 -0.00370444 4.57344e-16)
(1.00377 -0.00334711 1.50481e-16)
(1.00469 -0.00270049 2.96661e-16)
(1.0055 -0.0018533 -3.05049e-16)
(1.00615 -0.000854213 -1.09055e-17)
(0.998692 -0.000261566 -5.12759e-17)
(0.998855 -0.00112252 -2.6682e-17)
(0.999156 -0.00195167 1.38639e-16)
(0.999634 -0.00268631 1.22514e-16)
(1.00027 -0.00328449 1.59316e-16)
(1.00105 -0.00369754 4.30855e-16)
(1.00193 -0.0038778 -1.9332e-16)
(1.00288 -0.00379172 -8.61893e-17)
(1.00385 -0.00342884 -1.82573e-16)
(1.00479 -0.00277313 -6.66849e-18)
(1.00561 -0.00191298 6.61481e-18)
(1.00626 -0.000897385 3.8029e-16)
(0.998639 -0.000271792 8.6265e-17)
(0.998806 -0.00115261 -1.39842e-17)
(0.999116 -0.00200009 1.60253e-16)
(0.999608 -0.00275085 -7.31908e-17)
(1.00026 -0.00336168 -1.4027e-16)
(1.00106 -0.00378327 -5.67245e-16)
(1.00196 -0.00396742 -3.43444e-16)
(1.00294 -0.00388049 2.23552e-16)
(1.00393 -0.00351208 3.51883e-17)
(1.00488 -0.00284719 5.345e-17)
(1.00572 -0.00197349 8.2559e-17)
(1.00638 -0.000940741 3.39822e-17)
(0.998584 -0.000282455 -8.60416e-17)
(0.998756 -0.00118339 1.31625e-16)
(0.999075 -0.00204938 -2.35931e-16)
(0.99958 -0.00281647 1.62308e-16)
(1.00025 -0.00344015 -3.76847e-18)
(1.00107 -0.00387045 3.8508e-16)
(1.002 -0.00405863 3.35182e-16)
(1.00299 -0.00397092 -2.23768e-16)
(1.004 -0.00359698 3.67908e-16)
(1.00498 -0.0029228 -2.3819e-16)
(1.00583 -0.00203486 7.09871e-16)
(1.0065 -0.000984137 7.11747e-16)
(0.998528 -0.000293533 6.59384e-17)
(0.998705 -0.00121483 -9.52805e-17)
(0.999032 -0.00209947 -4.00256e-17)
(0.999551 -0.00288311 1.2082e-16)
(1.00024 -0.0035199 -1.51628e-16)
(1.00108 -0.00395914 -2.35789e-16)
(1.00203 -0.0041515 3.60035e-16)
(1.00304 -0.00406308 -2.10792e-16)
(1.00408 -0.00368358 -4.47992e-16)
(1.00507 -0.00299997 2.40719e-16)
(1.00594 -0.00209714 -4.07437e-16)
(1.00662 -0.00102803 -5.57595e-16)
(0.998471 -0.000305007 2.74131e-17)
(0.998652 -0.00124686 -1.01331e-16)
(0.998988 -0.00215028 4.13997e-16)
(0.999521 -0.0029507 -2.0228e-16)
(1.00022 -0.00360087 8.2652e-17)
(1.00108 -0.0040493 -1.91687e-16)
(1.00206 -0.00424602 -4.73155e-16)
(1.0031 -0.00415696 4.10812e-16)
(1.00415 -0.00377183 4.73113e-16)
(1.00517 -0.00307858 -5.96494e-16)
(1.00605 -0.00216029 -2.32248e-16)
(1.00674 -0.00107293 -1.74787e-16)
(0.998411 -0.000316864 -7.85743e-17)
(0.998598 -0.00127943 3.06047e-17)
(0.998943 -0.00220172 -1.87388e-16)
(0.999489 -0.00301907 2.56331e-17)
(1.00021 -0.00368285 1.14071e-16)
(1.00109 -0.00414072 4.65706e-16)
(1.00209 -0.00434199 5.03643e-18)
(1.00315 -0.00425236 -2.43084e-17)
(1.00423 -0.00386153 -6.50533e-16)
(1.00526 -0.00315842 9.53976e-17)
(1.00616 -0.00222423 -1.3399e-16)
(1.00686 -0.00111894 7.12396e-17)
(0.99835 -0.000329095 -1.26873e-17)
(0.998544 -0.00131252 -2.33469e-17)
(0.998897 -0.00225373 -2.73459e-16)
(0.999457 -0.00308809 -4.9957e-17)
(1.00019 -0.00376565 -1.79537e-16)
(1.0011 -0.00423317 -1.29891e-16)
(1.00212 -0.00443914 -1.32428e-16)
(1.00321 -0.00434903 1.62651e-16)
(1.00431 -0.00395242 1.82959e-16)
(1.00536 -0.00323927 3.12671e-16)
(1.00628 -0.0022889 4.39663e-16)
(1.00698 -0.00116584 -2.25303e-16)
(0.998288 -0.000341695 3.0682e-17)
(0.998487 -0.00134609 1.59412e-17)
(0.99885 -0.00230624 2.61086e-16)
(0.999423 -0.00315765 -5.24403e-17)
(1.00018 -0.00384907 -9.67353e-17)
(1.0011 -0.00432639 -1.49035e-16)
(1.00215 -0.00453722 4.41878e-16)
(1.00326 -0.00444669 -2.96227e-16)
(1.00438 -0.0040443 1.04586e-16)
(1.00545 -0.003321 4.07211e-16)
(1.00639 -0.00235435 -2.58411e-16)
(1.0071 -0.00121392 -4.00832e-17)
(0.998223 -0.000354659 -4.19517e-17)
(0.99843 -0.00138013 4.33895e-17)
(0.998802 -0.00235926 8.89832e-17)
(0.99939 -0.00322772 1.89535e-16)
(1.00016 -0.00393304 3.41491e-16)
(1.00111 -0.00442026 -2.54135e-16)
(1.00218 -0.0046361 -1.68521e-16)
(1.00331 -0.00454527 1.77609e-17)
(1.00446 -0.00413712 -3.10415e-16)
(1.00555 -0.00340363 -4.46261e-16)
(1.0065 -0.00242074 5.93116e-16)
(1.00723 -0.00126364 2.46258e-16)
(0.998158 -0.000367984 6.75213e-17)
(0.998372 -0.00141462 8.24643e-17)
(0.998753 -0.00241282 -8.45258e-17)
(0.999355 -0.00329836 -1.71874e-16)
(1.00015 -0.00401763 4.46878e-17)
(1.00111 -0.00451484 4.161e-16)
(1.0022 -0.00473584 -2.96965e-16)
(1.00337 -0.00464484 -1.07256e-17)
(1.00454 -0.00423102 3.96131e-16)
(1.00565 -0.00348734 -3.87812e-16)
(1.00662 -0.00248843 -5.0362e-16)
(1.00735 -0.00131525 -1.27822e-16)
(0.998091 -0.000381665 8.35376e-18)
(0.998312 -0.00144958 8.44273e-18)
(0.998704 -0.00246699 -2.78113e-16)
(0.99932 -0.00336973 -2.26786e-16)
(1.00013 -0.00410304 -3.81527e-16)
(1.00112 -0.0046104 5.19486e-17)
(1.00223 -0.00483672 8.51733e-17)
(1.00342 -0.0047457 -5.92414e-17)
(1.00462 -0.0043263 -3.25408e-16)
(1.00575 -0.00357242 7.28364e-16)
(1.00674 -0.00255761 3.76292e-16)
(1.00748 -0.00136856 -1.14983e-16)
(0.998023 -0.0003957 -3.96629e-17)
(0.998251 -0.00148501 -7.72787e-17)
(0.998652 -0.00252182 3.70748e-16)
(0.999283 -0.00344201 3.37595e-16)
(1.00011 -0.00418958 -7.41944e-18)
(1.00112 -0.00470729 7.22003e-17)
(1.00226 -0.00493912 -1.12075e-16)
(1.00347 -0.00484822 8.23235e-17)
(1.0047 -0.00442328 3.46395e-16)
(1.00585 -0.00365911 -1.79833e-16)
(1.00686 -0.00262842 1.27782e-16)
(1.00761 -0.00142329 2.1355e-16)
(0.997953 -0.000410085 -2.48182e-18)
(0.998189 -0.00152089 5.34683e-17)
(0.9986 -0.00257738 -1.62317e-16)
(0.999245 -0.00351534 -3.19064e-16)
(1.00009 -0.00427751 1.93199e-16)
(1.00113 -0.00480587 -4.42994e-16)
(1.00229 -0.0050434 1.30878e-16)
(1.00353 -0.0049527 -1.94292e-16)
(1.00477 -0.00452217 3.06939e-17)
(1.00595 -0.00374748 1.84436e-16)
(1.00697 -0.00270109 -1.58525e-16)
(1.00774 -0.00147936 -4.75835e-16)
(0.997882 -0.000424822 2.29281e-17)
(0.998125 -0.00155722 -1.48457e-16)
(0.998546 -0.00263366 1.66546e-16)
(0.999205 -0.00358981 2.79667e-16)
(1.00007 -0.00436699 -3.59629e-16)
(1.00113 -0.00490633 -3.04237e-17)
(1.00232 -0.00514975 2.1882e-16)
(1.00358 -0.00505926 -2.63992e-16)
(1.00485 -0.00462297 -3.19679e-16)
(1.00605 -0.00383737 9.03122e-17)
(1.00709 -0.00277524 -2.76168e-16)
(1.00787 -0.00153614 4.19057e-16)
(0.99781 -0.000439916 1.50673e-17)
(0.99806 -0.00159398 7.82454e-17)
(0.99849 -0.00269064 -7.72759e-17)
(0.999163 -0.00366538 2.35666e-16)
(1.00005 -0.00445799 1.74772e-16)
(1.00113 -0.00500866 1.4715e-16)
(1.00234 -0.0052581 -2.47423e-16)
(1.00363 -0.00516776 3.76931e-16)
(1.00493 -0.00472544 -3.34866e-18)
(1.00615 -0.00392846 -7.15974e-16)
(1.00722 -0.00285009 1.36605e-16)
(1.008 -0.00159258 -2.63727e-17)
(0.997737 -0.00045538 -2.40196e-17)
(0.997993 -0.00163117 8.08268e-17)
(0.998433 -0.00274826 -2.69203e-16)
(0.999121 -0.00374192 -1.9744e-16)
(1.00002 -0.00455032 4.01859e-17)
(1.00113 -0.00511258 1.54721e-16)
(1.00237 -0.00536814 2.58432e-16)
(1.00369 -0.00527782 3.52569e-17)
(1.00501 -0.00482916 2.79176e-17)
(1.00626 -0.00402034 4.76746e-16)
(1.00734 -0.00292517 1.44699e-16)
(1.00814 -0.00164833 -2.28744e-16)
(0.997662 -0.000471228 -1.8986e-17)
(0.997925 -0.00166879 -2.24281e-17)
(0.998375 -0.00280648 2.85333e-16)
(0.999077 -0.00381928 4.55594e-18)
(0.999999 -0.0046437 2.45732e-16)
(1.00113 -0.00521773 -2.31612e-16)
(1.00239 -0.00547941 -1.51573e-16)
(1.00374 -0.00538897 -4.50096e-17)
(1.00509 -0.00493372 5.42336e-18)
(1.00636 -0.0041127 2.89577e-16)
(1.00746 -0.00300059 -4.50281e-16)
(1.00828 -0.0017039 -2.62977e-16)
(0.997586 -0.000487484 5.17733e-18)
(0.997856 -0.00170686 -7.87861e-17)
(0.998316 -0.00286525 -2.76004e-16)
(0.999032 -0.0038973 4.91908e-17)
(0.999974 -0.00473783 2.29714e-17)
(1.00112 -0.00532369 2.92418e-18)
(1.00242 -0.00559148 -8.00835e-17)
(1.00379 -0.00550082 3.4805e-16)
(1.00517 -0.00503885 3.81374e-16)
(1.00647 -0.00420548 -2.53368e-16)
(1.00759 -0.00307638 6.8203e-16)
(1.00842 -0.00175964 6.20531e-16)