/*--------------------------------*- C++ -*----------------------------------*\
  =========                 |
  \\      /  F ield         | OpenFOAM: The Open Source CFD Toolbox
   \\    /   O peration     | Website:  https://openfoam.org
    \\  /    A nd           | Version:  6.0
     \\/     M anipulation  |
\*---------------------------------------------------------------------------*/
FoamFile
{
    version     2.0;
    format      ascii;
    class       volScalarField;
    location    "5.4";
    object      p;
}
// * * * * * * * * * * * * * * * * * * * * * * * * * * * * * * * * * * * * * //

dimensions      [0 2 -2 0 0 0 0];

internalField   nonuniform List<scalar> 
34500
(
1.00577
1.00577
1.00558
1.00524
1.0048
1.00428
1.00372
1.00312
1.00254
1.00197
1.00146
1.00101
1.00063
1.00037
1.00021
1.00578
1.0058
1.00566
1.0054
1.00503
1.00458
1.00407
1.00351
1.00293
1.00234
1.00178
1.00127
1.0008
1.00048
1.00025
1.00578
1.00579
1.00563
1.00533
1.00492
1.00443
1.00388
1.0033
1.00271
1.00213
1.00158
1.00109
1.00067
1.00039
1.00018
1.00578
1.00578
1.0056
1.00528
1.00484
1.00432
1.00375
1.00315
1.00255
1.00198
1.00145
1.00099
1.0006
1.00036
1.00018
1.00579
1.00579
1.00562
1.0053
1.00486
1.00435
1.00378
1.00318
1.00259
1.00201
1.00148
1.00102
1.00063
1.00038
1.0002
1.00579
1.00581
1.00564
1.00534
1.00492
1.00441
1.00385
1.00326
1.00266
1.00208
1.00154
1.00107
1.00066
1.0004
1.00021
1.0058
1.00582
1.00566
1.00536
1.00495
1.00445
1.00389
1.0033
1.0027
1.00211
1.00157
1.00109
1.00068
1.00041
1.0002
1.00581
1.00583
1.00568
1.00538
1.00497
1.00448
1.00392
1.00332
1.00272
1.00213
1.00158
1.0011
1.00068
1.0004
1.00019
1.00582
1.00584
1.00569
1.0054
1.00499
1.0045
1.00394
1.00335
1.00274
1.00215
1.00159
1.00111
1.00068
1.00039
1.00018
1.00583
1.00586
1.00571
1.00542
1.00501
1.00452
1.00396
1.00337
1.00276
1.00216
1.0016
1.00111
1.00067
1.00038
1.00016
1.00585
1.00587
1.00572
1.00543
1.00503
1.00453
1.00398
1.00338
1.00276
1.00216
1.0016
1.0011
1.00066
1.00037
1.00015
1.00586
1.00589
1.00574
1.00545
1.00505
1.00455
1.00399
1.00338
1.00277
1.00217
1.0016
1.00109
1.00065
1.00035
1.00013
1.00588
1.00591
1.00576
1.00547
1.00506
1.00456
1.004
1.00339
1.00277
1.00217
1.0016
1.00109
1.00065
1.00034
1.00012
1.0059
1.00593
1.00578
1.00549
1.00508
1.00458
1.00402
1.00341
1.00279
1.00218
1.0016
1.00109
1.00065
1.00034
1.0001
1.00591
1.00595
1.0058
1.00552
1.00511
1.00461
1.00404
1.00343
1.0028
1.00219
1.00161
1.0011
1.00065
1.00033
1.00008
1.00593
1.00597
1.00583
1.00554
1.00514
1.00464
1.00407
1.00345
1.00283
1.00221
1.00162
1.0011
1.00064
1.00031
1.00006
1.00596
1.00599
1.00585
1.00557
1.00517
1.00467
1.0041
1.00348
1.00285
1.00222
1.00163
1.0011
1.00064
1.0003
1.00004
1.00598
1.00602
1.00588
1.0056
1.0052
1.0047
1.00413
1.00351
1.00287
1.00224
1.00164
1.0011
1.00063
1.00028
1.00002
1.006
1.00604
1.00591
1.00563
1.00523
1.00473
1.00415
1.00353
1.00288
1.00225
1.00164
1.0011
1.00062
1.00027
0.999995
1.00603
1.00607
1.00593
1.00566
1.00526
1.00475
1.00417
1.00355
1.0029
1.00226
1.00164
1.00109
1.00061
1.00025
0.999971
1.00605
1.0061
1.00596
1.00569
1.00528
1.00478
1.0042
1.00356
1.00291
1.00226
1.00164
1.00109
1.0006
1.00023
0.999947
1.00608
1.00613
1.00599
1.00572
1.00531
1.0048
1.00422
1.00358
1.00292
1.00227
1.00164
1.00108
1.00059
1.00021
0.999922
1.00611
1.00616
1.00603
1.00575
1.00534
1.00483
1.00424
1.0036
1.00293
1.00227
1.00164
1.00108
1.00057
1.00019
0.999897
1.00614
1.00619
1.00606
1.00578
1.00538
1.00486
1.00427
1.00362
1.00295
1.00228
1.00165
1.00107
1.00056
1.00017
0.999871
1.00617
1.00623
1.00609
1.00582
1.00541
1.0049
1.0043
1.00365
1.00297
1.0023
1.00165
1.00107
1.00055
1.00015
0.999843
1.00621
1.00626
1.00613
1.00585
1.00545
1.00493
1.00433
1.00367
1.00299
1.00231
1.00165
1.00106
1.00054
1.00013
0.999814
1.00624
1.0063
1.00617
1.00589
1.00549
1.00497
1.00436
1.0037
1.00301
1.00232
1.00166
1.00106
1.00052
1.00011
0.999784
1.00628
1.00633
1.00621
1.00593
1.00552
1.005
1.00439
1.00372
1.00302
1.00233
1.00166
1.00105
1.00051
1.00008
0.999753
1.00631
1.00637
1.00625
1.00597
1.00556
1.00504
1.00442
1.00375
1.00304
1.00233
1.00166
1.00104
1.00049
1.00006
0.999721
1.00635
1.00641
1.00629
1.00601
1.0056
1.00507
1.00445
1.00377
1.00305
1.00234
1.00165
1.00103
1.00047
1.00003
0.999688
1.00639
1.00645
1.00633
1.00605
1.00564
1.0051
1.00448
1.00379
1.00307
1.00235
1.00165
1.00101
1.00045
1
0.999655
1.00643
1.0065
1.00637
1.00609
1.00568
1.00514
1.00451
1.00381
1.00308
1.00235
1.00165
1.001
1.00043
0.999977
0.999621
1.00648
1.00654
1.00641
1.00614
1.00572
1.00517
1.00454
1.00383
1.0031
1.00236
1.00164
1.00099
1.00041
0.999949
0.999586
1.00652
1.00659
1.00646
1.00618
1.00576
1.00521
1.00457
1.00386
1.00311
1.00237
1.00164
1.00098
1.00039
0.99992
0.99955
1.00656
1.00663
1.00651
1.00623
1.0058
1.00525
1.0046
1.00388
1.00313
1.00237
1.00164
1.00097
1.00037
0.99989
0.999512
1.00661
1.00668
1.00656
1.00627
1.00585
1.00529
1.00464
1.00391
1.00315
1.00238
1.00164
1.00095
1.00035
0.999858
0.999474
1.00666
1.00673
1.00661
1.00632
1.00589
1.00533
1.00467
1.00394
1.00316
1.00239
1.00163
1.00094
1.00032
0.999825
0.999434
1.00671
1.00679
1.00666
1.00637
1.00594
1.00537
1.00471
1.00396
1.00318
1.00239
1.00163
1.00092
1.0003
0.999792
0.999393
1.00676
1.00684
1.00671
1.00643
1.00599
1.00542
1.00474
1.00399
1.0032
1.0024
1.00162
1.00091
1.00027
0.999757
0.999352
1.00681
1.00689
1.00677
1.00648
1.00604
1.00546
1.00478
1.00402
1.00321
1.0024
1.00162
1.00089
1.00024
0.999722
0.999309
1.00687
1.00695
1.00682
1.00653
1.00609
1.00551
1.00481
1.00404
1.00323
1.00241
1.00161
1.00087
1.00022
0.999685
0.999265
1.00692
1.00701
1.00688
1.00659
1.00614
1.00555
1.00485
1.00407
1.00325
1.00241
1.0016
1.00086
1.00019
0.999648
0.99922
1.00698
1.00707
1.00694
1.00665
1.00619
1.0056
1.00489
1.0041
1.00327
1.00242
1.0016
1.00084
1.00016
0.999609
0.999173
1.00704
1.00713
1.007
1.0067
1.00625
1.00565
1.00493
1.00413
1.00328
1.00243
1.00159
1.00082
1.00013
0.999569
0.999125
1.0071
1.00719
1.00706
1.00677
1.0063
1.0057
1.00497
1.00416
1.0033
1.00243
1.00158
1.0008
1.0001
0.999527
0.999076
1.00716
1.00725
1.00713
1.00683
1.00636
1.00575
1.00501
1.00419
1.00332
1.00244
1.00158
1.00078
1.00006
0.999485
0.999025
1.00723
1.00732
1.00719
1.00689
1.00642
1.0058
1.00505
1.00422
1.00334
1.00244
1.00157
1.00076
1.00003
0.999441
0.998973
1.00729
1.00739
1.00726
1.00696
1.00648
1.00585
1.0051
1.00425
1.00336
1.00245
1.00156
1.00073
0.999995
0.999395
0.99892
1.00736
1.00746
1.00733
1.00702
1.00654
1.0059
1.00514
1.00429
1.00338
1.00245
1.00155
1.00071
0.999958
0.999348
0.998865
1.00743
1.00753
1.0074
1.00709
1.0066
1.00596
1.00518
1.00432
1.00339
1.00245
1.00154
1.00068
0.999921
0.999301
0.998808
1.0075
1.0076
1.00747
1.00716
1.00667
1.00601
1.00523
1.00435
1.00341
1.00246
1.00153
1.00066
0.999882
0.999251
0.99875
1.00757
1.00767
1.00754
1.00723
1.00673
1.00607
1.00527
1.00438
1.00343
1.00246
1.00151
1.00063
0.999843
0.999201
0.998691
1.00764
1.00775
1.00762
1.0073
1.0068
1.00613
1.00532
1.00442
1.00345
1.00246
1.0015
1.00061
0.999802
0.999148
0.99863
1.00772
1.00783
1.00769
1.00737
1.00686
1.00619
1.00537
1.00445
1.00347
1.00247
1.00149
1.00058
0.99976
0.999095
0.998567
1.0078
1.00791
1.00777
1.00745
1.00693
1.00625
1.00542
1.00448
1.00349
1.00247
1.00148
1.00055
0.999716
0.99904
0.998503
1.00787
1.00799
1.00785
1.00753
1.007
1.00631
1.00547
1.00452
1.00351
1.00247
1.00146
1.00052
0.999672
0.998983
0.998437
1.00795
1.00807
1.00793
1.0076
1.00708
1.00637
1.00552
1.00456
1.00353
1.00248
1.00145
1.00049
0.999626
0.998925
0.998369
1.00804
1.00816
1.00802
1.00768
1.00715
1.00643
1.00557
1.00459
1.00355
1.00248
1.00143
1.00046
0.999579
0.998866
0.998299
1.00812
1.00824
1.0081
1.00777
1.00722
1.0065
1.00562
1.00463
1.00357
1.00248
1.00142
1.00042
0.99953
0.998804
0.998228
1.00821
1.00833
1.00819
1.00785
1.0073
1.00656
1.00567
1.00467
1.00359
1.00248
1.0014
1.00039
0.99948
0.998741
0.998155
1.0083
1.00842
1.00828
1.00794
1.00738
1.00663
1.00573
1.0047
1.00361
1.00248
1.00138
1.00035
0.999429
0.998677
0.99808
1.00839
1.00852
1.00837
1.00802
1.00746
1.0067
1.00578
1.00474
1.00363
1.00249
1.00136
1.00032
0.999377
0.998611
0.998003
1.00848
1.00861
1.00847
1.00811
1.00754
1.00677
1.00584
1.00478
1.00365
1.00249
1.00135
1.00028
0.999322
0.998542
0.997924
1.00857
1.00871
1.00856
1.0082
1.00762
1.00684
1.0059
1.00482
1.00367
1.00249
1.00133
1.00024
0.999267
0.998473
0.997843
1.00867
1.00881
1.00866
1.0083
1.00771
1.00692
1.00596
1.00487
1.00369
1.00249
1.00131
1.0002
0.99921
0.998401
0.997759
1.00877
1.00891
1.00876
1.00839
1.0078
1.00699
1.00602
1.00491
1.00371
1.00249
1.00129
1.00016
0.999151
0.998327
0.997674
1.00887
1.00901
1.00886
1.00849
1.00789
1.00707
1.00608
1.00495
1.00374
1.00249
1.00127
1.00012
0.99909
0.998251
0.997586
1.00897
1.00912
1.00896
1.00859
1.00798
1.00715
1.00614
1.00499
1.00376
1.00249
1.00124
1.00008
0.999028
0.998174
0.997497
1.00908
1.00922
1.00907
1.00869
1.00807
1.00723
1.0062
1.00504
1.00378
1.00249
1.00122
1.00003
0.998964
0.998094
0.997404
1.00918
1.00933
1.00918
1.00879
1.00816
1.00731
1.00627
1.00508
1.0038
1.00249
1.0012
0.999987
0.998899
0.998012
0.99731
1.00929
1.00945
1.00929
1.0089
1.00826
1.00739
1.00633
1.00513
1.00383
1.00249
1.00117
0.99994
0.998831
0.997928
0.997213
1.0094
1.00956
1.0094
1.00901
1.00836
1.00748
1.0064
1.00517
1.00385
1.00249
1.00115
0.999891
0.998763
0.997843
0.997114
1.00952
1.00968
1.00951
1.00912
1.00846
1.00756
1.00647
1.00522
1.00387
1.00248
1.00112
0.999841
0.998692
0.997754
0.997013
1.00963
1.0098
1.00963
1.00923
1.00856
1.00765
1.00654
1.00527
1.00389
1.00248
1.00109
0.99979
0.998619
0.997664
0.996909
1.00975
1.00992
1.00975
1.00934
1.00866
1.00774
1.00661
1.00531
1.00392
1.00248
1.00106
0.999738
0.998544
0.997571
0.996802
1.00987
1.01004
1.00987
1.00946
1.00877
1.00783
1.00668
1.00536
1.00394
1.00248
1.00103
0.999684
0.998468
0.997476
0.996693
1.01
1.01017
1.01
1.00958
1.00888
1.00792
1.00675
1.00541
1.00397
1.00247
1.001
0.999628
0.998389
0.997379
0.99658
1.01012
1.0103
1.01013
1.0097
1.00899
1.00802
1.00683
1.00546
1.00399
1.00247
1.00097
0.999571
0.998309
0.997279
0.996466
1.01025
1.01043
1.01025
1.00982
1.0091
1.00812
1.0069
1.00552
1.00401
1.00247
1.00094
0.999512
0.998226
0.997177
0.996348
1.01038
1.01057
1.01039
1.00995
1.00922
1.00821
1.00698
1.00557
1.00404
1.00246
1.00091
0.999452
0.998142
0.997072
0.996228
1.01051
1.0107
1.01052
1.01008
1.00933
1.00832
1.00706
1.00562
1.00406
1.00246
1.00087
0.99939
0.998054
0.996964
0.996104
1.01065
1.01084
1.01066
1.01021
1.00945
1.00842
1.00714
1.00568
1.00409
1.00245
1.00084
0.999326
0.997965
0.996854
0.995978
1.01079
1.01099
1.0108
1.01034
1.00958
1.00852
1.00722
1.00573
1.00412
1.00245
1.0008
0.99926
0.997874
0.996741
0.995848
1.01093
1.01113
1.01094
1.01048
1.0097
1.00863
1.00731
1.00579
1.00414
1.00244
1.00076
0.999193
0.99778
0.996626
0.995716
1.01108
1.01128
1.01109
1.01062
1.00983
1.00874
1.00739
1.00585
1.00417
1.00244
1.00073
0.999124
0.997684
0.996507
0.99558
1.01122
1.01143
1.01124
1.01076
1.00996
1.00885
1.00748
1.0059
1.00419
1.00243
1.00069
0.999053
0.997585
0.996386
0.995441
1.01137
1.01159
1.01139
1.01091
1.01009
1.00896
1.00756
1.00596
1.00422
1.00242
1.00064
0.99898
0.997484
0.996261
0.995298
1.01153
1.01174
1.01155
1.01106
1.01022
1.00908
1.00765
1.00602
1.00425
1.00241
1.0006
0.998905
0.99738
0.996134
0.995152
1.01168
1.0119
1.0117
1.01121
1.01036
1.00919
1.00775
1.00608
1.00427
1.0024
1.00056
0.998828
0.997273
0.996003
0.995003
1.01184
1.01207
1.01187
1.01136
1.0105
1.00931
1.00784
1.00614
1.0043
1.00239
1.00051
0.998749
0.997165
0.99587
0.99485
1.01201
1.01224
1.01203
1.01152
1.01064
1.00944
1.00793
1.00621
1.00433
1.00238
1.00046
0.998667
0.997053
0.995732
0.994694
1.01217
1.01241
1.0122
1.01168
1.01079
1.00956
1.00803
1.00627
1.00435
1.00237
1.00042
0.998584
0.996938
0.995592
0.994534
1.01234
1.01258
1.01237
1.01184
1.01094
1.00969
1.00813
1.00634
1.00438
1.00236
1.00037
0.998498
0.99682
0.995448
0.994369
1.01251
1.01276
1.01254
1.01201
1.01109
1.00982
1.00823
1.0064
1.00441
1.00235
1.00032
0.99841
0.9967
0.995301
0.994202
1.01269
1.01294
1.01272
1.01218
1.01124
1.00995
1.00833
1.00647
1.00444
1.00234
1.00026
0.998319
0.996576
0.99515
0.99403
1.01287
1.01312
1.0129
1.01235
1.0114
1.01008
1.00843
1.00654
1.00446
1.00232
1.00021
0.998227
0.99645
0.994996
0.993855
1.01305
1.01331
1.01309
1.01253
1.01156
1.01022
1.00854
1.0066
1.00449
1.00231
1.00015
0.998131
0.99632
0.994838
0.993675
1.01324
1.0135
1.01328
1.01271
1.01173
1.01036
1.00865
1.00667
1.00452
1.00229
1.00009
0.998034
0.996187
0.994677
0.993491
1.01343
1.0137
1.01347
1.0129
1.01189
1.0105
1.00876
1.00674
1.00455
1.00228
1.00003
0.997933
0.996051
0.994511
0.993302
1.01362
1.0139
1.01367
1.01308
1.01206
1.01065
1.00887
1.00682
1.00458
1.00226
0.999971
0.99783
0.995911
0.994341
0.99311
1.01382
1.0141
1.01387
1.01328
1.01224
1.01079
1.00898
1.00689
1.0046
1.00224
0.999907
0.997724
0.995768
0.994168
0.992913
1.01402
1.01431
1.01407
1.01347
1.01242
1.01094
1.0091
1.00696
1.00463
1.00222
0.999841
0.997615
0.995622
0.99399
0.992712
1.01422
1.01452
1.01428
1.01367
1.0126
1.0111
1.00922
1.00704
1.00466
1.0022
0.999773
0.997503
0.995471
0.993808
0.992505
1.01443
1.01473
1.01449
1.01387
1.01278
1.01125
1.00934
1.00712
1.00469
1.00218
0.999703
0.997388
0.995317
0.993622
0.992295
1.01465
1.01495
1.01471
1.01408
1.01297
1.01141
1.00946
1.00719
1.00472
1.00216
0.999631
0.99727
0.995159
0.993431
0.992079
1.01486
1.01518
1.01493
1.01429
1.01316
1.01158
1.00958
1.00727
1.00475
1.00213
0.999556
0.997149
0.994998
0.993236
0.991859
1.01508
1.01541
1.01515
1.01451
1.01336
1.01174
1.00971
1.00735
1.00477
1.00211
0.999479
0.997025
0.994831
0.993036
0.991633
1.01531
1.01564
1.01539
1.01473
1.01356
1.01191
1.00984
1.00743
1.0048
1.00208
0.9994
0.996897
0.994662
0.992832
0.991402
1.01554
1.01588
1.01562
1.01495
1.01376
1.01208
1.00997
1.00751
1.00483
1.00205
0.999318
0.996766
0.994487
0.992623
0.991166
1.01578
1.01612
1.01586
1.01518
1.01397
1.01226
1.0101
1.0076
1.00486
1.00202
0.999234
0.996631
0.994309
0.992409
0.990925
1.01601
1.01637
1.0161
1.01542
1.01418
1.01244
1.01024
1.00768
1.00488
1.00199
0.999147
0.996492
0.994126
0.99219
0.990678
1.01626
1.01662
1.01635
1.01566
1.0144
1.01262
1.01038
1.00777
1.00491
1.00196
0.999057
0.99635
0.993939
0.991966
0.990427
1.01651
1.01687
1.01661
1.0159
1.01462
1.01281
1.01052
1.00785
1.00494
1.00193
0.998965
0.996204
0.993746
0.991736
0.990169
1.01676
1.01714
1.01687
1.01615
1.01484
1.013
1.01066
1.00794
1.00497
1.00189
0.998869
0.996054
0.993549
0.991501
0.989905
1.01702
1.0174
1.01713
1.0164
1.01507
1.01319
1.0108
1.00803
1.00499
1.00185
0.99877
0.9959
0.993348
0.991261
0.989636
1.01728
1.01768
1.0174
1.01666
1.0153
1.01339
1.01095
1.00812
1.00502
1.00182
0.998669
0.995742
0.993141
0.991015
0.989361
1.01755
1.01795
1.01768
1.01692
1.01554
1.01359
1.0111
1.00821
1.00504
1.00177
0.998564
0.995579
0.992929
0.990763
0.989079
1.01783
1.01824
1.01796
1.01719
1.01579
1.01379
1.01126
1.0083
1.00507
1.00173
0.998456
0.995412
0.992712
0.990506
0.988792
1.01811
1.01853
1.01824
1.01747
1.01604
1.014
1.01141
1.0084
1.00509
1.00169
0.998343
0.99524
0.992489
0.990242
0.988497
1.01839
1.01882
1.01854
1.01775
1.01629
1.01421
1.01157
1.00849
1.00512
1.00164
0.998228
0.995064
0.992261
0.989973
0.988197
1.01868
1.01912
1.01884
1.01803
1.01655
1.01443
1.01173
1.00859
1.00514
1.00159
0.998109
0.994882
0.992027
0.989697
0.98789
1.01898
1.01943
1.01914
1.01833
1.01681
1.01465
1.0119
1.00868
1.00516
1.00154
0.997986
0.994696
0.991787
0.989415
0.987576
1.01928
1.01974
1.01945
1.01862
1.01708
1.01488
1.01206
1.00878
1.00518
1.00148
0.997858
0.994504
0.991541
0.989126
0.987255
1.01959
1.02006
1.01977
1.01893
1.01736
1.01511
1.01223
1.00888
1.00521
1.00142
0.997727
0.994307
0.99129
0.988831
0.986928
1.0199
1.02039
1.02009
1.01924
1.01764
1.01534
1.01241
1.00898
1.00522
1.00136
0.997591
0.994105
0.991031
0.988528
0.986593
1.02023
1.02072
1.02042
1.01956
1.01792
1.01558
1.01258
1.00908
1.00524
1.0013
0.997451
0.993897
0.990767
0.988219
0.986251
1.02055
1.02106
1.02076
1.01988
1.01822
1.01582
1.01276
1.00918
1.00526
1.00123
0.997307
0.993683
0.990495
0.987903
0.985901
1.02089
1.02141
1.02111
1.02021
1.01851
1.01607
1.01294
1.00928
1.00528
1.00116
0.997157
0.993463
0.990217
0.987579
0.985544
1.02123
1.02176
1.02146
1.02055
1.01882
1.01632
1.01312
1.00938
1.00529
1.00109
0.997002
0.993237
0.989932
0.987248
0.985179
1.02158
1.02212
1.02182
1.02089
1.01913
1.01658
1.01331
1.00948
1.00531
1.00101
0.996843
0.993005
0.98964
0.986909
0.984807
1.02193
1.02249
1.02218
1.02124
1.01945
1.01684
1.0135
1.00959
1.00532
1.00093
0.996677
0.992765
0.98934
0.986562
0.984426
1.02229
1.02287
1.02256
1.0216
1.01977
1.01711
1.01369
1.00969
1.00533
1.00085
0.996507
0.99252
0.989033
0.986208
0.984037
1.02266
1.02325
1.02294
1.02197
1.0201
1.01738
1.01389
1.0098
1.00533
1.00076
0.99633
0.992267
0.988718
0.985845
0.98364
1.02304
1.02364
1.02333
1.02234
1.02044
1.01766
1.01409
1.0099
1.00534
1.00067
0.996148
0.992007
0.988395
0.985474
0.983234
1.02342
1.02404
1.02373
1.02273
1.02078
1.01795
1.01429
1.01001
1.00534
1.00057
0.995959
0.991739
0.988064
0.985094
0.98282
1.02381
1.02445
1.02414
1.02312
1.02113
1.01823
1.0145
1.01012
1.00534
1.00047
0.995764
0.991464
0.987724
0.984705
0.982397
1.02421
1.02487
1.02455
1.02352
1.02149
1.01853
1.0147
1.01022
1.00534
1.00036
0.995562
0.99118
0.987376
0.984308
0.981965
1.02462
1.0253
1.02498
1.02392
1.02186
1.01883
1.01491
1.01033
1.00534
1.00025
0.995353
0.990889
0.987019
0.983901
0.981524
1.02504
1.02573
1.02541
1.02434
1.02223
1.01913
1.01513
1.01044
1.00533
1.00014
0.995137
0.990589
0.986653
0.983485
0.981073
1.02547
1.02618
1.02586
1.02477
1.02261
1.01944
1.01534
1.01054
1.00532
1.00001
0.994913
0.990281
0.986277
0.98306
0.980613
1.0259
1.02663
1.02631
1.0252
1.023
1.01976
1.01556
1.01065
1.00531
0.999885
0.994682
0.989963
0.985892
0.982624
0.980144
1.02634
1.02709
1.02678
1.02565
1.0234
1.02008
1.01579
1.01075
1.00529
0.99975
0.994442
0.989636
0.985497
0.982179
0.979664
1.0268
1.02757
1.02725
1.0261
1.02381
1.02041
1.01601
1.01086
1.00527
0.999608
0.994194
0.9893
0.985092
0.981724
0.979175
1.02726
1.02805
1.02773
1.02656
1.02422
1.02075
1.01624
1.01096
1.00525
0.99946
0.993938
0.988954
0.984676
0.981258
0.978675
1.02773
1.02854
1.02823
1.02704
1.02464
1.02109
1.01647
1.01106
1.00522
0.999305
0.993672
0.988597
0.98425
0.980781
0.978165
1.02821
1.02905
1.02873
1.02752
1.02508
1.02143
1.0167
1.01117
1.00518
0.999142
0.993396
0.98823
0.983813
0.980294
0.977645
1.02871
1.02956
1.02925
1.02802
1.02552
1.02179
1.01694
1.01127
1.00514
0.998971
0.993111
0.987852
0.983364
0.979795
0.977113
1.02921
1.03009
1.02978
1.02853
1.02597
1.02215
1.01718
1.01137
1.0051
0.998792
0.992816
0.987463
0.982905
0.979285
0.976571
1.02972
1.03063
1.03032
1.02904
1.02643
1.02251
1.01742
1.01146
1.00505
0.998604
0.99251
0.987062
0.982433
0.978763
0.976017
1.03025
1.03118
1.03087
1.02957
1.0269
1.02289
1.01766
1.01156
1.00499
0.998407
0.992193
0.986649
0.981949
0.97823
0.975452
1.03078
1.03174
1.03144
1.03011
1.02738
1.02326
1.01791
1.01165
1.00493
0.998201
0.991865
0.986224
0.981452
0.977684
0.974876
1.03133
1.03232
1.03201
1.03067
1.02787
1.02365
1.01816
1.01174
1.00486
0.997984
0.991524
0.985787
0.980943
0.977126
0.974288
1.03189
1.03291
1.03261
1.03124
1.02837
1.02404
1.0184
1.01183
1.00478
0.997757
0.991172
0.985335
0.98042
0.976555
0.973687
1.03246
1.03351
1.03321
1.03181
1.02888
1.02444
1.01865
1.01191
1.00469
0.997519
0.990806
0.984871
0.979885
0.975971
0.973075
1.03305
1.03413
1.03383
1.03241
1.0294
1.02485
1.01891
1.01199
1.0046
0.99727
0.990427
0.984392
0.979335
0.975374
0.97245
1.03365
1.03476
1.03446
1.03301
1.02993
1.02526
1.01916
1.01206
1.0045
0.997008
0.990035
0.9839
0.978771
0.974763
0.971813
1.03426
1.0354
1.03511
1.03363
1.03048
1.02568
1.01941
1.01213
1.00439
0.996734
0.989628
0.983392
0.978192
0.974139
0.971162
1.03488
1.03606
1.03577
1.03427
1.03103
1.0261
1.01967
1.0122
1.00426
0.996446
0.989206
0.982869
0.977598
0.9735
0.970499
1.03552
1.03673
1.03645
1.03492
1.0316
1.02654
1.01992
1.01225
1.00413
0.996144
0.988768
0.98233
0.976989
0.972847
0.969822
1.03617
1.03742
1.03715
1.03558
1.03218
1.02697
1.02018
1.01231
1.00399
0.995828
0.988315
0.981774
0.976365
0.972179
0.969132
1.03684
1.03813
1.03786
1.03626
1.03277
1.02742
1.02043
1.01235
1.00383
0.995497
0.987844
0.981202
0.975724
0.971496
0.968428
1.03752
1.03885
1.03859
1.03696
1.03337
1.02787
1.02069
1.01239
1.00366
0.99515
0.987357
0.980613
0.975067
0.970798
0.96771
1.03822
1.03959
1.03934
1.03767
1.03399
1.02833
1.02094
1.01242
1.00348
0.994785
0.986851
0.980005
0.974392
0.970084
0.966978
1.03894
1.04035
1.0401
1.0384
1.03462
1.02879
1.02119
1.01244
1.00328
0.994404
0.986327
0.97938
0.973701
0.969355
0.966232
1.03967
1.04112
1.04088
1.03914
1.03526
1.02926
1.02144
1.01245
1.00307
0.994003
0.985783
0.978735
0.972992
0.968609
0.965471
1.04042
1.04192
1.04169
1.03991
1.03592
1.02974
1.02168
1.01245
1.00284
0.993584
0.985219
0.978071
0.972264
0.967847
0.964696
1.04118
1.04273
1.04251
1.04069
1.03658
1.03022
1.02193
1.01244
1.00259
0.993145
0.984634
0.977386
0.971518
0.967068
0.963905
1.04197
1.04357
1.04335
1.04149
1.03727
1.03071
1.02216
1.01241
1.00233
0.992684
0.984028
0.976681
0.970753
0.966273
0.9631
1.04277
1.04442
1.04422
1.04231
1.03796
1.0312
1.0224
1.01237
1.00205
0.992202
0.983399
0.975955
0.969969
0.965459
0.962279
1.04359
1.04529
1.0451
1.04315
1.03867
1.03169
1.02262
1.01232
1.00174
0.991696
0.982747
0.975206
0.969164
0.964629
0.961444
1.04444
1.04619
1.04601
1.04401
1.0394
1.03219
1.02284
1.01225
1.00142
0.991166
0.982071
0.974436
0.96834
0.96378
0.960592
1.0453
1.04711
1.04695
1.0449
1.04013
1.0327
1.02306
1.01217
1.00107
0.990612
0.98137
0.973642
0.967495
0.962913
0.959725
1.04618
1.04805
1.0479
1.0458
1.04089
1.0332
1.02326
1.01206
1.00069
0.990031
0.980644
0.972824
0.966628
0.962028
0.958841
1.04709
1.04902
1.04888
1.04673
1.04165
1.03371
1.02345
1.01194
1.0003
0.989423
0.979891
0.971982
0.96574
0.961125
0.957942
1.04801
1.05001
1.04989
1.04767
1.04243
1.03422
1.02363
1.01179
0.999871
0.988786
0.97911
0.971115
0.96483
0.960202
0.957026
1.04897
1.05103
1.05092
1.04865
1.04323
1.03473
1.0238
1.01162
0.999418
0.988119
0.9783
0.970222
0.963898
0.95926
0.956095
1.04994
1.05208
1.05198
1.04964
1.04404
1.03524
1.02396
1.01143
0.998934
0.987421
0.977462
0.969303
0.962943
0.958299
0.955146
1.05094
1.05315
1.05307
1.05066
1.04486
1.03575
1.02409
1.01121
0.998419
0.986691
0.976593
0.968357
0.961965
0.957318
0.954182
1.05197
1.05425
1.05419
1.05171
1.0457
1.03626
1.02422
1.01096
0.997871
0.985927
0.975692
0.967383
0.960963
0.956317
0.953199
1.05302
1.05538
1.05534
1.05278
1.04655
1.03677
1.02432
1.01069
0.997287
0.985128
0.97476
0.966381
0.959938
0.955296
0.952201
1.0541
1.05654
1.05652
1.05388
1.04741
1.03727
1.0244
1.01037
0.996666
0.984292
0.973794
0.96535
0.958888
0.954255
0.951185
1.0552
1.05773
1.05774
1.055
1.04829
1.03776
1.02445
1.01003
0.996007
0.983419
0.972794
0.96429
0.957813
0.953193
0.950152
1.05634
1.05896
1.05899
1.05616
1.04918
1.03824
1.02448
1.00965
0.995306
0.982506
0.971758
0.9632
0.956713
0.95211
0.949101
1.05751
1.06021
1.06027
1.05734
1.05008
1.03872
1.02448
1.00922
0.994563
0.981552
0.970687
0.962079
0.955588
0.951007
0.948033
1.05871
1.06151
1.06159
1.05855
1.05099
1.03918
1.02445
1.00876
0.993775
0.980556
0.969578
0.960927
0.954436
0.949881
0.946947
1.05994
1.06284
1.06295
1.05979
1.05191
1.03963
1.02439
1.00825
0.992939
0.979516
0.968432
0.959743
0.953259
0.948735
0.945844
1.0612
1.06421
1.06434
1.06106
1.05284
1.04006
1.02428
1.00769
0.992054
0.97843
0.967246
0.958527
0.952055
0.947567
0.944722
1.0625
1.06562
1.06578
1.06236
1.05378
1.04047
1.02414
1.00708
0.991117
0.977298
0.96602
0.957278
0.950825
0.946377
0.943583
1.06384
1.06707
1.06726
1.06369
1.05473
1.04086
1.02395
1.00641
0.990126
0.976117
0.964754
0.955995
0.949567
0.945165
0.942426
1.06521
1.06856
1.06879
1.06506
1.05567
1.04122
1.02371
1.00569
0.989079
0.974886
0.963445
0.954679
0.948283
0.943931
0.941251
1.06663
1.0701
1.07036
1.06645
1.05663
1.04156
1.02342
1.00491
0.987973
0.973604
0.962094
0.953327
0.94697
0.942675
0.940058
1.06808
1.07169
1.07198
1.06788
1.05758
1.04185
1.02308
1.00406
0.986805
0.972269
0.9607
0.951942
0.94563
0.941397
0.938847
1.06958
1.07332
1.07364
1.06934
1.05852
1.04211
1.02267
1.00315
0.985574
0.970879
0.959261
0.95052
0.944262
0.940096
0.937618
1.07112
1.07501
1.07536
1.07083
1.05946
1.04233
1.02219
1.00216
0.984276
0.969433
0.957777
0.949063
0.942866
0.938774
0.936371
1.0727
1.07675
1.07713
1.07235
1.0604
1.04249
1.02164
1.00109
0.98291
0.96793
0.956247
0.94757
0.941441
0.937428
0.935105
1.07434
1.07854
1.07896
1.0739
1.06131
1.0426
1.02102
0.999951
0.981472
0.966368
0.95467
0.946041
0.939989
0.936061
0.933822
1.07602
1.0804
1.08085
1.07548
1.06221
1.04265
1.02031
0.998723
0.979961
0.964747
0.953046
0.944476
0.938507
0.934671
0.932521
1.07775
1.08231
1.08279
1.07709
1.06309
1.04263
1.01951
0.997406
0.978374
0.963064
0.951375
0.942874
0.936998
0.933259
0.931202
1.07954
1.08429
1.08479
1.07872
1.06394
1.04253
1.01862
0.995998
0.976708
0.961318
0.949656
0.941234
0.935461
0.931825
0.929866
1.08138
1.08634
1.08686
1.08038
1.06475
1.04235
1.01762
0.994492
0.974962
0.959509
0.947888
0.939559
0.933895
0.930369
0.928512
1.08329
1.08846
1.089
1.08206
1.06552
1.04208
1.01652
0.992886
0.973133
0.957636
0.946071
0.937846
0.932301
0.928891
0.92714
1.08525
1.09065
1.0912
1.08376
1.06624
1.04171
1.01529
0.991175
0.971219
0.955697
0.944205
0.936096
0.930679
0.927392
0.925751
1.08728
1.09292
1.09347
1.08547
1.06689
1.04123
1.01395
0.989355
0.969218
0.953692
0.94229
0.93431
0.92903
0.925871
0.924345
1.08937
1.09528
1.09581
1.08719
1.06748
1.04062
1.01247
0.987422
0.967129
0.951621
0.940325
0.932488
0.927354
0.924329
0.922922
1.09154
1.09772
1.09822
1.08892
1.06799
1.03988
1.01086
0.985372
0.964949
0.949483
0.938312
0.93063
0.92565
0.922766
0.921483
1.09378
1.10026
1.10071
1.09064
1.0684
1.039
1.0091
0.983202
0.962678
0.947277
0.93625
0.928736
0.92392
0.921183
0.920028
1.0961
1.1029
1.10327
1.09235
1.06871
1.03796
1.00719
0.980908
0.960315
0.945005
0.934139
0.926807
0.922164
0.91958
0.918556
1.0985
1.10563
1.1059
1.09403
1.06889
1.03675
1.00512
0.978487
0.957858
0.942665
0.931981
0.924844
0.920383
0.917958
0.91707
1.10098
1.10848
1.10861
1.09569
1.06894
1.03536
1.00288
0.975936
0.955307
0.940258
0.929776
0.922847
0.918576
0.916315
0.915567
1.10356
1.11144
1.11139
1.0973
1.06883
1.03377
1.00046
0.973253
0.952661
0.937785
0.927524
0.920817
0.916745
0.914655
0.914051
1.10623
1.11453
1.11423
1.09885
1.06855
1.03197
0.997864
0.970436
0.949922
0.935246
0.925227
0.918755
0.914891
0.912976
0.912519
1.10901
1.11774
1.11715
1.10033
1.06808
1.02995
0.995078
0.967483
0.947089
0.932643
0.922885
0.916662
0.913014
0.91128
0.910974
1.11189
1.12109
1.12012
1.10171
1.06738
1.02768
0.992099
0.964394
0.944162
0.929977
0.920501
0.914539
0.911115
0.909567
0.909414
1.11489
1.12459
1.12315
1.10298
1.06645
1.02517
0.988921
0.961169
0.941145
0.927249
0.918076
0.912387
0.909195
0.907837
0.907842
1.11802
1.12823
1.12623
1.1041
1.06526
1.02238
0.98554
0.957808
0.938037
0.924462
0.915611
0.910208
0.907255
0.906092
0.906257
1.12127
1.13203
1.12934
1.10506
1.06377
1.01931
0.981953
0.954313
0.934842
0.921617
0.913108
0.908003
0.905296
0.904332
0.904659
1.12467
1.136
1.13247
1.10582
1.06196
1.01594
0.978158
0.950685
0.931561
0.918716
0.910569
0.905774
0.90332
0.902558
0.90305
1.12822
1.14014
1.1356
1.10636
1.05981
1.01227
0.974155
0.946927
0.928198
0.915764
0.907997
0.903522
0.901326
0.90077
0.901429
1.13193
1.14445
1.13872
1.10662
1.05728
1.00828
0.969944
0.943044
0.924756
0.912761
0.905393
0.901249
0.899317
0.89897
0.899798
1.13582
1.14895
1.14179
1.10657
1.05434
1.00395
0.965528
0.939039
0.92124
0.909713
0.902761
0.898957
0.897294
0.897159
0.898156
1.13989
1.15364
1.14479
1.10617
1.05097
0.999296
0.960912
0.934918
0.917652
0.906621
0.900103
0.896647
0.895258
0.895336
0.896505
1.14418
1.15851
1.14769
1.10537
1.04713
0.994299
0.956101
0.930688
0.914
0.903491
0.897421
0.894322
0.89321
0.893504
0.894844
1.14869
1.16357
1.15043
1.10412
1.04279
0.988959
0.951103
0.926356
0.910286
0.900325
0.89472
0.891984
0.891152
0.891663
0.893175
1.15345
1.16881
1.15298
1.10235
1.03794
0.983279
0.945929
0.921929
0.906518
0.897129
0.892002
0.889635
0.889086
0.889814
0.891498
1.15847
1.17423
1.15528
1.10002
1.03254
0.977263
0.940591
0.917416
0.9027
0.893908
0.88927
0.887277
0.887012
0.887958
0.889814
1.16378
1.1798
1.15726
1.09707
1.02658
0.970922
0.935102
0.912826
0.89884
0.890665
0.886528
0.884913
0.884933
0.886097
0.888122
1.16941
1.18552
1.15885
1.09342
1.02003
0.964269
0.929478
0.908169
0.894944
0.887406
0.883779
0.882545
0.88285
0.88423
0.886425
1.17539
1.19136
1.15998
1.08903
1.01288
0.957324
0.923738
0.903456
0.891018
0.884137
0.881027
0.880175
0.880764
0.88236
0.884721
1.18175
1.19727
1.16055
1.08381
1.00514
0.950111
0.917899
0.898695
0.887071
0.880862
0.878276
0.877806
0.878678
0.880486
0.883012
1.18852
1.20322
1.16046
1.07772
0.996806
0.942658
0.911983
0.893899
0.883111
0.877588
0.87553
0.87544
0.876592
0.878611
0.881297
1.19573
1.20913
1.15961
1.07068
0.98789
0.935001
0.906008
0.889078
0.879143
0.874321
0.872792
0.87308
0.874509
0.876735
0.879578
1.20344
1.21494
1.15787
1.06266
0.978418
0.927179
0.899997
0.884242
0.875178
0.871067
0.870066
0.870728
0.87243
0.874859
0.877855
1.21167
1.22056
1.15512
1.0536
0.968426
0.919234
0.893971
0.879403
0.871224
0.867831
0.867357
0.868386
0.870356
0.872984
0.876128
1.22046
1.22587
1.15122
1.04346
0.957965
0.911214
0.887948
0.87457
0.867289
0.86462
0.864667
0.866059
0.86829
0.87111
0.874396
1.22985
1.23074
1.14604
1.03224
0.947097
0.903167
0.881948
0.869756
0.863382
0.861441
0.862002
0.863747
0.866233
0.869239
0.872661
1.23987
1.23502
1.13941
1.01992
0.935903
0.895142
0.875989
0.864971
0.859514
0.858299
0.859364
0.861453
0.864186
0.867371
0.870922
1.25054
1.23851
1.1312
1.00654
0.924472
0.887189
0.870087
0.860226
0.855694
0.855202
0.856758
0.85918
0.86215
0.865506
0.869179
1.26189
1.24099
1.12126
0.992124
0.912912
0.879352
0.864254
0.855532
0.851932
0.852155