1.45 	0 	0 	-0.292262
2.35 	0 	0 	-0.127559
