1.275 	2.15223e-18 	-2.76991e-20 	-0.0344497 	-0.000434417 	-1.91412e-22
1.825 	2.15223e-18 	-1.39322e-20 	-0.0094396 	-0.00275712 	1.6927e-21
2.375 	2.15223e-18 	-2.66896e-23 	0.115379 	-0.0032463 	-7.06121e-22
