/*--------------------------------*- C++ -*----------------------------------*\
  =========                 |
  \\      /  F ield         | OpenFOAM: The Open Source CFD Toolbox
   \\    /   O peration     | Website:  https://openfoam.org
    \\  /    A nd           | Version:  6.0
     \\/     M anipulation  |
\*---------------------------------------------------------------------------*/
FoamFile
{
    version     2.0;
    format      ascii;
    class       surfaceScalarField;
    location    "92";
    object      phi;
}
// * * * * * * * * * * * * * * * * * * * * * * * * * * * * * * * * * * * * * //

dimensions      [0 3 -1 0 0 0 0];

internalField   nonuniform List<scalar> 
68636
(
3.02217e-05
0.0031056
9.3868e-09
6.08367e-05
0.00307069
9.10861e-05
0.00300234
0.000120477
0.00290106
0.000148621
0.00276787
0.000175172
0.00260424
0.000199816
0.00241199
0.000222269
0.00219325
0.000242273
0.00195042
0.000259601
0.00168616
0.000274057
0.00140336
0.00028548
0.00110498
0.000293771
0.000794345
0.000298719
0.000473835
0.000140328
0.000297846
2.99342e-05
0.00307564
2.40241e-08
6.02731e-05
0.00304035
9.02496e-05
0.00297236
0.000119375
0.00287193
0.000147264
0.00273998
0.000173574
0.00257793
0.000197993
0.00238757
0.000220242
0.00217099
0.000240064
0.00193059
0.000257235
0.00166899
0.000271561
0.00138904
0.000282877
0.00109366
0.00029114
0.000786078
0.000295766
0.000469207
0.000140902
0.00029519
2.96498e-05
0.00304596
3.78359e-08
5.97149e-05
0.00301028
8.94209e-05
0.00294265
0.000118284
0.00284306
0.000145921
0.00271234
0.000171993
0.00255186
0.000196192
0.00236337
0.000218239
0.00214895
0.000237881
0.00191095
0.000254896
0.00165198
0.000269091
0.00137484
0.000280298
0.00108245
0.000288486
0.000777891
0.000293213
0.000464481
0.000140821
0.000293294
2.93686e-05
0.00301654
5.10064e-08
5.91623e-05
0.00298049
8.86003e-05
0.00291321
0.000117203
0.00281446
0.00014459
0.00268495
0.000170427
0.00252602
0.000194407
0.00233939
0.000216254
0.0021271
0.000235718
0.00189148
0.000252577
0.00163511
0.000266644
0.00136077
0.000277744
0.00107135
0.000285833
0.000769799
0.000290611
0.000459701
0.000140325
0.000291104
2.90903e-05
0.00298738
6.36261e-08
5.86149e-05
0.00295096
8.77872e-05
0.00288404
0.000116131
0.00278612
0.000143272
0.00265781
0.000168874
0.00250042
0.000192638
0.00231562
0.000214286
0.00210545
0.000233573
0.0018722
0.000250279
0.00161841
0.000264217
0.00134683
0.000275213
0.00106035
0.000283199
0.000761813
0.000287958
0.000454942
0.000139581
0.000288703
2.88148e-05
0.00295849
7.5792e-08
5.80726e-05
0.00292171
8.69813e-05
0.00285513
0.000115069
0.00275803
0.000141964
0.00263091
0.000167335
0.00247504
0.000190883
0.00229207
0.000212335
0.00208399
0.000231447
0.00185308
0.000248
0.00160185
0.000261811
0.00133302
0.000272705
0.00104946
0.000280595
0.000753922
0.000285311
0.000450224
0.000138673
0.000286217
2.8542e-05
0.00292986
8.74326e-08
5.75352e-05
0.00289271
8.61826e-05
0.00282648
0.000114016
0.00273019
0.000140668
0.00260426
0.00016581
0.0024499
0.000189144
0.00226874
0.000210401
0.00206274
0.000229339
0.00183415
0.000245741
0.00158545
0.000259426
0.00131934
0.000270221
0.00103866
0.000278021
0.000746122
0.00028269
0.000445556
0.00013766
0.000283703
2.82719e-05
0.00290149
9.86268e-08
5.70027e-05
0.00286398
8.53909e-05
0.00279809
0.000112973
0.00270261
0.000139384
0.00257785
0.000164298
0.00242499
0.00018742
0.00224561
0.000208484
0.00204167
0.000227249
0.00181538
0.000243502
0.0015692
0.000257061
0.00130577
0.00026776
0.00102796
0.000275477
0.000738404
0.000280098
0.000440933
0.000136562
0.000281194
2.80044e-05
0.00287338
1.09388e-07
5.64751e-05
0.00283551
8.46064e-05
0.00276996
0.000111939
0.00267528
0.000138111
0.00255167
0.000162799
0.0024003
0.000185712
0.0022227
0.000206584
0.0020208
0.000225179
0.00179679
0.000241283
0.0015531
0.000254718
0.00129234
0.00026532
0.00101736
0.000272959
0.000730765
0.000277536
0.000436356
0.000135399
0.000278699
2.77395e-05
0.00284552
1.19709e-07
5.59523e-05
0.0028073
8.38289e-05
0.00274208
0.000110914
0.00264819
0.000136849
0.00252574
0.000161313
0.00237584
0.000184018
0.0022
0.000204701
0.00200011
0.000223126
0.00177836
0.000239083
0.00153714
0.000252395
0.00127903
0.000262901
0.00100685
0.000270466
0.000723198
0.000275002
0.000431818
0.000134182
0.000276217
2.74772e-05
0.00281791
1.29594e-07
5.54343e-05
0.00277934
8.30584e-05
0.00271446
0.000109898
0.00262135
0.000135598
0.00250004
0.00015984
0.00235159
0.000182339
0.0021775
0.000202835
0.00197962
0.000221092
0.0017601
0.000236903
0.00152133
0.000250093
0.00126584
0.000260504
0.000996442
0.000267998
0.000715705
0.000272494
0.000427322
0.000132928
0.000273748
2.72175e-05
0.00279055
1.39015e-07
5.49212e-05
0.00275164
8.22949e-05
0.00268708
0.000108891
0.00259476
0.000134358
0.00247457
0.000158381
0.00232757
0.000180676
0.0021552
0.000200984
0.00195931
0.000219076
0.00174201
0.000234743
0.00150566
0.000247811
0.00125277
0.000258128
0.000986124
0.000265552
0.000708279
0.000270009
0.000422863
0.000131642
0.000271293
2.69604e-05
0.00276344
1.47968e-07
5.44128e-05
0.00272419
8.15383e-05
0.00265996
0.000107894
0.0025684
0.00013313
0.00244933
0.000156934
0.00230377
0.000179027
0.00213311
0.000199151
0.00193919
0.000217077
0.00172408
0.000232602
0.00149013
0.00024555
0.00123982
0.000255773
0.000975902
0.00026313
0.000700922
0.000267548
0.000418444
0.000130336
0.000268855
2.67059e-05
0.00273658
1.56436e-07
5.39091e-05
0.00269698
8.07886e-05
0.00263308
0.000106905
0.00254228
0.000131912
0.00242433
0.000155501
0.00228018
0.000177392
0.00211122
0.000197333
0.00191924
0.000215097
0.00170632
0.00023048
0.00147475
0.00024331
0.00122699
0.000253439
0.000965772
0.000260729
0.00069363
0.00026511
0.000414061
0.00012901
0.000266432
2.64539e-05
0.00270996
1.64411e-07
5.34102e-05
0.00267003
8.00458e-05
0.00260644
0.000105925
0.00251641
0.000130705
0.00239955
0.00015408
0.0022568
0.000175772
0.00208952
0.000195532
0.00189948
0.000213134
0.00168872
0.000228377
0.00145951
0.000241089
0.00121428
0.000251126
0.000955736
0.000258351
0.000686406
0.000262694
0.000409718
0.000127678
0.000264026
2.62045e-05
0.00268359
1.7188e-07
5.29159e-05
0.00264331
7.93097e-05
0.00258005
0.000104954
0.00249076
0.000129509
0.00237499
0.000152671
0.00223364
0.000174167
0.00206803
0.000193747
0.0018799
0.000211189
0.00167128
0.000226293
0.0014444
0.000238889
0.00120168
0.000248834
0.000945789
0.000255994
0.000679245
0.0002603
0.00040541
0.000126336
0.000261639
2.59577e-05
0.00265745
1.78836e-07
5.24264e-05
0.00261685
7.85803e-05
0.00255389
0.000103992
0.00246535
0.000128324
0.00235066
0.000151276
0.00221069
0.000172576
0.00204673
0.000191978
0.0018605
0.000209261
0.00165399
0.000224228
0.00142944
0.000236709
0.0011892
0.000246563
0.000935936
0.000253659
0.000672149
0.000257928
0.000401141
0.000124995
0.00025927
2.57134e-05
0.00263155
1.85281e-07
5.19414e-05
0.00259062
7.78577e-05
0.00252798
0.000103038
0.00244017
0.000127149
0.00232655
0.000149892
0.00218794
0.000170999
0.00202562
0.000190225
0.00184127
0.000207351
0.00163687
0.000222181
0.0014146
0.000234548
0.00117683
0.000244313
0.00092617
0.000251345
0.000665115
0.000255578
0.000396906
0.000123648
0.000256921
2.54715e-05
0.00260589
1.91232e-07
5.1461e-05
0.00256463
7.71417e-05
0.0025023
0.000102093
0.00241522
0.000125985
0.00230266
0.000148522
0.00216541
0.000169436
0.00200471
0.000188488
0.00182222
0.000205457
0.0016199
0.000220153
0.00139991
0.000232407
0.00116458
0.000242082
0.000916495
0.000249052
0.000658146
0.000253249
0.000392709
0.000122307
0.000254591
2.52321e-05
0.00258046
1.96707e-07
5.09852e-05
0.00253887
7.64323e-05
0.00247685
0.000101157
0.00239049
0.000124832
0.00227898
0.000147163
0.00214308
0.000167888
0.00198398
0.000186766
0.00180335
0.000203581
0.00160308
0.000218143
0.00138535
0.000230286
0.00115243
0.000239873
0.000906906
0.00024678
0.000651236
0.000250941
0.000388545
0.000120962
0.000252282
2.49952e-05
0.00255526
2.01736e-07
5.05138e-05
0.00251336
7.57294e-05
0.00245163
0.000100229
0.00236599
0.000123689
0.00225552
0.000145817
0.00212095
0.000166353
0.00196344
0.000185059
0.00178464
0.000201722
0.00158642
0.000216151
0.00137092
0.000228183
0.0011404
0.000237683
0.000897407
0.000244529
0.000644391
0.000248655
0.00038442
0.000119625
0.000249993
2.47607e-05
0.00253029
2.06357e-07
5.00469e-05
0.00248807
7.5033e-05
0.00242665
9.93098e-05
0.00234171
0.000122556
0.00223227
0.000144483
0.00209902
0.000164832
0.00194309
0.000183368
0.0017661
0.000199879
0.00156991
0.000214177
0.00135662
0.0002261
0.00112848
0.000235513
0.000887992
0.000242299
0.000637604
0.00024639
0.000380326
0.000118286
0.000247724
2.45285e-05
0.00250556
2.10617e-07
4.95844e-05
0.00246301
7.43429e-05
0.00240189
9.83988e-05
0.00231766
0.000121433
0.00220924
0.000143161
0.00207729
0.000163325
0.00192293
0.000181692
0.00174774
0.000198053
0.00155355
0.000212221
0.00134245
0.000224036
0.00111667
0.000233364
0.000878665
0.000240089
0.00063088
0.000244145
0.00037627
0.000116958
0.000245474
2.42987e-05
0.00248104
2.14564e-07
4.91263e-05
0.00243818
7.36593e-05
0.00237735
9.7496e-05
0.00229382
0.000120321
0.00218641
0.000141851
0.00205576
0.000161832
0.00190295
0.000180032
0.00172953
0.000196244
0.00153734
0.000210283
0.00132841
0.00022199
0.00110496
0.000231233
0.000869419
0.000237899
0.000624212
0.00024192
0.000372245
0.000115628
0.000243245
2.40711e-05
0.00245675
2.18249e-07
4.86724e-05
0.00241358
7.29819e-05
0.00235304
9.66015e-05
0.0022702
0.000119219
0.0021638
0.000140552
0.00203443
0.000160351
0.00188315
0.000178386
0.0017115
0.000194451
0.00152127
0.000208362
0.0013145
0.000219963
0.00109336
0.000229123
0.000860261
0.000235729
0.000617607
0.000239716
0.000368258
0.000114311
0.000241035
2.38457e-05
0.00243269
2.21723e-07
4.82228e-05
0.00238921
7.23107e-05
0.00232896
9.57152e-05
0.0022468
0.000118126
0.00214139
0.000139266
0.00201329
0.000158885
0.00186353
0.000176755
0.00169363
0.000192674
0.00150535
0.000206459
0.00130071
0.000217955
0.00108186
0.000227031
0.000851182
0.000233579
0.000611058
0.000237532
0.000364301
0.000112992
0.000238845
2.36225e-05
0.00240884
2.25036e-07
4.77773e-05
0.00236505
7.16457e-05
0.00230509
9.48369e-05
0.00222361
0.000117044
0.00211918
0.000137991
0.00199234
0.000157431
0.00184409
0.000175139
0.00167592
0.000190913
0.00148958
0.000204573
0.00128705
0.000215964
0.00107047
0.000224959
0.000842188
0.000231448
0.000604569
0.000235368
0.000360382
0.000111688
0.000236674
2.34015e-05
0.00238521
2.28232e-07
4.7336e-05
0.00234112
7.09868e-05
0.00228144
9.39666e-05
0.00220063
0.000115971
0.00209717
0.000136728
0.00197158
0.000155991
0.00182483
0.000173538
0.00165837
0.000189168
0.00147395
0.000202704
0.00127352
0.000213992
0.00105918
0.000222905
0.000833273
0.000229337
0.000598135
0.000233224
0.000356491
0.000110384
0.000234522
2.31826e-05
0.00236179
2.3135e-07
4.68987e-05
0.0023174
7.03338e-05
0.002258
9.31042e-05
0.00217786
0.000114908
0.00207537
0.000135476
0.00195102
0.000154564
0.00180574
0.000171951
0.00164099
0.000187439
0.00145846
0.000200852
0.0012601
0.000212038
0.001048
0.00022087
0.000824441
0.000227245
0.000591762
0.000231099
0.000352639
0.000109096
0.000232388
2.29657e-05
0.00233859
2.34423e-07
4.64655e-05
0.0022939
6.96869e-05
0.00223478
9.22496e-05
0.00215529
0.000113855
0.00205376
0.000134235
0.00193064
0.000153149
0.00178682
0.000170379
0.00162376
0.000185726
0.00144311
0.000199017
0.00124681
0.000210101
0.00103691
0.000218854
0.000815686
0.000225173
0.000585441
0.000228993
0.000348815
0.00010781
0.000230273
2.27509e-05
0.00231561
2.37478e-07
4.60362e-05
0.00227061
6.90458e-05
0.00221177
9.14028e-05
0.00213294
0.000112811
0.00203236
0.000133006
0.00191044
0.000151748
0.00176808
0.00016882
0.00160668
0.000184028
0.00142791
0.000197198
0.00123364
0.000208182
0.00102593
0.000216856
0.000807013
0.000223119
0.00057918
0.000226906
0.000345029
0.000106541
0.000228177
2.2538e-05
0.00229283
2.40537e-07
4.56108e-05
0.00224754
6.84105e-05
0.00218897
9.05636e-05
0.00211078
0.000111777
0.00201114
0.000131788
0.00189043
0.000150359
0.00174951
0.000167276
0.00158977
0.000182346
0.00141284
0.000195396
0.00122059
0.000206281
0.00101504
0.000214877
0.000798415
0.000221084
0.00057297
0.000224838
0.000341271
0.000105273
0.0002261
2.2327e-05
0.00227026
2.43617e-07
4.51893e-05
0.00222468
6.7781e-05
0.00216638
8.97321e-05
0.00208883
0.000110752
0.00199012
0.00013058
0.0018706
0.000148983
0.00173111
0.000165746
0.001573
0.000180678
0.0013979
0.000193611
0.00120766
0.000204397
0.00100426
0.000212915
0.000789898
0.000219067
0.00056682
0.000222789
0.00033755
0.000104023
0.000224041
2.2118e-05
0.00224789
2.4673e-07
4.47716e-05
0.00220202
6.71572e-05
0.00214399
8.8908e-05
0.00206708
0.000109736
0.00196929
0.000129384
0.00185095
0.000147619
0.00171287
0.00016423
0.00155639
0.000179026
0.00138311
0.000191841
0.00119484
0.000202529
0.000993567
0.000210971
0.000781454
0.000217068
0.00056072
0.000220758
0.000333856
0.000102774
0.000222001
2.19108e-05
0.00222573
2.4989e-07
4.43577e-05
0.00217958
6.6539e-05
0.00212181
8.80914e-05
0.00204553
0.00010873
0.00194866
0.000128198
0.00183149
0.000146267
0.0016948
0.000162727
0.00153993
0.000177389
0.00136845
0.000190088
0.00118214
0.000200679
0.000982977
0.000209045
0.00077309
0.000215088
0.000554678
0.000218746
0.000330199
0.000101543
0.00021998
2.17055e-05
0.00220377
2.53104e-07
4.39475e-05
0.00215734
6.59264e-05
0.00209983
8.72822e-05
0.00202417
0.000107733
0.0019282
0.000127024
0.00181219
0.000144928
0.0016769
0.000161238
0.00152362
0.000175767
0.00135392
0.00018835
0.00116956
0.000198846
0.000972479
0.000207136
0.000764797
0.000213126
0.000548685
0.000216752
0.000326567
0.000100311
0.000217977
2.15019e-05
0.00218201
2.56383e-07
4.35409e-05
0.0021353
6.53193e-05
0.00207805
8.64802e-05
0.00200301
0.000106744
0.00190794
0.000125859
0.00179308
0.000143601
0.00165916
0.000159762
0.00150746
0.000174159
0.00133952
0.000186628
0.00115709
0.000197029
0.00096208
0.000205244
0.000756583
0.000211181
0.00054275
0.000214777
0.000322974
9.90982e-05
0.000215993
2.13001e-05
0.00216045
2.59733e-07
4.3138e-05
0.00211346
6.47176e-05
0.00205647
8.56855e-05
0.00198204
0.000105765
0.00188786
0.000124706
0.00177414
0.000142285
0.00164158
0.0001583
0.00149144
0.000172566
0.00132525
0.000184922
0.00114473
0.000195229
0.000951772
0.00020337
0.000748439
0.000209254
0.000536864
0.000212819
0.000319404
9.78832e-05
0.000214027
2.11001e-05
0.00213909
2.63167e-07
4.27386e-05
0.00209182
6.41213e-05
0.00203509
8.48978e-05
0.00196127
0.000104794
0.00186797
0.000123562
0.00175537
0.000140982
0.00162416
0.000156851
0.00147558
0.000170988
0.00131112
0.000183232
0.00113249
0.000193445
0.00094156
0.000201513
0.000740372
0.000207344
0.000531034
0.000210878
0.000315872
9.66876e-05
0.000212077
2.09017e-05
0.00211792
2.66694e-07
4.23427e-05
0.00207038
6.35302e-05
0.0020139
8.41172e-05
0.00194068
0.000103832
0.00184825
0.000122429
0.00173677
0.00013969
0.0016069
0.000155415
0.00145985
0.000169423
0.00129711
0.000181556
0.00112035
0.000191677
0.000931437
0.000199673
0.000732374
0.000205452
0.000525251
0.000208955
0.000312365
9.54903e-05
0.000210145
2.07051e-05
0.00209695
2.70325e-07
4.19504e-05
0.00204913
6.29445e-05
0.00199291
8.33436e-05
0.00192028
0.000102878
0.00182872
0.000121306
0.00171834
0.00013841
0.00158979
0.000153992
0.00144427
0.000167873
0.00128323
0.000179896
0.00110833
0.000189926
0.000921409
0.000197849
0.000724452
0.000203577
0.000519525
0.00020705
0.000308894
9.43139e-05
0.00020823
2.051e-05
0.00207616
2.74074e-07
4.15614e-05
0.00202808
6.23639e-05
0.00197211
8.2577e-05
0.00190007
0.000101934
0.00180936
0.000120194
0.00170008
0.000137142
0.00157284
0.000152582
0.00142883
0.000166337
0.00126947
0.000178251
0.00109642
0.00018819
0.000911468
0.000196042
0.000716597
0.000201719
0.000513844
0.000205162
0.000305447
9.31357e-05
0.000206332
2.03167e-05
0.00205557
2.77953e-07
4.11759e-05
0.00200722
6.17885e-05
0.0019515
8.18171e-05
0.00188004
0.000100997
0.00179018
0.000119091
0.00168199
0.000135885
0.00155605
0.000151185
0.00141353
0.000164815
0.00125584
0.000176621
0.00108461
0.00018647
0.00090162
0.000194252
0.000708817
0.000199878
0.00050822
0.000203291
0.000302037
9.19794e-05
0.000204451
2.01249e-05
0.00203516
2.81977e-07
4.07937e-05
0.00198655
6.12182e-05
0.00193107
8.10641e-05
0.00186019
0.000100069
0.00177117
0.000117998
0.00166406
0.000134639
0.00153941
0.0001498
0.00139837
0.000163306
0.00124233
0.000175006
0.00107291
0.000184766
0.000891858
0.000192477
0.000701103
0.000198054
0.00050264
0.000201436
0.00029865
9.08211e-05
0.000202587
1.99347e-05
0.00201494
2.86158e-07
4.04148e-05
0.00196607
6.06529e-05
0.00191083
8.03177e-05
0.00184053
9.91496e-05
0.00175234
0.000116915
0.00164629
0.000133405
0.00152292
0.000148428
0.00138335
0.000161812
0.00122895
0.000173405
0.00106132
0.000183077
0.000882188
0.000190719
0.000693462
0.000196247
0.000497115
0.000199599
0.0002953
8.96856e-05
0.000200739
1.97461e-05
0.0019949
2.90508e-07
4.00393e-05
0.00194578
6.00927e-05
0.00189078
7.9578e-05
0.00182104
9.82382e-05
0.00173368
0.000115842
0.00162869
0.000132182
0.00150658
0.000147068
0.00136846
0.000160331
0.00121569
0.000171819
0.00104983
0.000181404
0.000872601
0.000188977
0.000685886
0.000194455
0.000491634
0.000197778
0.000291973
8.85476e-05
0.000198908
1.95591e-05
0.00197505
2.95037e-07
3.9667e-05
0.00192567
5.95374e-05
0.00187091
7.8845e-05
0.00180173
9.7335e-05
0.00171519
0.000114778
0.00161125
0.00013097
0.00149039
0.000145721
0.00135371
0.000158863
0.00120255
0.000170247
0.00103845
0.000179746
0.000863104
0.000187251
0.000678382
0.00019268
0.000486207
0.000195974
0.000288682
8.74326e-05
0.000197093
1.93736e-05
0.00195537
2.99753e-07
3.92979e-05
0.00190575
5.8987e-05
0.00185122
7.81184e-05
0.0017826
9.64399e-05
0.00169687
0.000113724
0.00159396
0.000129768
0.00147434
0.000144385
0.00133909
0.000157409
0.00118952
0.00016869
0.00102716
0.000178102
0.000853689
0.000185541
0.000670941
0.000190921
0.000480823
0.000194186
0.000285412
8.63146e-05
0.000195295
1.91896e-05
0.00193588
3.0466e-07
3.89321e-05
0.00188601
5.84414e-05
0.00183171
7.73983e-05
0.00176365
9.55528e-05
0.00167872
0.00011268
0.00157684
0.000128578
0.00145845
0.000143062
0.00132461
0.000155967
0.00117662
0.000167147
0.00101598
0.000176474
0.000844363
0.000183846
0.000663571
0.000189178
0.000475492
0.000192414
0.000282179
8.52198e-05
0.000193514
1.90071e-05
0.00191656
3.09759e-07
3.85694e-05
0.00186644
5.79007e-05
0.00181238
7.66847e-05
0.00174486
9.46736e-05
0.00166073
0.000111645
0.00155986
0.000127398
0.00144269
0.000141751
0.00131025
0.000154539
0.00116383
0.000165617
0.0010049
0.000174861
0.000835118
0.000182166
0.000656263
0.000187451
0.000470203
0.000190659
0.000278966
8.41207e-05
0.000191749
1.88261e-05
0.00189742
3.15048e-07
3.82099e-05
0.00184706
5.73648e-05
0.00179322
7.59774e-05
0.00172625
9.38024e-05
0.0016429
0.000110619
0.00154305
0.000126229
0.00142708
0.000140452
0.00129603
0.000153124
0.00115116
0.000164102
0.000993927
0.000173262
0.000825959
0.000180502
0.000649026
0.00018574
0.000464968
0.000188919
0.00027579
8.30443e-05
0.000190001
1.86465e-05
0.00187846
3.20521e-07
3.78535e-05
0.00182785
5.68335e-05
0.00177424
7.52764e-05
0.0017078
9.2939e-05
0.00162524
0.000109603
0.00152638
0.000125071
0.00141161
0.000139164
0.00128193
0.000151722
0.0011386
0.0001626
0.000983046
0.000171678
0.000816879
0.000178852
0.000641848
0.000184044
0.000459772
0.000187195
0.000272633
8.19622e-05
0.000188269
1.84684e-05
0.00185966
3.2617e-07
3.75001e-05
0.00180882
5.6307e-05
0.00175544
7.45816e-05
0.00168953
9.20833e-05
0.00160774
0.000108595
0.00150987
0.000123923
0.00139629
0.000137888
0.00126797
0.000150332
0.00112616
0.000161112
0.000972268
0.000170108
0.000807885
0.000177218
0.00063474
0.000182364
0.00045463
0.000185487
0.000269513
8.09028e-05
0.000186552
1.82918e-05
0.00184104
3.31987e-07
3.71498e-05
0.00178996
5.57851e-05
0.0017368
7.38931e-05
0.00167142
9.12352e-05
0.00159039
0.000107597
0.00149351
0.000122785
0.0013811
0.000136624
0.00125413
0.000148955
0.00111382
0.000159638
0.000961582
0.000168553
0.000798968
0.000175599
0.000627691
0.000180698
0.000449527
0.000183795
0.000266411
7.98368e-05
0.000184852
1.81166e-05
0.00182258
3.37958e-07
3.68025e-05
0.00177128
5.52678e-05
0.00171834
7.32107e-05
0.00165348
9.03948e-05
0.00157321
0.000106608
0.0014773
0.000121658
0.00136605
0.000135371
0.00124042
0.000147591
0.0011016
0.000158177
0.000950997
0.000167012
0.000790136
0.000173995
0.00062071
0.000179048
0.000444476
0.000182117
0.000263345
7.87942e-05
0.000183166
1.79428e-05
0.0018043
3.4407e-07
3.64583e-05
0.00175276
5.47551e-05
0.00170004
7.25343e-05
0.0016357
8.95619e-05
0.00155618
0.000105627
0.00146123
0.000120541
0.00135113
0.00013413
0.00122683
0.000146239
0.00108949
0.00015673
0.000940504
0.000165485
0.000781378
0.000172405
0.000613787
0.000177414
0.000439464
0.000180455
0.000260298
7.77452e-05
0.000181495
1.77704e-05
0.00178618
3.5031e-07
3.6117e-05
0.00173441
5.42469e-05
0.00168191
7.1864e-05
0.00161808
8.87365e-05
0.00153931
0.000104656
0.00144531
0.000119434
0.00133636
0.0001329
0.00121336
0.000144899
0.0010775
0.000155295
0.00093011
0.000163971
0.000772704
0.00017083
0.000606931
0.000175794
0.000434503
0.000178808
0.000257286
7.67212e-05
0.000179839
1.75994e-05
0.00176822
3.56663e-07
3.57787e-05
0.00171623
5.37432e-05
0.00166394
7.11997e-05
0.00160063
8.79186e-05
0.00152259
0.000103693
0.00142954
0.000118337
0.00132171
0.000131681
0.00120002
0.000143572
0.0010656
0.000153874
0.000919805
0.000162472
0.000764104
0.000169269
0.000600131
0.000174188
0.000429579
0.000177176
0.000254292
7.56911e-05
0.000178197
1.74298e-05
0.00175043
3.63115e-07
3.54433e-05
0.00169822
5.32439e-05
0.00164614
7.05413e-05
0.00158333
8.7108e-05
0.00150603
0.000102739
0.00141391
0.00011725
0.0013072
0.000130473
0.0011868
0.000142256
0.00105382
0.000152466
0.000909597
0.000160986
0.000755585
0.000167722
0.000593397
0.000172598
0.000424707
0.000175559
0.000251335
7.46868e-05
0.00017657
1.72616e-05
0.0017328
3.69652e-07
3.51108e-05
0.00168037
5.27491e-05
0.00162851
6.98888e-05
0.00156619
8.63047e-05
0.00148961
0.000101794
0.00139842
0.000116173
0.00129282
0.000129276
0.00117369
0.000140953
0.00104214
0.00015107
0.000899477
0.000159514
0.000747139
0.00016619
0.000586719
0.000171022
0.000419871
0.000173957
0.000248394
7.3676e-05
0.000174958
1.70948e-05
0.00171533
3.76262e-07
3.47813e-05
0.00166269
5.22587e-05
0.00161103
6.92422e-05
0.00154921
8.55087e-05
0.00147334
0.000100857
0.00138307
0.000115106
0.00127857
0.00012809
0.00116071
0.000139661
0.00103057
0.000149688
0.000889453
0.000158056
0.000738773
0.000164671
0.000580105
0.000169461
0.000415085
0.000172369
0.000245489
7.26915e-05
0.000173361
1.69295e-05
0.00169801
3.82931e-07
3.44546e-05
0.00164516
5.17727e-05
0.00159371
6.86015e-05
0.00153238
8.47199e-05
0.00145722
9.99285e-05
0.00136786
0.000114048
0.00126445
0.000126915
0.00114784
0.000138382
0.00101911
0.000148318
0.000879515
0.000156611
0.000730477
0.000163167
0.000573546
0.000167913
0.000410334
0.000170796
0.0002426
7.16991e-05
0.000171778
1.67655e-05
0.00168086
3.89651e-07
3.41308e-05
0.00162779
5.1291e-05
0.00157655
6.79665e-05
0.0015157
8.39382e-05
0.00144125
9.90087e-05
0.00135279
0.000113
0.00125046
0.000125751
0.00113509
0.000137114
0.00100774
0.00014696
0.00086967
0.000155179
0.000722261
0.000161676
0.000567051
0.00016638
0.000405634
0.000169237
0.000239747
7.07327e-05
0.000170211
1.66028e-05
0.00166386
3.96409e-07
3.38099e-05
0.00161059
5.08136e-05
0.00155955
6.73372e-05
0.00149918
8.31637e-05
0.00142543
9.80972e-05
0.00133785
0.000111962
0.00123659
0.000124597
0.00112245
0.000135858
0.000996482
0.000145615
0.00085991
0.00015376
0.000714114
0.000160199
0.000560608
0.000164861
0.000400968
0.000167693
0.000236909
6.97574e-05
0.000168657
1.64416e-05
0.00164701
4.03196e-07
3.34918e-05
0.00159354
5.03406e-05
0.0015427
6.67137e-05
0.0014828
8.23961e-05
0.00140974
9.71941e-05
0.00132306
0.000110933
0.00122286
0.000123454
0.00110993
0.000134613
0.000985324
0.000144283
0.000850243
0.000152354
0.000706045
0.000158735
0.000554229
0.000163356
0.000396351
0.000166162
0.000234107
6.88086e-05
0.000167118
1.62817e-05
0.00163032
4.10002e-07
3.31766e-05
0.00157664
4.98717e-05
0.001526
6.60957e-05
0.00146658
8.16356e-05
0.0013942
9.62992e-05
0.00130839
0.000109914
0.00120924
0.000122321
0.00109752
0.000133379
0.000974264
0.000142962
0.000840658
0.000150961
0.000698043
0.000157285
0.000547901
0.000161864
0.000391768
0.000164645
0.000231319
6.78505e-05
0.000165593
1.61232e-05
0.00161378
4.16818e-07
3.28641e-05
0.0015599
4.94071e-05
0.00150946
6.54834e-05
0.0014505
8.08819e-05
0.00137881
9.54124e-05
0.00129386
0.000108904
0.00119575
0.000121199
0.00108523
0.000132157
0.000963308
0.000141654
0.000831163
0.000149581
0.000690119
0.000155848
0.000541636
0.000160386
0.000387233
0.000163143
0.000228567
6.69196e-05
0.000164081
1.59661e-05
0.00159739
4.23632e-07
3.25544e-05
0.00154331
4.89467e-05
0.00149307
6.48765e-05
0.00143457
8.01351e-05
0.00136355
9.45337e-05
0.00127946
0.000107903
0.00118238
0.000120087
0.00107305
0.000130946
0.000952446
0.000140357
0.00082175
0.000148213
0.00068226
0.000154424
0.000535421
0.000158922
0.000382732
0.000161654
0.000225829
6.59795e-05
0.000162583
1.58103e-05
0.00158115
4.30436e-07
3.22475e-05
0.00152688
4.84904e-05
0.00147683
6.42752e-05
0.00141879
7.93951e-05
0.00134843
9.36631e-05
0.0012652
0.000106911
0.00116913
0.000118985
0.00106097
0.000129747
0.000941687
0.000139073
0.000812426
0.000146858
0.000674478
0.000153014
0.000529268
0.000157471
0.000378278
0.000160178
0.000223126
6.50676e-05
0.000161098
1.56559e-05
0.00156506
4.37219e-07
3.19433e-05
0.00151059
4.80382e-05
0.00146073
6.36794e-05
0.00140315
7.86619e-05
0.00133344
9.28004e-05
0.00125106
0.000105928
0.001156
0.000117893
0.00104901
0.000128558
0.00093102
0.0001378
0.000803181
0.000145515
0.00066676
0.000151616
0.000523164
0.000156034
0.000373856
0.000158716
0.000220437
6.41458e-05
0.000159627
1.55028e-05
0.00154911
4.43972e-07
3.16418e-05
0.00149445
4.75901e-05
0.00144478
6.3089e-05
0.00138765
7.79353e-05
0.0013186
9.19456e-05
0.00123705
0.000104955
0.001143
0.000116812
0.00103715
0.00012738
0.000920454
0.000136539
0.000794024
0.000144185
0.000659116
0.000150231
0.000517121
0.000154609
0.000369482
0.000157268
0.000217783
6.32521e-05
0.00015817
1.53511e-05
0.00153331
4.50687e-07
3.13431e-05
0.00147846
4.71461e-05
0.00142898
6.2504e-05
0.00137229
7.72155e-05
0.00130389
9.10987e-05
0.00122316
0.00010399
0.0011301
0.00011574
0.0010254
0.000126213
0.000909979
0.00013529
0.000784945
0.000142867
0.000651536
0.000148859
0.000511125
0.000153198
0.000365139
0.000155833
0.000215141
6.23474e-05
0.000156727
1.52008e-05
0.00151765
4.57355e-07
3.10471e-05
0.00146261
4.67062e-05
0.00141332
6.19244e-05
0.00135707
7.65022e-05
0.00128931
9.02596e-05
0.00120941
0.000103034
0.00111733
0.000114678
0.00101376
0.000125057
0.000899602
0.000134052
0.000775952
0.000141561
0.000644029
0.0001475
0.00050519
0.0001518
0.000360843
0.000154411
0.000212534
6.14701e-05
0.000155297
1.50518e-05
0.00150214
4.63969e-07
3.07537e-05
0.00144691
4.62703e-05
0.0013978
6.135e-05
0.00134199
7.57955e-05
0.00127486
8.94282e-05
0.00119577
0.000102088
0.00110467
0.000113626
0.00100222
0.000123911
0.000889315
0.000132826
0.000767036
0.000140268
0.000636584
0.000146152
0.000499302
0.000150414
0.000356577
0.000153002
0.000209939
6.05801e-05
0.000153881
1.49041e-05
0.00148676
4.70522e-07
3.04631e-05
0.00143135
4.58383e-05
0.00138243
6.07809e-05
0.00132705
7.50953e-05
0.00126055
8.86044e-05
0.00118226
0.000101149
0.00109213
0.000112584
0.000990784
0.000122776
0.000879124
0.00013161
0.000758204
0.000138986
0.000629212
0.000144818
0.000493472
0.000149041
0.000352358
0.000151607
0.000207379
5.97167e-05
0.000152479
1.47578e-05
0.00147153
4.7701e-07
3.0175e-05
0.00141593
4.54103e-05
0.00136719
6.02171e-05
0.00131224
7.44015e-05
0.00124636
8.77883e-05
0.00116888
0.00010022
0.00107969
0.000111551
0.000979451
0.000121652
0.000869021
0.000130406
0.000749447
0.000137715
0.0006219
0.000143495
0.000487689
0.000147681
0.000348168
0.000150224
0.000204829
5.88397e-05
0.000151089
1.46128e-05
0.00145643
4.83427e-07
2.98896e-05
0.00140066
4.49862e-05
0.0013521
5.96584e-05
0.00129757
7.3714e-05
0.00123231
8.69796e-05
0.00115561
9.92986e-05
0.00106738
0.000110528
0.000968223
0.000120537
0.000859014
0.000129213
0.000740773
0.000136457
0.000614659
0.000142185
0.000481964
0.000146333
0.000344024
0.000148853
0.000202314
5.79897e-05
0.000149712
1.44691e-05
0.00144147
4.89768e-07
2.96068e-05
0.00138552
4.4566e-05
0.00133714
5.91048e-05
0.00128303
7.30329e-05
0.00121838
8.61783e-05
0.00114247
9.8386e-05
0.00105517
0.000109514
0.000957094
0.000119434
0.000849092
0.000128032
0.000732173
0.00013521
0.000607478
0.000140887
0.000476283
0.000144998
0.000339908
0.000147496
0.000199809
5.71259e-05
0.000148348
1.43267e-05
0.00142665
4.9603e-07
2.93266e-05
0.00137052
4.41497e-05
0.00132231
5.85563e-05
0.00126863
7.23581e-05
0.00120458
8.53844e-05
0.00112944
9.74818e-05
0.00104307
0.000108509
0.000946068
0.00011834
0.000839264
0.000126861
0.000723654
0.000133975
0.000600367
0.000139601
0.00047066
0.000143675
0.000335839
0.00014615
0.000197339
5.62902e-05
0.000146995
1.41857e-05
0.00141196
5.02208e-07
2.9049e-05
0.00135565
4.37371e-05
0.00130763
5.80129e-05
0.00125435
7.16894e-05
0.0011909
8.45978e-05
0.00111653
9.65859e-05
0.00103108
0.000107514
0.000935139
0.000117256
0.00082952
0.0001257
0.000715207
0.000132751
0.000593313
0.000138327
0.000465081
0.000142364
0.000331796
0.000144817
0.000194879
5.54415e-05
0.000145654
1.40459e-05
0.00139741
5.08299e-07
2.87739e-05
0.00134093
4.33284e-05
0.00129307
5.74744e-05
0.0012402
7.10269e-05
0.00117735
8.38185e-05
0.00110374
9.56984e-05
0.0010192
0.000106528
0.000924311
0.000116182
0.000819867
0.000124551
0.000706841
0.000131538
0.000586329
0.000137064
0.000459558
0.000141066
0.000327799
0.000143497
0.000192453
5.46226e-05
0.000144325
1.39075e-05
0.00138298
5.143e-07
2.85013e-05
0.00132633
4.29234e-05
0.00127865
5.69409e-05
0.00122619
7.03705e-05
0.00116392
8.30464e-05
0.00109106
9.4819e-05
0.00100743
0.000105551
0.000913577
0.000115119
0.000810297
0.000123412