/*--------------------------------*- C++ -*----------------------------------*\
  =========                 |
  \\      /  F ield         | OpenFOAM: The Open Source CFD Toolbox
   \\    /   O peration     | Website:  https://openfoam.org
    \\  /    A nd           | Version:  6.0
     \\/     M anipulation  |
\*---------------------------------------------------------------------------*/
FoamFile
{
    version     2.0;
    format      ascii;
    class       volScalarField;
    location    "11";
    object      p;
}
// * * * * * * * * * * * * * * * * * * * * * * * * * * * * * * * * * * * * * //

dimensions      [0 2 -2 0 0 0 0];

internalField   nonuniform List<scalar> 
8000
(
-0.333793
-0.338064
-0.340556
-0.342011
-0.342872
-0.343212
-0.343111
-0.342652
-0.341901
-0.340914
-0.339735
-0.338406
-0.33696
-0.335427
-0.333832
-0.3322
-0.330548
-0.328862
-0.327143
-0.325718
-0.334462
-0.338685
-0.341136
-0.342552
-0.343374
-0.343676
-0.343538
-0.343043
-0.342256
-0.341234
-0.340022
-0.33866
-0.337182
-0.335618
-0.333993
-0.332333
-0.330655
-0.328943
-0.327199
-0.325764
-0.335801
-0.339928
-0.342296
-0.343634
-0.344377
-0.344603
-0.34439
-0.343822
-0.342965
-0.341873
-0.340593
-0.339165
-0.337622
-0.335996
-0.334311
-0.332595
-0.330863
-0.3291
-0.327304
-0.32585
-0.337815
-0.341795
-0.344037
-0.345257
-0.345882
-0.345992
-0.345667
-0.344989
-0.344025
-0.342828
-0.341446
-0.339917
-0.338277
-0.336556
-0.33478
-0.332977
-0.331165
-0.329322
-0.327448
-0.325966
-0.340509
-0.34429
-0.346362
-0.347422
-0.347888
-0.347843
-0.347367
-0.346542
-0.345434
-0.344096
-0.342576
-0.340912
-0.33914
-0.33729
-0.335389
-0.333468
-0.331545
-0.329594
-0.327611
-0.326097
-0.343892
-0.347417
-0.349272
-0.350128
-0.350394
-0.350152
-0.349486
-0.348476
-0.347188
-0.345673
-0.343979
-0.342143
-0.340203
-0.338188
-0.336127
-0.334053
-0.331986
-0.329894
-0.327773
-0.326219
-0.347974
-0.351183
-0.35277
-0.353377
-0.353398
-0.35292
-0.352024
-0.350791
-0.349284
-0.347555
-0.345649
-0.343605
-0.341458
-0.33924
-0.336981
-0.334717
-0.332468
-0.330197
-0.327902
-0.326305
-0.352769
-0.355592
-0.356858
-0.357169
-0.3569
-0.356142
-0.354976
-0.353482
-0.351719
-0.34974
-0.347585
-0.345294
-0.3429
-0.340438
-0.337938
-0.33544
-0.332968
-0.330473
-0.327964
-0.32632
-0.35829
-0.360653
-0.361537
-0.361502
-0.360896
-0.359815
-0.358341
-0.356547
-0.354493
-0.352225
-0.349784
-0.347206
-0.344525
-0.341773
-0.338986
-0.336205
-0.333459
-0.330688
-0.327914
-0.326216
-0.36455
-0.366368
-0.366808
-0.366373
-0.365383
-0.363936
-0.362113
-0.359984
-0.357602
-0.355012
-0.352248
-0.349345
-0.346333
-0.343244
-0.340116
-0.336996
-0.333915
-0.330804
-0.327701
-0.325935
-0.371563
-0.37274
-0.372668
-0.371777
-0.370354
-0.368499
-0.366289
-0.36379
-0.361049
-0.358103
-0.354983
-0.351716
-0.34833
-0.344854
-0.341327
-0.337801
-0.334312
-0.330776
-0.32726
-0.3254
-0.379336
-0.379768
-0.379108
-0.377705
-0.3758
-0.373494
-0.370863
-0.367963
-0.364834
-0.361506
-0.357999
-0.354334
-0.350531
-0.346616
-0.342625
-0.338615
-0.334627
-0.330559
-0.326512
-0.32451
-0.387869
-0.387442
-0.386117
-0.384143
-0.381707
-0.378911
-0.375826
-0.372499
-0.36896
-0.365227
-0.361311
-0.35722
-0.352964
-0.348558
-0.344033
-0.339449
-0.334848
-0.330105
-0.325362
-0.323129
-0.397153
-0.395745
-0.393676
-0.391072
-0.388058
-0.384736
-0.381169
-0.377394
-0.37343
-0.36928
-0.364943
-0.360409
-0.355672
-0.35073
-0.345601
-0.340339
-0.334984
-0.329377
-0.323698
-0.321074
-0.407161
-0.40465
-0.401757
-0.398468
-0.39483
-0.390948
-0.386876
-0.38264
-0.378245
-0.37368
-0.368923
-0.363946
-0.358719
-0.353211
-0.347414
-0.341366
-0.335086
-0.328358
-0.32138
-0.318083
-0.417853
-0.414118
-0.410325
-0.406295
-0.401995
-0.397523
-0.392931
-0.388229
-0.383408
-0.378443
-0.373291
-0.367898
-0.362201
-0.35613
-0.34963
-0.342694
-0.335297
-0.327105
-0.318289
-0.313849
-0.429168
-0.424097
-0.419333
-0.414516
-0.409516
-0.404433
-0.399309
-0.394145
-0.388919
-0.383589
-0.378093
-0.37235
-0.366257
-0.359692
-0.352527
-0.344678
-0.336027
-0.32603
-0.314656
-0.308265
-0.441024
-0.434523
-0.428728
-0.423084
-0.417355
-0.411643
-0.405985
-0.400371
-0.394771
-0.389133
-0.383378
-0.3774
-0.371058
-0.364165
-0.356499
-0.347857
-0.337977
-0.325887
-0.310708
-0.300249
-0.453327
-0.445322
-0.43845
-0.431947
-0.425468
-0.419115
-0.412925
-0.406882
-0.400952
-0.395081
-0.389186
-0.383148
-0.376795
-0.369868
-0.362011
-0.352819
-0.341663
-0.326427
-0.303767
-0.283538
-0.465966
-0.456412
-0.448433
-0.441051
-0.433807
-0.426808
-0.42009
-0.41364
-0.407431
-0.401422
-0.395551
-0.389726
-0.3838
-0.377529
-0.370527
-0.362237
-0.351489
-0.334457
-0.304664
-0.27424
-0.478827
-0.467706
-0.458609
-0.450338
-0.442322
-0.434674
-0.427433
-0.420593
-0.414141
-0.408068
-0.402367
-0.397036
-0.392087
-0.387558
-0.383571
-0.380411
-0.378381
-0.377669
-0.382139
-0.406913
-0.491792
-0.479118
-0.468909
-0.459751
-0.450964
-0.442665
-0.4349
-0.427664
-0.420962
-0.41481
-0.409242
-0.404318
-0.40014
-0.396876
-0.394815
-0.394395
-0.396055
-0.400654
-0.412887
-0.440163
-0.504753
-0.490563
-0.479265
-0.469235
-0.459686
-0.45074
-0.442444
-0.434797
-0.427811
-0.421518
-0.415972
-0.41126
-0.407513
-0.404923
-0.403777
-0.404435
-0.407189
-0.412674
-0.424165
-0.444404
-0.517608
-0.501961
-0.489611
-0.478736
-0.468443
-0.458858
-0.45003
-0.441954
-0.434643
-0.428134
-0.422487
-0.41779
-0.41417
-0.411798
-0.410905
-0.411736
-0.414431
-0.419394
-0.428898
-0.443354
-0.530267
-0.513235
-0.499883
-0.488199
-0.477189
-0.466982
-0.457622
-0.449099
-0.44142
-0.434619
-0.428746
-0.423876
-0.420108
-0.417571
-0.416416
-0.416774
-0.418652
-0.422291
-0.429411
-0.439261
-0.542645
-0.524309
-0.510014
-0.497565
-0.485873
-0.475063
-0.465176
-0.456189
-0.448102
-0.440932
-0.434716
-0.429503
-0.425359
-0.422357
-0.420579
-0.420061
-0.420718
-0.422706
-0.427413
-0.433411
-0.554662
-0.535105
-0.51993
-0.506767
-0.494431
-0.483044
-0.472635
-0.463169
-0.454631
-0.447022
-0.440356
-0.434655
-0.429946
-0.426258
-0.423613
-0.421981
-0.421228
-0.421472
-0.423874
-0.42659
-0.566236
-0.545539
-0.529552
-0.515728
-0.502789
-0.490849
-0.479924
-0.469963
-0.460933
-0.452816
-0.445604
-0.439291
-0.43387
-0.429333
-0.425659
-0.422778
-0.420536
-0.419039
-0.419269
-0.41915
-0.577273
-0.555519
-0.538787
-0.524358
-0.510857
-0.498388
-0.486951
-0.476477
-0.466915
-0.458227
-0.450383
-0.443353
-0.437106
-0.431604
-0.426799
-0.4226
-0.418854
-0.415666
-0.413861
-0.411277
-0.58767
-0.56494
-0.54753
-0.532551
-0.518529
-0.505553
-0.493606
-0.4826
-0.472465
-0.463147
-0.454596
-0.446766
-0.439605
-0.433059
-0.427065
-0.421525
-0.416301
-0.411498
-0.407801
-0.403075
-0.597308
-0.573682
-0.555664
-0.540188
-0.525684
-0.51222
-0.499762
-0.488203
-0.477457
-0.467456
-0.458136
-0.449438
-0.441301
-0.433661
-0.426453
-0.419583
-0.412931
-0.406606
-0.401163
-0.394587
-0.606049
-0.581612
-0.563056
-0.547137
-0.532187
-0.518252
-0.505281
-0.493148
-0.481755
-0.471023
-0.460883
-0.451267
-0.442112
-0.433355
-0.424934
-0.416766
-0.408755
-0.401011
-0.393972
-0.385811
-0.613741
-0.588584
-0.56956
-0.553251
-0.53789
-0.523499
-0.51001
-0.497283
-0.485211
-0.47371
-0.462708
-0.452139
-0.441944
-0.432067
-0.422453
-0.413039
-0.403752
-0.394698
-0.386213
-0.376713
-0.620217
-0.594437
-0.575021
-0.558375
-0.542635
-0.527802
-0.51379
-0.50045
-0.487671
-0.47537
-0.463478
-0.451937
-0.440696
-0.429712
-0.418945
-0.408348
-0.397876
-0.387626
-0.377847
-0.36723
-0.625295
-0.599002
-0.579272
-0.562341
-0.546256
-0.530993
-0.516455
-0.502487
-0.48898
-0.475856
-0.463057
-0.450537
-0.43826
-0.426199
-0.414329
-0.402626
-0.391067
-0.379737
-0.368809
-0.35728
-0.628787
-0.6021
-0.582138
-0.564977
-0.54858
-0.5329
-0.517835
-0.503228
-0.488977
-0.475017
-0.461307
-0.447816
-0.434527
-0.421431
-0.408523
-0.395796
-0.383252
-0.37096
-0.359027
-0.34677
-0.630498
-0.603547
-0.58344
-0.566105
-0.549429
-0.533349
-0.517758
-0.502505
-0.487504
-0.472707
-0.458092
-0.443651
-0.429388
-0.415312
-0.401438
-0.387779
-0.374355
-0.361217
-0.348417
-0.3356
-0.630232
-0.603158
-0.582998
-0.565547
-0.548628
-0.532165
-0.516053
-0.500157
-0.484407
-0.468782
-0.453282
-0.437925
-0.422736
-0.407747
-0.392989
-0.378495
-0.364297
-0.350429
-0.336896
-0.323669
-0.627793
-0.600748
-0.580632
-0.563124
-0.546
-0.529175
-0.512555
-0.496024
-0.479539
-0.463105
-0.446753
-0.430525
-0.414473
-0.398646
-0.383094
-0.367865
-0.353005
-0.338521
-0.324381
-0.310883
-0.622995
-0.59614
-0.576167
-0.558664
-0.541375
-0.524215
-0.507105
-0.489956
-0.472758
-0.455549
-0.43839
-0.421352
-0.404508
-0.387929
-0.37168
-0.355823
-0.34041
-0.325424
-0.310798
-0.297153
-0.615661
-0.589162
-0.569435
-0.552001
-0.534592
-0.517128
-0.499554
-0.481816
-0.463941
-0.446002
-0.428093
-0.410315
-0.392764
-0.375528
-0.358684
-0.342306
-0.326452
-0.311077
-0.296081
-0.282402
-0.605619
-0.57965
-0.560275
-0.542977
-0.525497
-0.507767
-0.489765
-0.471476
-0.452971
-0.434361
-0.415774
-0.397339
-0.379174
-0.361383
-0.344054
-0.327268
-0.311085
-0.295431
-0.280178
-0.266568
-0.592721
-0.56746
-0.548545
-0.531452
-0.513954
-0.496004
-0.477618
-0.45883
-0.439754
-0.420544
-0.401364
-0.382367
-0.363692
-0.345455
-0.327754
-0.310674
-0.294275
-0.27845
-0.263046
-0.249599
-0.576839
-0.552465
-0.534118
-0.517302
-0.499844
-0.481727
-0.463012
-0.443787
-0.424214
-0.40449
-0.384811
-0.365357
-0.346284
-0.327719
-0.309763
-0.292505
-0.276003
-0.260115
-0.244662
-0.231463
-0.557866
-0.534558
-0.516887
-0.500422
-0.483068
-0.464845
-0.445868
-0.426281
-0.406297
-0.386156
-0.366086
-0.34629
-0.326938
-0.308166
-0.290076
-0.272758
-0.256264
-0.24042
-0.225014
-0.21214
-0.535722
-0.513655
-0.496767
-0.480729
-0.463549
-0.445291
-0.426129
-0.406267
-0.385971
-0.365523
-0.34518
-0.325165
-0.305662
-0.286808
-0.268708
-0.251448
-0.235073
-0.219376
-0.204111
-0.191629
-0.510351
-0.489698
-0.4737
-0.458168
-0.441236
-0.423023
-0.403763
-0.383726
-0.36323
-0.342595
-0.322107
-0.302005
-0.282482
-0.263677
-0.245691
-0.228607
-0.212461
-0.197012
-0.181975
-0.169944
-0.481731
-0.462658
-0.447654
-0.432708
-0.416107
-0.398026
-0.378768
-0.358667
-0.338092
-0.317401
-0.296904
-0.276854
-0.257448
-0.238824
-0.221077
-0.204285
-0.188477
-0.173374
-0.158648
-0.147117
-0.449869
-0.432535
-0.418626
-0.404349
-0.388165
-0.370313
-0.351167
-0.331124
-0.310603
-0.289995
-0.269632
-0.249777
-0.230627
-0.212318
-0.194937
-0.178554
-0.163188
-0.148527
-0.134191
-0.123199
-0.414806
-0.399361
-0.386645
-0.373121
-0.357447
-0.33993
-0.321013
-0.301158
-0.280832
-0.260455
-0.240375
-0.220862
-0.202112
-0.184253
-0.167363
-0.151503
-0.136684
-0.122559
-0.108685
-0.0982588
-0.376614
-0.363201
-0.351771
-0.339086
-0.324018
-0.306947
-0.288386
-0.268859
-0.248875
-0.228881
-0.209237
-0.190217
-0.172011
-0.154738
-0.138465
-0.123243
-0.109074
-0.0955764
-0.082235
-0.072392
-0.335402
-0.32415
-0.314098
-0.302336
-0.287976
-0.271468
-0.253395
-0.23434
-0.214852
-0.195398
-0.176346
-0.15797
-0.140453
-0.123904
-0.108374
-0.093905
-0.0804894
-0.0677128
-0.0549731
-0.0457193
-0.291313
-0.282341
-0.27375
-0.262998
-0.249448
-0.233624
-0.216175
-0.197741
-0.178904
-0.160147
-0.141845
-0.124265
-0.107583
-0.0918945
-0.0772371
-0.0636392
-0.0510847
-0.0391275
-0.0270629
-0.0183963
-0.244523
-0.237936
-0.230885
-0.221227
-0.208591
-0.193573
-0.176888
-0.159223
-0.141191
-0.123289
-0.105891
-0.0892589
-0.0735577
-0.0588691
-0.0452163
-0.0326137
-0.0210371
-0.0100101
0.00129262
0.00937861
-0.195242
-0.191133
-0.185693
-0.177211
-0.165591
-0.151502
-0.135716
-0.118968
-0.101892
-0.0849962
-0.0686523
-0.0531153
-0.0385384
-0.0249907
-0.0124808
-0.00100954
0.00945453
0.0194137
0.0298363
0.037343
-0.143713
-0.142159
-0.138394
-0.131164
-0.120661
-0.107619
-0.0928649
-0.0771729
-0.0611979
-0.045451
-0.0303023
-0.0159987
-0.00268396
0.00958324
0.0208059
0.0309943
0.0401826
0.0488901
0.0582525
0.0651487
-0.0902107
-0.0912717
-0.0892371
-0.0833319
-0.0740394
-0.0621574
-0.0485596
-0.0340541
-0.0193103
-0.00484132
0.00898669
0.0219337
0.0338625
0.0447193
0.0545122
0.0632567
0.0709825
0.0782024
0.0862176
0.092368
-0.0350379
-0.038758
-0.0384984
-0.0339826
-0.0259886
-0.0153709
-0.00304314
0.0101593
0.0235577
0.0366397
0.0490442
0.0605358
0.0709787
0.0803157
0.0885469
0.0956839
0.101741
0.107149
0.113239
0.118167
0.0214756
0.0150712
0.0135216
0.0165912
0.0232075
0.0324668
0.0434235
0.0552227
0.0671818
0.0787935
0.0897026
0.0996766
0.108574
0.116319
0.122879
0.128232
0.132323
0.135233
0.137847
0.140046
0.0789754
0.0698811
0.0665001
0.0680755
0.0732447
0.0810629
0.0905616
0.100874
0.111323
0.121411
0.130794
0.139248
0.146631
0.152843
0.157811
0.161471
0.163595
0.163411
0.160554
0.15817
0.137085
0.125316
0.120094
0.120138
0.123801
0.130107
0.138073
0.146832
0.155715
0.164247
0.172106
0.179093
0.18509
0.190029
0.193892
0.196751
0.198504
0.197841
0.193829
0.199326
0.195435
0.18102
0.173956
0.172439
0.174546
0.179278
0.185648
0.192791
0.200061
0.207003
0.213326
0.218856
0.223511
0.227264
0.230158
0.232352
0.23387
0.233817
0.232221
0.240037
0.253626
0.236614
0.227721
0.224623
0.225136
0.228244
0.232963
0.23844
0.244049
0.249364
0.254119
0.258165
0.261444
0.263955
0.265763
0.267032
0.267792
0.267332
0.265911
0.272784
0.31126
0.291716
0.281018
0.276332
0.275224
0.276671
0.279697
0.283465
0.287376
0.291028
0.29418
0.296707
0.298565
0.299769
0.300392
0.300587
0.300373
0.299122
0.297108
0.302366
0.36794
0.345946
0.333478
0.327209
0.324467
0.324227
0.325532
0.327563
0.329747
0.331711
0.333234
0.334208
0.334605
0.334444
0.3338
0.33281
0.331481
0.32925
0.32641
0.330029
0.423275
0.398926
0.384735
0.3769
0.372523
0.370589
0.37016
0.370442
0.370887
0.371149
0.371029
0.370435
0.369345
0.367785
0.365825
0.363587
0.361068
0.357767
0.354002
0.356003
0.476883
0.450286
0.43443
0.425056
0.419061
0.415442
0.413284
0.411821
0.410533
0.4091
0.407343
0.405183
0.402605
0.399639
0.396349
0.392845
0.389116
0.384726
0.380008
0.38042
0.528394
0.499666
0.482213
0.471343
0.463761
0.458481
0.454619
0.451436
0.448441
0.44534
0.441971
0.438268
0.434225
0.42987
0.425267
0.420511
0.415591
0.410131
0.404469
0.403337
0.577451
0.546719
0.527748
0.515435
0.506314
0.499419
0.493896
0.489037
0.484381
0.479657
0.474722
0.469522
0.464056
0.458354
0.452477
0.446509
0.44044
0.433951
0.427373
0.424757
0.623716
0.591115
0.570713
0.557026
0.546428
0.53798
0.530859
0.524389
0.518137
0.511856
0.505421
0.498787
0.49196
0.484971
0.477877
0.470755
0.463595
0.456134
0.448682
0.444655
0.666868
0.632542
0.610806
0.595825
0.583829
0.573907
0.56527
0.557271
0.549507
0.541754
0.533901
0.525914
0.517804
0.509604
0.501367
0.493162
0.484983
0.476617
0.468342
0.462988
0.706609
0.670709
0.647745
0.63156
0.618261
0.606961
0.596907
0.587481
0.578306
0.56918
0.560008
0.550765
0.541464
0.532141
0.522846
0.513641
0.504523
0.495326
0.486289
0.479704
0.742664
0.705345
0.681268
0.663984
0.649487
0.636922
0.625566
0.614828
0.60436
0.593977
0.583599
0.573207
0.562821
0.552475
0.542218
0.532104
0.522136
0.512187
0.502457
0.494747
0.774782
0.736209
0.711138
0.692868
0.677295
0.66359
0.651061
0.639145
0.627514
0.616004
0.604544
0.593124
0.581766
0.570507
0.559391
0.548467
0.537744
0.527127
0.516777
0.50806
0.802741
0.76308
0.737146
0.718012
0.701494
0.686788
0.67323
0.660279
0.647629
0.63513
0.622724
0.610406
0.5982
0.586144
0.57428
0.562652
0.551272
0.540076
0.529186
0.519587
0.826345
0.785771
0.759106
0.73924
0.721919
0.706361
0.691927
0.678097
0.664582
0.651245
0.638037
0.624959
0.612036
0.599306
0.58681
0.574588
0.562654
0.550972
0.539624
0.529277
0.845429
0.804119
0.776864
0.756403
0.738429
0.722179
0.707033
0.692489
0.678271
0.664254
0.650396
0.636701
0.623197
0.609923
0.596916
0.584213
0.571833
0.559758
0.54804
0.537086
0.859861
0.817995
0.790294
0.769382
0.750912
0.734136
0.718449
0.703362
0.688612
0.674079
0.659728
0.645566
0.631623
0.617936
0.604543
0.591477
0.57876
0.566389
0.554391
0.542977
0.869538
0.827301
0.799301
0.778085
0.759282
0.742152
0.726102
0.71065
0.695541
0.680662
0.665981
0.651505
0.637267
0.623304
0.609651
0.596342
0.583399
0.57083
0.558644
0.54692
0.874394
0.831971
0.80382
0.782452
0.763481
0.746174
0.729941
0.714306
0.699017
0.683964
0.669116
0.654483
0.640097
0.625995
0.612213
0.598781
0.585725
0.573056
0.560776
0.548897
0.874394
0.831971
0.80382
0.782452
0.763482
0.746174
0.729941
0.714306
0.699017
0.683964
0.669116
0.654483
0.640097
0.625995
0.612213
0.598781
0.585725
0.573057
0.560776
0.548897
0.869539
0.827302
0.799301
0.778086
0.759283
0.742153
0.726102
0.710651
0.695542
0.680663
0.665981
0.651506
0.637268
0.623304
0.609652
0.596343
0.583399
0.57083
0.558644
0.54692
0.859862
0.817996
0.790295
0.769383
0.750913
0.734137
0.71845
0.703363
0.688613
0.67408
0.659729
0.645567
0.631624
0.617937
0.604544
0.591478
0.578761
0.56639
0.554392
0.542977
0.84543
0.80412
0.776866
0.756404
0.738431
0.722181
0.707034
0.69249
0.678272
0.664255
0.650397
0.636702
0.623198
0.609924
0.596917
0.584214
0.571834
0.559759
0.548041
0.537087
0.826346
0.785772
0.759108
0.739241
0.721921
0.706363
0.691929
0.678099
0.664584
0.651247
0.638039
0.62496
0.612037
0.599307
0.586812
0.574589
0.562655
0.550973
0.539626
0.529279
0.802743
0.763082
0.737148
0.718014
0.701496
0.68679
0.673232
0.660281
0.647631
0.635132
0.622726
0.610408
0.598202
0.586146
0.574282
0.562654
0.551273
0.540078
0.529188
0.519589
0.774785
0.736211
0.711141
0.69287
0.677298
0.663593
0.651064
0.639147
0.627517
0.616006
0.604546
0.593126
0.581768
0.570509
0.559393
0.548469
0.537746
0.527129
0.516779
0.508062
0.742667
0.705348
0.681271
0.663986
0.64949
0.636925
0.625568
0.614831
0.604363
0.59398
0.583602
0.57321
0.562823
0.552478
0.542221
0.532107
0.522139
0.512189
0.502459
0.49475
0.706613
0.670712
0.647748
0.631564
0.618264
0.606964
0.59691
0.587484
0.578309
0.569183
0.560011
0.550767
0.541467
0.532144
0.522849
0.513644
0.504526
0.495328
0.486292
0.479707
0.666872
0.632546
0.61081
0.595829
0.583833
0.573911
0.565274
0.557275
0.549511
0.541757
0.533904
0.525918
0.517807
0.509607
0.50137
0.493165
0.484986
0.476619
0.468345
0.46299
0.62372
0.59112
0.570717
0.55703
0.546432
0.537984
0.530863
0.524393
0.518141
0.51186
0.505425
0.498791
0.491963
0.484975
0.477881
0.470758
0.463598
0.456138
0.448685
0.444658
0.577456
0.546724
0.527752
0.51544
0.506318
0.499423
0.4939
0.489041
0.484385
0.479661
0.474726
0.469526
0.46406
0.458358
0.452481
0.446513
0.440443
0.433954
0.427376
0.42476
0.528399
0.499671
0.482218
0.471348
0.463765
0.458486
0.454624
0.45144
0.448446
0.445344
0.441975
0.438273
0.434229
0.429874
0.425271
0.420515
0.415595
0.410134
0.404472
0.40334
0.476889
0.450292
0.434436
0.425062
0.419066
0.415447
0.413289
0.411826
0.410538
0.409105
0.407348
0.405188
0.40261
0.399643
0.396354
0.392849
0.389121
0.38473
0.380012
0.380424
0.423281
0.398932
0.384741
0.376905
0.372529
0.370595
0.370165
0.370447
0.370892
0.371154
0.371035
0.37044
0.36935
0.36779
0.36583
0.363591
0.361072
0.357771
0.354006
0.356007
0.367946
0.345953
0.333484
0.327216
0.324473
0.324233
0.325538
0.327569
0.329753
0.331716
0.333239
0.334214
0.33461
0.334449
0.333805
0.332815
0.331486
0.329255
0.326415
0.330034
0.311267
0.291723
0.281024
0.276339
0.275231
0.276677
0.279703
0.283472
0.287382
0.291034
0.294186
0.296713
0.298571
0.299775
0.300397
0.300592
0.300378
0.299127
0.297113
0.30237
0.253633
0.236621
0.227728
0.22463
0.225143
0.228251
0.232969
0.238446
0.244056
0.249371
0.254125
0.258171
0.26145
0.263961
0.265769
0.267037
0.267797
0.267337
0.265916
0.272789
0.195442
0.181028
0.173964
0.172446
0.174553
0.179285
0.185655
0.192798
0.200067
0.20701
0.213332
0.218862
0.223517
0.22727
0.230164
0.232357
0.233876
0.233823
0.232227
0.240042
0.137093
0.125324
0.120102
0.120145
0.123808
0.130114
0.138081
0.146839
0.155722
0.164254
0.172113
0.179099
0.185096
0.190035
0.193898
0.196757
0.198509
0.197846
0.193835
0.199331
0.0789835
0.0698892
0.0665082
0.0680835
0.0732526
0.0810708
0.0905693
0.100882
0.11133
0.121418
0.130801
0.139255
0.146638
0.15285
0.157817
0.161477
0.163601
0.163417
0.160559
0.158176
0.0214841
0.0150797
0.0135301
0.0165996
0.0232157
0.032475
0.0434316
0.0552306
0.0671895
0.0788011
0.08971
0.0996837
0.108581
0.116326
0.122885
0.128239
0.132329
0.135239
0.137853
0.140052
-0.0350291
-0.0387492
-0.0384896
-0.0339738
-0.02598
-0.0153624
-0.00303476
0.0101675
0.0235657
0.0366476
0.0490519
0.0605433
0.070986
0.0803228
0.0885538
0.0956906
0.101747
0.107155
0.113245
0.118173
-0.0902015
-0.0912625
-0.089228
-0.0833229
-0.0740305
-0.0621486
-0.0485509
-0.0340455
-0.0193019
-0.00483315
0.00899466
0.0219415
0.03387
0.0447267
0.0545194
0.0632637
0.0709893
0.0782091
0.0862241
0.0923744
-0.143704
-0.142149
-0.138385
-0.131155
-0.120652
-0.10761
-0.0928559
-0.0771641
-0.0611893
-0.0454425
-0.0302941
-0.0159907
-0.00267613
0.00959087
0.0208133
0.0310015
0.0401897
0.0488971
0.0582592
0.0651554
-0.195232
-0.191123
-0.185683
-0.177201
-0.165582
-0.151492
-0.135707
-0.118959
-0.101884
-0.0849874
-0.0686438
-0.053107
-0.0385303
-0.0249828
-0.0124731
-0.001002
0.00946191
0.0194209
0.0298434
0.0373499
-0.244512
-0.237926
-0.230875
-0.221217
-0.208581
-0.193564
-0.176878
-0.159214
-0.141182
-0.12328
-0.105882
-0.0892503
-0.0735493
-0.0588609
-0.0452083
-0.0326059
-0.0210295
-0.0100027
0.00129989
0.00938575
-0.291302
-0.28233
-0.273739
-0.262988
-0.249438
-0.233614
-0.216165
-0.197732
-0.178894
-0.160138
-0.141836
-0.124256
-0.107575
-0.0918861
-0.0772289
-0.0636312
-0.0510769
-0.0391198
-0.0270553
-0.0183889
-0.335391
-0.324139
-0.314087
-0.302326
-0.287966
-0.271457
-0.253385
-0.23433
-0.214842
-0.195388
-0.176337
-0.157961
-0.140444
-0.123895
-0.108365
-0.0938967
-0.0804813
-0.0677048
-0.0549653
-0.0457117
-0.376603
-0.363189
-0.35176
-0.339075
-0.324008
-0.306936
-0.288375
-0.268848
-0.248865
-0.228871
-0.209228
-0.190207
-0.172002
-0.154729
-0.138456
-0.123235
-0.109066
-0.0955683
-0.082227
-0.0723841
-0.414794
-0.39935
-0.386633
-0.37311
-0.357436
-0.339919
-0.321002
-0.301147
-0.280821
-0.260445
-0.240365
-0.220852
-0.202102
-0.184244
-0.167354
-0.151494
-0.136676
-0.12255
-0.108677
-0.0982508
-0.449858
-0.432524
-0.418614
-0.404337
-0.388154
-0.370302
-0.351156
-0.331113
-0.310592
-0.289985
-0.269622
-0.249767
-0.230618
-0.212309
-0.194928
-0.178545
-0.16318
-0.148519
-0.134182
-0.12319
-0.48172
-0.462646
-0.447642
-0.432696
-0.416095
-0.398014
-0.378757
-0.358656
-0.338082
-0.317391
-0.296893
-0.276844
-0.257438
-0.238814
-0.221067
-0.204276
-0.188468
-0.173365
-0.158639
-0.147109
-0.510339
-0.489686
-0.473688
-0.458156
-0.441225
-0.423011
-0.403752
-0.383715
-0.363219
-0.342584
-0.322096
-0.301995
-0.282472
-0.263667
-0.245681
-0.228597
-0.212452
-0.197003
-0.181966
-0.169936
-0.535709
-0.513643
-0.496755
-0.480717
-0.463537
-0.445279
-0.426117
-0.406255
-0.38596
-0.365512
-0.345169
-0.325155
-0.305651
-0.286798
-0.268698
-0.251438
-0.235064
-0.219367
-0.204102
-0.19162
-0.557854
-0.534546
-0.516874
-0.500409
-0.483056
-0.464833
-0.445856
-0.426269
-0.406286
-0.386145
-0.366075
-0.346279
-0.326928
-0.308155
-0.290066
-0.272748
-0.256254
-0.240411
-0.225005
-0.212131
-0.576826
-0.552453
-0.534105
-0.51729
-0.499832
-0.481714
-0.463
-0.443775
-0.424203
-0.404479
-0.3848
-0.365346
-0.346273
-0.327708
-0.309752
-0.292495
-0.275993
-0.260106
-0.244652
-0.231454
-0.592708
-0.567447
-0.548532
-0.53144
-0.513941
-0.495991
-0.477606
-0.458818
-0.439742
-0.420533
-0.401352
-0.382355
-0.363681
-0.345445
-0.327744
-0.310664
-0.294265
-0.27844
-0.263036
-0.24959
-0.605606
-0.579637
-0.560262
-0.542964
-0.525484
-0.507754
-0.489752
-0.471464
-0.452959
-0.434349
-0.415763
-0.397328
-0.379163
-0.361372
-0.344044
-0.327258
-0.311075
-0.29542
-0.280168
-0.266558
-0.615648
-0.589149
-0.569422
-0.551988
-0.534579
-0.517115
-0.499542
-0.481804
-0.463929
-0.44599
-0.428082
-0.410303
-0.392752
-0.375516
-0.358673
-0.342296
-0.326442
-0.311066
-0.296071
-0.282392
-0.622982
-0.596127
-0.576154
-0.558651
-0.541362
-0.524202
-0.507092
-0.489944
-0.472746
-0.455537
-0.438378
-0.42134
-0.404496
-0.387918
-0.371669
-0.355812
-0.340399
-0.325413
-0.310788
-0.297143
-0.62778
-0.600735
-0.580619
-0.563111
-0.545987
-0.529162
-0.512542
-0.496011
-0.479526
-0.463093
-0.446741
-0.430513
-0.414461
-0.398634
-0.383083
-0.367854
-0.352994
-0.338511
-0.32437
-0.310872
-0.630219
-0.603145
-0.582985
-0.565534
-0.548615
-0.532152
-0.51604
-0.500144
-0.484395
-0.46877
-0.45327
-0.437913
-0.422724
-0.407735
-0.392977
-0.378483
-0.364286
-0.350418
-0.336885
-0.323659
-0.630485
-0.603534
-0.583427
-0.566093
-0.549416
-0.533337
-0.517745
-0.502493
-0.487492
-0.472695
-0.45808
-0.443639
-0.429376
-0.4153
-0.401426
-0.387768
-0.374344
-0.361206
-0.348406
-0.335589
-0.628774
-0.602087
-0.582125
-0.564964
-0.548567
-0.532888
-0.517822
-0.503215
-0.488964
-0.475005
-0.461294
-0.447804
-0.434515
-0.421419
-0.408511
-0.395785
-0.383241
-0.370949
-0.359016
-0.346759
-0.625282
-0.598989
-0.579259
-0.562328
-0.546243
-0.53098
-0.516443
-0.502475
-0.488967
-0.475843
-0.463045
-0.450525
-0.438248
-0.426187
-0.414318
-0.402614
-0.391056
-0.379726
-0.368798
-0.357269
-0.620204
-0.594424
-0.575008
-0.558362
-0.542623
-0.527789
-0.513778
-0.500438
-0.487659
-0.475358
-0.463466
-0.451925
-0.440684
-0.4297
-0.418933
-0.408336
-0.397865
-0.387615
-0.377835
-0.367219
-0.613728
-0.588571
-0.569548
-0.553239
-0.537878
-0.523487
-0.509998
-0.49727
-0.485198
-0.473698
-0.462696
-0.452127
-0.441932
-0.432055
-0.422442
-0.413027
-0.403741
-0.394686
-0.386202
-0.376702
-0.606036
-0.581599
-0.563043
-0.547124
-0.532175
-0.51824
-0.505269
-0.493136
-0.481743
-0.471011
-0.460871
-0.451255
-0.4421
-0.433343
-0.424922
-0.416754
-0.408744
-0.400999
-0.39396
-0.3858
-0.597295
-0.573669
-0.555651
-0.540176
-0.525672
-0.512208
-0.49975
-0.488191
-0.477445
-0.467444
-0.458124
-0.449426
-0.441289
-0.43365
-0.426441
-0.419571
-0.412919
-0.406594
-0.401152
-0.394575
-0.587657
-0.564927
-0.547518
-0.532538
-0.518517
-0.505541
-0.493594
-0.482588
-0.472453
-0.463135
-0.454585
-0.446754
-0.439593
-0.433047
-0.427053
-0.421514
-0.416289
-0.411486
-0.407789
-0.403063
-0.57726
-0.555507
-0.538775
-0.524346
-0.510845
-0.498376
-0.48694
-0.476466
-0.466903
-0.458215
-0.450371
-0.443341
-0.437094
-0.431592
-0.426787
-0.422588
-0.418842
-0.415655
-0.41385
-0.411266
-0.566223
-0.545527
-0.52954
-0.515717
-0.502778
-0.490837
-0.479913
-0.469952
-0.460921
-0.452805
-0.445593
-0.439279
-0.433858
-0.429321
-0.425647
-0.422766
-0.420524
-0.419027
-0.419257
-0.419138
-0.55465
-0.535093
-0.519919
-0.506756
-0.49442
-0.483032
-0.472624
-0.463158
-0.454619
-0.44701
-0.440344
-0.434643
-0.429934
-0.426246
-0.423601
-0.421969
-0.421216
-0.42146
-0.423862
-0.426578
-0.542633
-0.524297
-0.510002
-0.497554
-0.485861
-0.475052
-0.465165
-0.456178
-0.44809
-0.440921
-0.434705
-0.429492
-0.425347
-0.422345
-0.420567
-0.420049
-0.420707
-0.422694
-0.427401
-0.433399
-0.530255
-0.513224
-0.499872
-0.488188
-0.477178
-0.466971
-0.457611
-0.449088
-0.44141
-0.434608
-0.428735
-0.423864
-0.420097
-0.417559
-0.416405
-0.416763
-0.418641
-0.422279
-0.4294
-0.43925
-0.517596
-0.50195
-0.4896
-0.478725
-0.468432
-0.458848
-0.45002
-0.441943
-0.434632
-0.428123
-0.422476
-0.417779
-0.414159
-0.411787
-0.410893
-0.411724
-0.41442
-0.419382
-0.428886
-0.443342
-0.504741
-0.490552
-0.479254
-0.469224
-0.459675
-0.450729
-0.442434
-0.434787
-0.427801
-0.421507
-0.415961
-0.41125
-0.407502
-0.404912
-0.403766
-0.404424
-0.407178
-0.412662
-0.424153
-0.444392
-0.491781
-0.479107
-0.468898
-0.459741
-0.450954
-0.442655
-0.43489
-0.427654
-0.420951
-0.414799
-0.409231
-0.404308
-0.400129
-0.396865
-0.394804
-0.394383
-0.396043
-0.400643
-0.412875
-0.440151
-0.478815
-0.467695
-0.458599
-0.450328
-0.442312
-0.434664
-0.427424
-0.420583
-0.414131
-0.408058
-0.402357
-0.397026
-0.392076
-0.387547
-0.38356
-0.3804
-0.37837
-0.377658
-0.382128
-0.406901
-0.465955
-0.456401
-0.448423
-0.441041
-0.433797
-0.426798
-0.420081
-0.413631
-0.407421
-0.401412
-0.395541
-0.389716
-0.383789
-0.377518
-0.370516
-0.362226
-0.351478
-0.334445
-0.304652
-0.274228
-0.453316
-0.445312
-0.43844
-0.431937
-0.425459
-0.419106
-0.412916
-0.406872
-0.400942
-0.395071
-0.389176
-0.383139
-0.376784
-0.369857
-0.362001
-0.352808
-0.341652
-0.326415
-0.303756
-0.283526
-0.441014
-0.434513
-0.428718
-0.423074
-0.417346
-0.411634
-0.405976
-0.400362
-0.394762
-0.389123
-0.383368
-0.37739
-0.371048
-0.364155
-0.356488
-0.347846
-0.337966
-0.325876
-0.310697
-0.300238
-0.429157
-0.424088
-0.419323
-0.414507
-0.409507
-0.404424
-0.3993
-0.394136
-0.38891
-0.38358
-0.378084
-0.372341
-0.366248
-0.359682
-0.352517
-0.344668
-0.336017
-0.326019
-0.314644
-0.308253
-0.417843
-0.414109
-0.410315
-0.406286
-0.401986
-0.397514
-0.392922
-0.38822
-0.3834
-0.378435
-0.373282
-0.367889
-0.362192
-0.35612
-0.34962
-0.342684
-0.335287
-0.327095
-0.318278
-0.313837
-0.407152
-0.404641
-0.401749
-0.398459
-0.394822
-0.390939
-0.386868
-0.382632
-0.378237
-0.373672
-0.368915
-0.363938
-0.35871
-0.353202
-0.347405
-0.341356
-0.335076
-0.328348
-0.32137
-0.318072
-0.397143
-0.395736
-0.393668
-0.391064
-0.38805
-0.384728
-0.381161
-0.377386
-0.373422
-0.369272
-0.364934
-0.3604
-0.355663
-0.350721
-0.345592
-0.34033
-0.334974
-0.329368
-0.323688
-0.321064
-0.38786
-0.387433
-0.386109
-0.384135
-0.381699
-0.378904
-0.375819
-0.372492
-0.368953
-0.36522
-0.361303
-0.357212
-0.352956
-0.34855
-0.344025
-0.33944
-0.334839
-0.330096
-0.325352
-0.323119
-0.379327
-0.37976
-0.3791
-0.377697
-0.375792
-0.373487
-0.370856
-0.367956
-0.364827
-0.361498
-0.357992
-0.354326
-0.350524
-0.346609
-0.342617
-0.338607
-0.334619
-0.33055
-0.326502
-0.3245
-0.371555
-0.372733
-0.37266
-0.37177
-0.370347
-0.368492
-0.366282
-0.363783
-0.361042
-0.358097
-0.354976
-0.351709
-0.348323
-0.344847
-0.341319
-0.337793
-0.334304
-0.330768
-0.327251
-0.325391
-0.364543
-0.366361
-0.366802
-0.366366
-0.365377
-0.36393
-0.362107
-0.359978
-0.357596
-0.355006
-0.352242
-0.349338
-0.346326
-0.343238
-0.340109
-0.336989
-0.333908
-0.330796
-0.327693
-0.325927
-0.358283
-0.360646
-0.361531
-0.361496
-0.360891
-0.35981
-0.358335
-0.356541
-0.354487
-0.352219
-0.349778
-0.3472
-0.344519
-0.341767
-0.338979
-0.336198
-0.333452