1.45 	0 	0 	-0.00210652 	-0.00307138 	3.97156e-21
2.35 	0 	0 	0.0832368 	-0.00738309 	2.32951e-21
